default_name
230928
  53.9895346  61.2515629  70.8933308  54.4844471  62.0179078  71.3267799
  53.6165809  60.6548207  71.6178338  53.3782068  61.6221058  70.1798353
  54.9601061  60.4312865  70.1806712  54.9489547  59.4162133  70.5776614
  54.6212006  60.3769568  68.6909647  53.6178063  59.9660194  68.5794763
  54.6461337  61.3884332  68.2855097  55.5880496  59.5150991  67.9028390
  56.2914694  60.0008205  67.0176553  55.6226544  58.2256469  68.2187340
  56.2484603  57.6047309  67.7258545  55.0230076  57.8718390  68.9504064
  56.3725382  60.9714971  70.3816708  56.8279532  61.8415665  69.6406374
  57.0596968  60.4469849  71.3923503  56.6406667  59.7535468  71.9953898
  58.4165322  60.8849434  71.6833471  58.4417075  61.9672909  71.8097956
  58.9088106  60.2308842  72.9739558  58.0684147  60.3460485  73.6584783
  59.0720240  59.1717346  72.7747986  60.1649548  60.8295825  73.6049731
  60.9375280  60.9184528  72.8412103  59.8670600  62.2001165  74.1845474
  59.0948517  62.1119827  74.9487630  60.7728872  62.6115931  74.6298169
  59.5191712  62.8625670  73.3919358  60.7151983  59.9031524  74.6731877
  60.9673827  58.9415656  74.2261382  61.6097174  60.3448660  75.1123073
  59.9643481  59.7565374  75.4496070  59.3473392  60.5376894  70.5276158
  59.2981315  59.4335714  69.9802960  60.2014978  61.4884522  70.1567933
  60.2278087  62.3789076  70.6327095  61.0947004  61.2832282  69.0303093
  60.5338989  60.8905000  68.1821551  61.7465659  62.5981278  68.6166291
  62.2347303  62.4576624  67.6522307  60.9709370  63.3582610  68.5233698
  62.7031048  63.0153703  69.5729639  63.0981926  63.8433387  69.2901676
  62.1710473  60.2616563  69.3849817  62.4678257  60.0386995  70.5608753
  62.7713025  59.6211174  68.3783589  62.5039377  59.6154304  66.9758580
  63.0115584  60.4674461  66.5236515  61.4284462  59.7137739  66.8283937
  63.0356455  58.2905806  66.4764925  63.2926814  58.3498393  65.4188915
  62.3033654  57.4975438  66.6280177  64.2798069  58.0597627  67.3431391
  65.1735129  58.5825768  67.0024722  64.4996025  56.9975641  67.4504882
  63.8226332  58.6319797  68.6752367  63.3574635  57.8185736  69.2320902
  64.9801970  59.1980441  69.4794301  65.4663257  58.5444835  70.4141062
  65.4289082  60.4116157  69.1508555  65.0409622  60.9247900  68.3722353
  66.5444798  61.0014682  69.8800771  67.3838929  60.3064734  69.9016892
  66.9962376  62.2912225  69.1986273  67.2109702  61.9931064  68.1724129
  66.1698526  63.0019631  69.2046033  68.2358494  62.9462875  69.8087047
  68.0509725  63.1373655  70.8657811  69.4449962  62.0402865  69.6625572
  69.6307902  61.8491196  68.6056586  70.3171980  62.5237199  70.1026219
  69.2564802  61.0965264  70.1742983  68.4975803  64.2948392  69.1679815
  67.6390396  64.9468627  69.3288308  69.3837062  64.7446180  69.6158443
  68.6584720  64.1641553  68.0978719  66.1701800  61.2675260  71.3316459
  66.9699270  61.0170312  72.2398937  64.9633163  61.7839397  71.5718497
  64.3570297  62.0870658  70.8230971  64.5189307  61.9859167  72.9460388
  65.2366201  62.6073527  73.4816117  63.1599463  62.6841056  72.9633187
  62.5072715  62.1387862  72.2815990  62.7697180  62.6076341  73.9781950
  63.2148314  64.1434101  72.5515554  63.5882922  64.7173457  73.3996271
  63.9128776  64.2304576  71.7189370  61.8625257  64.6818660  72.1344025
  61.2800698  64.1445604  71.1691353  61.3806428  65.6421265  72.7709508
  64.4536074  60.6663578  73.7066348  64.8481628  60.5991348  74.8737749
  63.9444882  59.6091029  73.0699151  63.5661981  59.6867759  72.1366612
  63.8728150  58.3131541  73.7407211  63.3128879  58.4043044  74.6714586
  63.1658913  57.2997725  72.8431691  62.1492013  57.6458408  72.6569505
  63.7050409  57.2324935  71.8982399  63.1250682  56.0233259  73.4548656
  62.6772009  55.4041960  72.8737520  65.2606313  57.8124559  74.1149513
  65.4795753  57.3196271  75.2335394  66.2237186  57.9641720  73.2038991
  66.0370557  58.3373341  72.2841131  67.5788135  57.5244036  73.5089494
  67.5686111  56.4908163  73.8549152  68.4463538  57.6108361  72.2559589
  68.0062195  56.8838549  71.5734053  68.3344542  58.6124184  71.8407343
  69.9287371  57.3005318  72.4422922  70.3825346  58.0887772  73.0429900
  70.1101546  55.9670874  73.1390437  69.6569863  55.1782294  72.5386768
  71.1736881  55.7630757  73.2630462  69.6304640  55.9994723  74.1172811
  70.6271634  57.2982362  71.0985450  70.5208315  58.2773690  70.6315419
  71.6850382  57.0760697  71.2387028  70.1790263  56.5396156  70.4568543
  68.1729383  58.3528283  74.6386141  68.8169495  57.8083154  75.5444685
  67.9726725  59.6718680  74.6060299  67.4893772  60.1212046  73.8414243
  68.5085784  60.5085209  75.6711434  69.5836332  60.3502287  75.7565834
  68.2555965  61.9814093  75.3605005  67.1828508  62.1574508  75.2809642
  68.6660754  62.5976828  76.1603845  68.7369513  62.2423775  74.4180079
  67.8876731  60.1280205  77.0066036  68.5643429  60.1294923  78.0401266
  66.5904477  59.8229680  77.0034273  66.0456716  59.8962153  76.1561061
  65.9086329  59.4365158  78.2317959  66.0269289  60.2143791  78.9861393
  64.4176014  59.2419655  77.9607456  63.9731357  60.1583866  77.5725166
  64.2702569  58.4349283  77.2430544  63.6432199  58.8756554  79.1785934
  63.3663743  57.6198347  79.6226506  63.7467156  56.7913663  79.0250886
  62.6334609  57.6789839  80.7816701  62.2980070  56.8842513  81.3069989
  62.4262963  58.9922210  81.1077762  61.7439197  59.5523043  82.1802849
  61.2826746  58.8865323  82.9097363  61.6946972  60.9152007  82.2519480
  61.1697536  61.3902468  83.0807213  62.3037222  61.7206788  81.2842034
  62.2559961  62.8076127  81.3505092  62.9816136  61.1662206  80.2190596
  63.4380187  61.8367461  79.4909176  63.0494765  59.7745406  80.1189530
  66.5217565  58.1721158  78.8151595  66.7912303  58.0943823  80.0211468
  66.7450015  57.1625370  77.9699676  66.4575042  57.1908456  77.0021643
  67.3727576  55.9438663  78.4697446  66.7963330  55.5506703  79.3071399
  67.4330527  54.8791219  77.3758639  67.9213165  55.3334145  76.5137062
  68.0506394  54.0650860  77.7553796  66.0812336  54.3360645  76.9619442
  65.6372177  53.8026821  77.8024523  65.4401228  55.1724643  76.6835302
  66.1789016  53.3895377  75.7860033  67.2593899  52.8972403  75.4591067
  65.0482644  53.1230836  75.1458910  65.0557378  52.4972761  74.3531675
  64.1850023  53.5472079  75.4541091  68.7685744  56.2325971  79.0030089
  69.1606406  55.7078317  80.0529110  69.5294534  57.0721226  78.2978061
  69.2128039  57.4511123  77.4167843  70.8814226  57.3968834  78.7454828
  71.4773236  56.4932190  78.8735135  71.5828116  58.3073713  77.7237768
  70.9571655  59.1802925  77.5375651  72.9281968  58.7549343  78.2513865
  73.5546090  57.8825221  78.4374124  73.4115005  59.3985276  77.5163315
  72.7891968  59.3066766  79.1810967  71.7668949  57.5783121  76.4089753
  70.7932642  57.2863337  76.0154096  72.2646037  58.2349611  75.6953944
  72.3754785  56.6882269  76.5685847  70.8413782  58.0334783  80.1284689
  71.5807747  57.6383615  81.0372365  69.9658096  59.0236507  80.3105573
  69.3840584  59.3510689  79.5526245  69.8713676  59.7030983  81.5983565
  70.8452915  60.1039923  81.8791683  68.8729075  60.8583952  81.5151251
  69.2661004  61.5744043  80.7934400  67.9336304  60.4481003  81.1442925
  68.6295137  61.5617681  82.8487277  68.1727244  60.8423618  83.5283592
  69.5963216  61.8720553  83.2450942  67.7209744  62.7804635  82.7127718
  67.6613483  63.2650073  83.6873286  68.1789018  63.4621688  81.9960572
  66.3201353  62.4150938  82.2415015  65.7574046  63.3379346  82.1007904
  66.4073871  61.8943653  81.2879145  65.6098228  61.5453403  83.2181068
  65.5284877  62.0278430  84.1016652  64.6880646  61.3279622  82.8670958
  66.1308779  60.6899766  83.3483123  69.4728566  58.7304473  82.7003289
  70.0955699  58.6938333  83.7697290  68.4224009  57.9397142  82.4635866
  67.9200720  57.9694057  81.5878678  67.9362437  57.0465230  83.5100137
  67.6945876  57.6208663  84.4043466  66.6797234  56.3174696  83.0445904
  66.8569162  55.8235799  82.0891979  66.3717942  55.5779063  83.7837290
  65.2630730  57.3911426  82.7946843  64.4254494  56.4301284  82.4155580
  69.0100890  56.0498023  83.9147877  69.2720319  55.8577877  85.1072060
  69.6520871  55.4047826  82.9393170  69.4200099  55.5290117  81.9642239
  70.6816206  54.4332388  83.2861982  70.2768054  53.6996564  83.9833931
  71.1700897  53.7024017  82.0382331  70.3505806  53.0419010  81.7549612
  71.3315334  54.4385576  81.2507621  72.4439751  52.8785529  82.2345574
  73.2648199  53.5544506  82.4743013  72.2726228  51.8734851  83.3576037
  71.4521982  51.1969058  83.1183491  73.1922968  51.3006745  83.4767194
  72.0500622  52.3995995  84.2859198  72.8035249  52.1661253  80.9559348
  72.9701042  52.8983636  80.1658855  73.7117979  51.5828654  81.1074248
  71.9890638  51.5011963  80.6684953  71.8414380  55.1106695  84.0019525
  72.3706601  54.5795696  84.9851605  72.2520788  56.2877106  83.5277855
  71.7987669  56.7058365  82.7279239  73.3888915  56.9789833  84.1156290
  74.2480446  56.3113233  84.1803226  73.7616315  58.1689610  83.2386342
  72.8072914  58.5653022  82.8918666  74.2704449  58.9223990  83.8399162
  74.6294684  57.8071980  82.0355400  74.2432468  56.8991083  81.5726071
  74.6068522  58.9357942  81.0275195  74.9933913  59.8441726  81.4896179
  75.2278452  58.6716238  80.1715508  73.5830068  59.1056009  80.6943429
  76.0531928  57.4874047  82.4634640  76.0449329  56.6434121  83.1531797
  76.6483829  57.2333729  81.5863563  76.4882376  58.3558753  82.9580282
  73.1058600  57.4503915  85.5331495  74.0482309  57.6512070  86.3064361
  71.8323766  57.6289439  85.8892692  71.0761454  57.4617585  85.2409924
  71.5049005  58.1322064  87.2194113  71.9207227  59.1308348  87.3533235
  69.9887797  58.2073877  87.3926610  69.5983596  58.8315635  86.5888725
  69.5972343  57.1954334  87.2890235  69.5604562  58.7807912  88.7319177
  69.8435308  58.0757818  89.5135387  70.0860029  59.7232603  88.8857184
  68.0636447  59.0220202  88.7868445  67.8469271  59.6605667  89.6432269
  67.7606265  59.5287035  87.8705741  67.2971075  57.7185728  88.9211230
  67.3058171  57.2174024  87.9532114  67.8086748  57.0971070  89.6560912
  65.8916866  57.9393611  89.3517384  65.4173565  58.5148481  88.6706177
  65.4193887  57.0498884  89.4283740  65.8833934  58.4033633  90.2488071
  72.1154052  57.2683890  88.3164225  72.5309377  57.7846545  89.3590387
  72.1826102  55.9564345  88.1054627  71.9024776  55.5741123  87.2135800
  72.5959876  55.0326026  89.1540584  72.4116256  55.4749885  90.1330398
  71.8043404  53.7259665  89.0506284  71.9322522  53.3385188  88.0398752
  72.2405263  53.0275491  89.7648098  70.3360542  53.8906219  89.3427193
  69.8632243  53.8759627  90.6457626  70.5745944  53.7411862  91.4605554
  68.5218095  54.0277516  90.9205310  68.1619641  54.0048032  91.9491643
  67.6334697  54.2016286  89.8848703  66.2937108  54.3598524  90.1530167
  66.0932022  54.3324792  91.0914445  68.0781114  54.2257665  88.5830830
  67.3741417  54.3683738  87.7632108  69.4219929  54.0683859  88.3182970
  69.7799800  54.0827627  87.2888609  74.0853301  54.7205599  89.1299313
  74.5510576  53.9447755  89.9694279  74.8429641  55.2946269  88.2015979
  74.4292502  55.8843873  87.4936976  76.2797305  55.0637128  88.1543648
  76.4947066  54.0196144  88.3818359  76.8231409  55.3817335  86.7653900
  76.6845238  56.4450291  86.5697194  77.8866895  55.1441902  86.7422027
  76.1509612  54.6292884  85.7755127  76.5088184  54.8454120  84.9113203
  76.9596748  55.9317916  89.2053937  76.8226526  57.1595412  89.1847825
  77.6875219  55.3011383  90.1261260  77.7505712  54.2933896  90.1499294
  78.3720586  56.0605949  91.1636597  77.7111548  56.8218056  91.5782242
  78.8153741  55.1300534  92.2938622  79.5800647  55.6320664  92.8865944
  77.6351506  54.7736625  93.1860970  76.8701926  54.2711659  92.5941205
  77.9695633  54.1111207  93.9844112  77.2191755  55.6830799  93.6197158
  79.3723712  53.9309050  91.7414534  79.6494647  53.3493523  92.4532230
  79.5782060  56.8213013  90.6339520  80.1306839  57.6531801  91.3618125
  80.0012831  56.5576839  89.3971943  79.5578446  55.8182799  88.8711304
  81.1186698  57.2630637  88.7882055  81.7476772  57.7136815  89.5559245
  81.9691930  56.2880288  87.9688349  82.6431004  56.8559180  87.3273905
  82.7803122  55.3938185  88.8883493  82.1070260  54.8252296  89.5298256
  83.3796804  54.7063024  88.2915423  83.4376456  56.0067431  89.5050638
  81.1148858  55.4799526  87.1520841  81.6478962  54.8686993  86.6384015
  80.6830416  58.4182351  87.8972358  81.5379357  59.1849218  87.4416520
  79.3859737  58.5618200  87.6408394  78.7257415  57.8885126  88.0025713
  78.8805386  59.6500608  86.8180846  79.5498352  59.8230610  85.9753438
  77.4956563  59.2973577  86.2773381  77.5133520  58.2702953  85.9127441
  76.7430283  59.3915532  87.0601397  77.0350108  60.1494312  85.1354128
  75.9919448  61.0268459  85.1370508  75.4370950  61.1290234  86.0696821
  75.8659137  61.6156475  83.9033045  75.1752203  62.3071498  83.6486152
  76.8344150  61.1155303  83.0735731  77.1096831  61.4033987  81.7437892
  76.4872496  62.1362035  81.2302987  78.1530097  60.7433230  81.1587871
  78.3967530  60.9419981  80.1151313  78.9196555  59.8147620  81.8688947
  79.7507316  59.2951408  81.3920239  78.6494842  59.5279187  83.1906804
  79.2764113  58.7958934  83.6997993  77.5882465  60.1876636  83.8164880
  78.8233969  60.9217171  87.6529296  78.2568904  60.9245214  88.7504839
  79.4090025  62.0011905  87.1379721  79.8426084  61.9341796  86.2282497
  79.4942605  63.2737930  87.8550103  78.8747349  63.2301371  88.7507677
  80.9344885  63.5721070  88.2712712  81.5476109  63.5184898  87.3716571
  80.9526948  64.5892538  88.6626544  81.4854602  62.6177297  89.3167387
  80.8666950  62.6898975  90.2111783  81.4337446  61.6035590  88.9206512
  82.9254558  62.9505951  89.6692645  83.5312535  62.8661766  88.7670552
  82.9637580  63.9758364  90.0373850  83.4672406  62.0109008  90.7321393
  82.8513891  62.1152552  91.6254128  83.3910474  60.9906701  90.3560769
  84.8837757  62.3097536  91.0696071  84.9545303  63.2549345  91.4185002
  85.2045122  61.6646695  91.7774875  85.4546734  62.2126970  90.2421079
  78.9501206  64.3822104  86.9651672  79.7132930  65.1042774  86.3125118
  77.6322793  64.5451579  86.9156876  76.5747423  63.8273164  87.5510908
  76.8494998  63.6898619  88.5968990  76.4962681  62.8545162  87.0657038
  75.3217031  64.6579009  87.3840420  75.2172429  65.3708422  88.2019063
  74.4378426  64.0213756  87.3424789  75.5463327  65.3708717  86.0448388
  75.0308518  66.3292624  85.9826634  75.2794718  64.7588053  85.1832939
  77.0495459  65.5938656  86.0768670  77.4163531  65.4664012  85.0583860
  77.4229480  66.9787874  86.5794516  77.7249941  67.1857894  87.7561684
  77.3983651  67.9377943  85.6598427  77.2124694  67.7282063  84.6894742
  77.6939668  69.3148413  86.0235710  78.6550584  69.3651157  86.5353079
  77.7599434  70.1915969  84.7730457  78.2965021  71.0776061  85.1124446
  78.3609688  69.6653441  84.0314753  76.4283020  70.6111259  84.1455232
  75.6635489  69.8880354  84.4290610  76.0186867  71.9903657  84.6186373
  76.7827835  72.7141241  84.3350378  75.0695790  72.2657786  84.1588079
  75.9084888  71.9852123  85.7030405  76.5116999  70.5791046  82.6299694
  76.7519032  69.5683812  82.3000604  75.5538091  70.8809890  82.2063985
  77.2893498  71.2649204  82.2937902  76.6390121  69.8366570  86.9929089
  75.4616765  69.4764258  86.9192788  77.0733360  70.6915832  87.9102382
  78.0328441  71.0063841  87.8916921  76.2095191  71.1712170  88.9812176
  75.8940275  70.3404228  89.6123636  76.9717056  72.1755450  89.8418092
  77.8267589  71.6689523  90.2894105  77.3234423  72.9874954  89.2053205
  76.1213362  72.7631738  90.9513272  74.9431074  72.4393875  91.0889694
  76.7190764  73.6392278  91.7509504  76.2012378  74.0630606  92.5074614
  77.6886977  73.8775302  91.5988086  74.9533376  71.8151311  88.4000320
  75.0656891  72.7479144  87.5930788  73.7520115  71.3777711  88.7912122
  73.3958345  70.2903571  89.6385196  73.3980324  70.6402133  90.6708452
  74.1389141  69.5015855  89.5211693  72.0222171  69.8621710  89.1734198
  71.4752050  69.3729437  89.9793562  72.0952642  69.1858399  88.3217498
  71.3579924  71.1842537  88.7674297  70.9285686  71.7578868  89.5887940
  70.5982897  71.0204718  88.0031478  72.5380406  71.9366866  88.1730198
  72.5758366  71.6889342  87.1122237  72.3905505  73.4382274  88.3361116
  71.5781681  74.0396315  87.6234449  73.1333578  74.0651458  89.2461340
  73.7224543  73.5273868  89.8657144  73.0802135  75.5103280  89.4248656
  72.1133589  75.8897951  89.0942658  73.2681600  75.8700364  90.9011470
  73.7643756  75.0408700  91.4054806  73.8926125  76.7609751  90.9673843
  71.9552588  76.1463888  91.6018860  71.1293335  76.9140506  91.1108179
  71.7538420  75.5204248  92.7544853  70.8941072  75.6695579  93.2631259
  72.4612009  74.8977365  93.1178080  74.1099158  76.2566728  88.5882118
  74.2013409  77.4833040  88.7006555  74.8811949  75.5623799  87.7554491
  74.8181700  74.5559435  87.6987655  75.8727062  76.2383679  86.9342021
  76.5478977  76.8140611  87.5672843  76.6929400  75.2198531  86.1453446
  77.1314945  74.5068817  86.8435143  76.0307707  74.6938127  85.4576577
  77.7226195  75.8570849  85.4134684  78.2237395  75.1986938  84.9266422
  75.1857129  77.2160222  85.9875795  74.0396434  77.0165737  85.5766464
  75.9010603  78.2894075  85.6429130  76.8640811  78.3914773  85.9297441
  75.2823616  79.3798715  84.8951743  74.4628936  79.8096037  85.4712834
  76.3106818  80.4742438  84.6183571  75.8190499  81.3082656  84.1175529
  76.7603965  80.8233155  85.5478762  77.4357936  80.0473701  83.7331501
  78.4941035  79.2602454  84.0737435  78.5238609  78.8946105  85.1001573
  79.3284479  79.0944177  82.9961946  80.1789508  78.5497464  82.9873896
  78.8167056  79.7866953  81.9317574  79.2985184  79.9198537  80.6358723
  80.2277953  79.4150187  80.3718939  78.5697039  80.6823156  79.7671742
  78.9171156  80.8095294  78.7418832  77.3823852  81.3069739  80.1633592
  76.8090249  81.9134856  79.4622879  76.9011263  81.1752134  81.4507745
  75.9694826  81.6787007  81.7089241  77.6249550  80.4013374  82.3605926
  74.6607427  78.8996067  83.5910655  73.6770356  79.4852448  83.1252820
  75.2153697  77.8483354  82.9833324  76.0322094  77.3910057  83.3624389
  74.6799227  77.3674999  81.7138082  74.7995176  78.1326586  80.9467826
  75.4238820  76.1085419  81.2681231  75.2858847  75.4140967  82.0968582
  74.9187632  75.7220252  80.3829339  76.9149842  76.2625671  80.9764019
  77.3938826  76.7578530  81.8210610  77.5517397  74.9049527  80.7602015
  77.0736432  74.4092177  79.9153527  78.6145472  75.0303492  80.5532797
  77.4257980  74.2971549  81.6562042  77.1274143  77.1472050  79.7653258
  76.6994193  78.1316896  79.9542960  78.1952018  77.2471057  79.5705159
  76.6407031  76.7003098  78.8984372  73.1888233  77.0886281  81.8219939
  72.4233330  77.3771202  80.8958109  72.7581460  76.5289412  82.9517685
  73.4067104  76.2850749  83.6866105  71.3543126  76.1896140  83.1299455
  70.9778904  75.6791997  82.2434452  71.1892933  75.2637694  84.3330703
  71.9569466  75.5381228  85.0566296  70.2041287  75.4409437  84.7645329
  71.3289820  73.8013704  83.9813570  72.5765469  73.2390677  83.7580829
  73.4604054  73.8710450  83.8446759  72.7112775  71.9067698  83.4318867
  73.6981403  71.4761669  83.2622262  71.5893874  71.1193347  83.3218341
  71.7199682  69.7893686  82.9971682  72.6333103  69.5219492  82.8711017
  70.3383447  71.6542482  83.5336306  69.4494167  71.0297709  83.4445486
  70.2140185  72.9874045  83.8599404  69.2266427  73.4177778  84.0271767
  70.4783275  77.4241137  83.2908203  69.2553848  77.3215087  83.1498794
  71.0695188  78.5799874  83.5881397  72.0740176  78.6062997  83.6900670
  70.3188963  79.8083044  83.8193564  69.2814029  79.5716363  84.0553539
  70.9229579  80.5827064  84.9929394  71.9986454  80.6913210  84.8543804
  70.4654740  81.5691476  85.0687179  70.7273156  79.9175641  86.3176106
  69.4989296  79.8409202  86.9365707  69.6272510  79.2018464  88.0851908
  68.7624654  79.0381147  88.7281814  70.8937675  78.8604051  88.2334972
  71.2872730  78.3604538  89.0179091  71.6029007  79.2961177  87.1413751
  72.6746143  79.1080087  87.0769843  70.2781610  80.7099416  82.5944136
  69.2302812  81.2863753  82.2921022  71.3910386  80.8409023  81.8800518
  72.2438993  80.4020336  82.1964725  71.4399932  81.6563932  80.6708408
  70.9550843  82.6083592  80.8869962  72.8938926  81.9256469  80.2836611
  73.3902983  80.9824656  80.0554280  72.9231080  82.5724945  79.4068288
  73.4065661  82.4142657  81.1122242  70.7065318  81.0189937  79.5034980
  70.7594879  81.5584838  78.3937434  70.0336299  79.8910036  79.7184313
  70.1253030  79.4469609  80.6209397  69.2338655  79.2235637  78.6974049
  68.7672564  78.3348392  79.1223093  68.1336224  80.1497758  78.1710016
  68.6152457  80.8927744  77.5353198  67.4598101  79.5396534  77.5694804
  67.3432027  80.8522176  79.2602955  68.0130792  81.5299399  79.7895013
  66.5438266  81.4254712  78.7907422  66.7454548  79.8626338  80.2431380
  66.1636883  79.1288397  79.6852913  67.5588134  79.3593366  80.7658608
  65.8498316  80.5566606  81.2514355  65.6830431  79.8766508  82.0868210
  66.3628001  81.4500107  81.6076491  64.5416339  80.9405651  80.6561666
  64.0659535  80.1128616  80.3264169  63.9748974  81.3984454  81.3556345
  64.6959368  81.5710141  79.8823295  70.0786776  78.7098019  77.5386753
  69.5721235  78.5430173  76.4257086  71.3649397  78.4498980  77.7711528
  71.7999269  78.7068809  78.6457071  72.1936365  77.8406900  76.7409546
  71.9142000  78.2271888  75.7608357  73.6665344  78.1644736  76.9920066
  73.8921175  77.6728278  77.9383130  74.2680386  77.7193417  76.1994472
  73.9913959  79.6549701  77.1021070  73.5072554  80.0573609  77.9919331
  75.4895760  79.8694915  77.2013579  75.9743951  79.4677440  76.3116117
  75.7000566  80.9361628  77.2788887  75.8724908  79.3589538  78.0850026
  73.4186095  80.4208553  75.9226848  72.3357222  80.2985001  75.9006938
  73.6622686  81.4785502  76.0227498  73.8460860  80.0360768  74.9967754
  72.0052872  76.3321662  76.6586473  72.3738642  75.7316070  75.6444182
  71.4382642  75.7113443  77.6922015  71.2866296  76.2305355  78.5451650
  71.0553912  74.3041510  77.6618332  71.1007954  73.9401107  76.6354257
  71.9880656  73.4515640  78.5247363  71.8482473  73.8454711  79.5314076
  71.6221535  72.4256870  78.4824895  73.4740361  73.4769159  78.1701195
  73.8405420  74.5013836  78.2352360  74.2533110  72.5998595  79.1300526
  73.8876582  71.5750736  79.0651631  75.3112110  72.6248478  78.8686641
  74.1221916  72.9681192  80.1475461  73.6965107  73.0183697  76.7439142
  73.1621891  73.6794867  76.0616209  74.7618928  73.0451145  76.5151200
  73.3257904  72.0000264  76.6271130  69.6231365  74.1926220  78.1581614
  69.3452312  74.4884535  79.3238952  68.7234924  73.7677881  77.2859952
  68.9902937  73.5079077  76.3471776  67.3143510  73.7016427  77.6464592
  66.9868894  74.6635560  78.0409092  66.4700784  73.3640522  76.4222964
  66.5783018  74.1759128  75.7030820  66.8636977  72.4432120  75.9919277
  65.0042793  73.1784086  76.7569713  64.5695065  73.6610344  77.8236775
  64.2849212  72.5529135  75.9508437  67.1173200  72.6546595  78.7356424
  67.4578366  71.4845822  78.5209880  66.5803024  73.0139292  79.9051749
  66.4917797  74.3056794  80.4517882  65.8621743  74.9023790  79.7917527
  67.4970346  74.7265495  80.4725238  65.9019777  74.1533808  81.8355652
  64.8130867  74.1857239  81.7985616  66.2658632  74.9371049  82.4999938
  66.4062309  72.7770740  82.2850740  65.7747669  72.2652247  83.0112713
  67.4231770  72.8436547  82.6717100  66.4006065  72.0165603  80.9683788
  67.2852670  71.3798356  80.9609099  65.1574017  71.1566160  80.8182368
  65.0585791  70.1256479  81.4978255  64.2104191  71.5364987  79.9611503
  64.3215120  72.3645473  79.3936177  62.9574384  70.7959176  79.8659615
  62.6126771  70.5140854  80.8608532  61.8859271  71.6665662  79.2054643
  61.8459627  72.6242272  79.7244899  62.1624054  71.8297009  78.1638084
  60.6150279  71.0447118  79.2643563  59.9624973  71.6098567  78.8443386
  63.1407988  69.4949866  79.0919180  62.9181224  68.4044785  79.6283137
  63.5435073  69.5909319  77.8309999  63.7233227  70.4879135  77.4029930
  63.6982320  68.3953351  77.0174506  62.8035537  67.7771119  77.0912744
  63.9176308  68.7633217  75.5513080  64.9455049  69.1016188  75.4204259
  63.6627831  67.5612275  74.6577197  62.6348973  67.2226257  74.7877168
  63.8236482  67.8411447  73.6166299  64.3467147  66.7562969  74.9268387
  63.0242128  69.8213543  75.1829735  63.1633695  70.0513921  74.2613888
  64.8750433  67.5655508  77.5313633  65.9307084  68.1188892  77.8525250
  64.7313219  66.2389151  77.6209573  63.6441853  65.4070455  77.2958052
  63.2765374  65.7115742  76.3159085  62.8670236  65.5716899  78.0421369
  64.1617430  63.9858750  77.3060701  64.5562935  63.7099642  76.3281630
  63.3731219  63.2886504  77.5890119  65.2681948  64.0203329  78.3667651
  66.0596151  63.2831821  78.2312600  64.8518888  63.9255080  79.3696595
  65.8262294  65.4201851  78.1671127  66.0619254  65.8168645  79.1546303
  67.0832163  65.4121325  77.3117198  68.1242739  64.9431178  77.7879869
  67.0251669  65.9067722  76.0738434  66.1964278  66.3861730  75.7521826
  68.1179495  65.7059664  75.1296183  68.3895992  64.6558889  75.0217168
  67.7169855  66.2557326  73.7463023  66.7696796  65.8066246  73.4479519
  67.5675226  67.7659911  73.7953542  68.5146226  68.2158661  74.0932050
  67.2842214  68.1357801  72.8099116  66.7962792  68.0320061  74.5182104
  68.7393864  65.8499159  72.6988205  68.7943501  64.7625786  72.6461066
  68.4420849  66.2456735  71.7276937  69.7164469  66.2498644  72.9699195
  69.4209141  66.3404754  75.5945169  70.4879917  65.9976280  75.0760586
  69.3700831  67.2570510  76.5627892  68.5096411  67.4699102  77.0469688
  70.5651777  68.0208451  76.9073780  70.9832496  68.4778220  76.0104459
  70.2229048  69.1261710  77.9040389  71.0322365  69.8551371  77.9451479
  69.2996831  69.6252707  77.6096560  70.0174032  68.6361860  79.3010130
  68.7877118  68.2422018  79.7791987  68.9086012  67.8625239  81.0390956
  68.0409553  67.5163510  81.6007484  70.1739756  67.9923229  81.3928510
  70.5622083  67.7747417  82.2995118  70.8897539  68.4748082  80.3245859
  71.9611424  68.6505951  80.4211617  71.6731279  67.1506216  77.4843766
  72.8379016  67.5618305  77.4606390  71.3481878  65.9655651  78.0045018
  70.3855523  65.6731556  78.0935456  72.3894060  65.0920100  78.5389241
  72.9937383  65.6142639  79.2806332  71.7700248  63.8350289  79.1752703
  71.1105628  63.3558653  78.4516597  72.8629390  62.8627715  79.5853289
  73.5225778  63.3411002  80.3093310  72.4126676  61.9774374  80.0342608
  73.4388490  62.5711955  78.7070292  70.9046032  64.2103198  80.3806372
  70.1776498  64.9450274  80.0344519  70.3845433  63.3049621  80.6936302
  71.6793210  64.7800937  81.5551009  72.1993094  65.6857926  81.2429770
  70.9895443  65.0184798  82.3647177  72.4062050  64.0457275  81.9021539
  73.3850974  64.7291410  77.4476690  74.5988873  64.6893424  77.6808023
  72.8907655  64.4476266  76.2407678  71.8967330  64.3640900  76.0825893
  73.7925780  64.1867059  75.1251349  74.4866401  63.3875269  75.3853077
  72.9932710  63.7581735  73.8942156  72.0365209  64.2688550  74.0034530
  73.5027125  64.1285030  73.0045947  72.7550382  62.2547548  73.7557693
  73.7167283  61.7573712  73.6298222  72.0586484  61.7028852  74.9810310
  71.0966119  62.1994943  75.1073793  71.9004917  60.6314588  74.8580158
  72.6766102  61.8796987  75.8613495  71.9459497  61.9629308  72.5108820
  72.4863545  62.3192222  71.6338880  71.7842502  60.8883678  72.4256244
  70.9835755  62.4706838  72.5750830  74.6441230  65.4122481  74.8186197
  75.8623090  65.3059431  74.6324398  74.0205483  66.5927515  74.7699655
  73.0215241  66.6734319  74.8946281  74.7786759  67.8002481  74.4584957
  75.2749135  67.6886150  73.4944493  73.8467133  69.0072713  74.3905112
  73.2189999  68.9882434  75.2814169  74.4677426  69.9029603  74.4033114
  72.9685671  69.0189693  73.1538951  73.5875468  68.7691853  72.2921684
  72.1946166  68.2612966  73.2765114  72.3217656  70.3694916  72.9354407
  71.5635980  70.2838704  72.1570129  71.8537158  70.6987886  73.8631220
  73.3003072  71.3683066  72.5261363  74.1523331  71.0266547  72.1049176
  73.1477062  72.6765559  72.6725762  72.0534979  73.1896746  73.2095710
  71.3114497  72.5779527  73.5182143  71.9649352  74.1909029  73.3085571
  74.1160780  73.4907187  72.2661332  74.9536738  73.1070749  71.8521878
  74.0100552  74.4894338  72.3730262  75.8821651  68.0212680  75.4810746
  76.9987200  68.4130392  75.1261783  75.5897352  67.7736850  76.7578250
  74.6408080  67.5982388  77.0559105  76.6374680  67.8039776  77.7701907
  77.0901435  68.7949197  77.8050869  76.0560366  67.4834390  79.1481173
  75.5320787  66.5316852  79.0601853  76.8975559  67.3725022  79.8319582
  75.1046204  68.5364130  79.6842581  75.6628310  69.4656484  79.7983778
  74.3099601  68.6781536  78.9517803  74.4980633  68.1440985  81.0184705
  74.6728714  66.9785592  81.4303376  73.8462530  68.9997836  81.6528579
  77.7361218  66.8159359  77.4043376  78.9112133  67.1785133  77.2872966
  77.3570282  65.5506363  77.2143983  76.3830796  65.2950802  77.2932304
  78.3294885  64.4959690  76.9555088  79.0615973  64.4352163  77.7607571
  77.6041800  63.1467710  76.8197576  76.7466269  63.2686449  76.1580554
  78.5374179  62.1033425  76.2478756  79.3950480  61.9805712  76.9093122
  78.0099625  61.1537388  76.1576298  78.8808874  62.4225355  75.2638819
  77.0760525  62.6905437  78.1791288  77.8842306  62.1591592  78.6817017
  76.8215420  63.5851704  78.7474306  75.8645365  61.7920157  78.0854944
  76.1184200  60.8968980  77.5176851  75.5444024  61.5072509  79.0877530
  75.0557317  62.3229089  77.5834117  79.1360380  64.8197012  75.7100686
  80.3020435  64.4272412  75.5903682  78.5272812  65.5276606  74.7592328
  77.5499523  65.7715339  74.8330795  79.2603193  65.9687166  73.5852571
  79.6652145  65.0884809  73.0859134  78.5625883  66.4753134  72.9184510
  80.3985518  66.9140194  73.9192489  81.4860204  66.8183835  73.3446953
  80.1670232  67.8381045  74.8487274  79.2745790  67.8427818  75.3216130
  81.1351172  68.8698155  75.1915224  81.7969762  69.0640122  74.3475263
  80.3964626  70.1633674  75.5413738  79.6469927  69.8517955  76.2689156
  81.1041939  70.8419900  76.0174912  79.7112308  70.8767520  74.3794643
  79.3595047  70.1355311  73.6618423  78.5341433  71.6878125  74.8859511
  78.8851688  72.4296055  75.6033235  78.0527244  72.1925342  74.0483399
  77.8173097  71.0250706  75.3707430  80.6999293  71.7547318  73.6538282
  81.5144591  71.1425642  73.2666699  80.2001958  72.2589309  72.8266940
  81.1006580  72.4980968  74.3429754  82.0394245  68.4921529  76.3575230
  82.8536523  69.3184058  76.7817318  81.9244524  67.2775902  76.8842647
  81.2675707  66.6231117  76.4839352  82.6504425  66.8811856  78.0886412
  82.2923705  65.9041745  78.4131918  84.1561254  66.7944077  77.8498663
  84.4805781  67.7657026  77.4764818  84.6256354  66.6012037  78.8144038
  84.5585109  65.7199932  76.8710929  83.8548186  64.8911455  76.9480966
  84.5254515  66.1314661  75.8622821  85.9605075  65.2219089  77.1680503
  86.6707538  66.0288013  76.9875680  86.0160779  64.9165995  78.2129415
  86.3216667  64.0857200  76.3297522  85.7134776  63.8799704  75.5500904
  87.3881151  63.3200555  76.5198723  88.2239203  63.5344758  77.5225595
  88.0541812  64.2965388  78.1633002  89.0279391  62.9351346  77.6427409
  87.6170463  62.3097946  75.6872184  86.9808276  62.1356918  74.9223563
  88.4261861  61.7207975  75.8231372  82.3485800  67.8169904  79.2532384
  83.2252712  68.1450822  80.0537447  81.0977889  68.2574971  79.3455723
  80.4405292  68.1234960  78.5904877  80.6578258  68.9926443  80.5198516
  81.4834250  69.5844691  80.9151094  79.5054058  69.9370687  80.1627022
  78.7732385  69.2882929  79.6819525  79.0924280  70.3216657  81.0952442
  79.8399645  71.1077679  79.2311499  80.1672214  70.7134546  78.2691100
  78.6231053  71.9880125  79.0283817  78.2955210  72.3830941  79.9899938
  78.8781527  72.8141162  78.3646013  77.8191797  71.4008361  78.5845034
  80.9908747  71.9431001  79.7631714  81.8793424  71.3190340  79.8594313
  81.1955698  72.7618094  79.0733045  80.7251018  72.3489771  80.7392490
  80.2358573  68.0253632  81.6081893  80.3631970  68.3304452  82.7981706
  79.7417381  66.8590599  81.2051049  79.5697213  66.7439378  80.2165421
  79.4141001  65.7555355  82.0955397  79.6334068  66.0462925  83.1228976
  77.9364550  65.3730868  82.0007307  77.6501301  65.3416873  80.9494784
  77.8016317  64.3860638  82.4431202  77.1243849  66.3102983  82.6827232
  76.2035196  66.0491817  82.6090685  80.3034769  64.5962095  81.6806480
  80.3910798  64.2775173  80.4937386  80.9561972  63.9634802  82.6491364
  80.8228850  64.2016844  83.6215489  81.9281635  62.9358953  82.3188866
  81.6558458  62.4614982  81.3760771  83.3273256  63.5415382  82.1757402
  84.0086023  62.8346854  81.7021153  83.2747207  64.4511695  81.5774897
  83.9474899  63.9238094  83.4821165  84.9988286  63.2297240  84.0397377
  85.3360029  63.7932335  85.1853832  86.1593119  63.3944705  85.7780461
  84.5329998  64.8189239  85.3983860  84.5524897  65.4333244  86.1997799
  83.6550318  64.9227153  84.3473496  82.9066343  65.7151329  84.3385974
  81.9433732  61.8436370  83.3697288  81.4261368  62.0036781  84.4795731
  82.5570732  60.7227129  82.9923821  82.8683188  60.6456515  82.0346307
  82.7566707  59.5845018  83.8761481  82.0745139  59.6099908  84.7259200
  82.5237542  58.2828261  83.0996733  82.9145904  58.3879708  82.0876003
  81.4553353  58.0714909  83.0558723  83.2356227  56.7679580  83.7678728
  84.1690875  59.6636547  84.4463926  85.1425653  59.7337989  83.6930429
  84.2696628  59.6486982  85.7789712  83.4484674  59.5786301  86.3627759
  85.5702282  59.7975098  86.4278980  86.0913320  60.6638870  86.0205399
  85.3920007  59.9975262  87.9295585  86.3627029  60.2278707  88.3686233
  84.7125696  60.8342360  88.0920086  84.8629070  58.8356904  88.5389873
  84.7605413  58.9870531  89.4814364  86.4830415  58.6081851  86.1706286
  87.7071198  58.7718779  86.1157022  85.9153121  57.4156595  86.0084653
  84.9160716  57.2925176  86.0888013  86.7404092  56.2366944  85.7752696
  87.4907478  56.1400857  86.5599720  85.8609628  54.9857535  85.7834386
  85.3908585  54.8649776  86.7594071  85.0901769  55.0676142  85.0170915
  86.6057687  53.7185267  85.5075207  87.0050110  52.8551582  86.5047219
  87.6392417  51.8290980  85.9685755  88.0354166  51.0317225  86.5973335
  87.6664708  51.9940823  84.6578995  88.0865523  51.3661297  83.9875958
  87.0259238  53.1684615  84.3438391  86.9423953  53.4823260  83.3033520
  87.5073710  56.3580397  84.4649112  88.6924887  56.0147880  84.3972038
  86.8448854  56.8406652  83.4124496  85.8615045  57.0619329  83.4765018
  87.5101118  57.0109122  82.1241714  88.1859148  56.1703505  81.9665441
  86.4709863  57.0187221  81.0038977  86.9766465  57.0503703  80.0388039
  85.8311826  57.8951256  81.1071842  85.4167713  55.5469504  80.9497872
  88.3427521  58.2911513  82.0705512  89.4295169  58.2989824  81.4828038
  87.8604638  59.3731796  82.6779372  86.9689738  59.3159363  83.1491783
  88.5468125  60.6657752  82.6459526  89.5398525  60.5737270  82.2060686
  87.7494057  61.7043733  81.8442012  86.8928901  62.0301212  82.4344288
  88.6247869  62.9020630  81.5192992  89.4813307  62.5771527  80.9286496
  88.0475028  63.6310958  80.9506563  88.9747199  63.3587943  82.4450664
  87.2034172  61.0950315  80.5746202  86.5455466  60.2625625  80.8242270
  86.6418499  61.8481230  80.0218136  88.0282697  60.7340331  79.9602918
  88.7715236  61.1440075  84.0759584  87.9565995  61.9079231  84.6123956
  89.8566497  60.7223253  84.7270301  90.7974402  59.7666811  84.3404987
  91.1973451  60.0673929  83.3721244  90.2795182  58.8129922  84.2388460
  91.8538612  59.7363041  85.4205159  92.6381537  60.4650175  85.2156718
  92.2943520  58.7426850  85.5029195  91.0731226  60.0959742  86.6904720
  91.6435624  60.5640197  87.4927381  90.5669347  59.2101907  87.0742181
  90.0522277  61.0794044  86.1404478  89.1056925  60.8740128  86.6404316
  90.4665706  62.5219004  86.4108169  90.2385680  62.9911435  87.5319287
  91.0513616  63.2513727  85.4552716  91.1281004  62.8946361  84.5134916
  91.6324057  64.5654337  85.7506448  91.3654077  64.8749886  86.7610839
  93.1558008  64.4940678  85.6481591  93.3956139  64.3483648  84.5948977
  93.5406811  65.4591225  85.9777597  93.7948718  63.3854798  86.4715713
  93.3080615  62.4475149  86.2044787  94.8502034  63.3357344  86.2034248
  93.6633718  63.6155640  87.9646028  94.1235042  64.5707768  88.2174778
  92.6057460  63.6415551  88.2269985  94.3511015  62.5001965  88.7401363
  93.8347138  61.5669923  88.5152488  95.3825673  62.4367426  88.3935084
  94.3355048  62.7335768  90.2091769  93.3798113  62.7919764  90.5306409
  94.8017886  61.9691615  90.6764548  94.8143247  63.5980425  90.4178147
  91.1035468  65.6455979  84.8015291  91.8719993  66.3440605  84.1429618
  89.7827404  65.7879002  84.7218835  89.1643814  65.1355861  85.1825545
  89.1908146  66.8535320  83.9192579  89.8178140  67.0637683  83.0527871
  87.8093578  66.4246147  83.4294394  87.9687176  65.4279081  83.0180035
  87.1708700  66.3557413  84.3101720  87.1356496  67.3060462  82.3805539
  87.0523712  68.3189406  82.7745217  87.9396121  67.3285287  81.0957318
  88.0229323  66.3159785  80.7008920  87.4390783  67.9631001  80.3643729
  88.9357751  67.7226972  81.2967069  85.7379427  66.7870992  82.1138959
  85.1586791  66.8110367  83.0369235  85.2536817  67.4141275  81.3652784
  85.7941566  65.7621343  81.7473090  89.1035595  68.1519517  84.7218398
  88.6171471  68.1563867  85.8570143  89.5715112  69.2531401  84.1318157
  90.0384686  69.1958575  83.2380770  89.4576107  70.5628755  84.7717109
  89.8975339  70.5240094  85.7682329  90.1886755  71.6292269  83.9563029
  89.9640691  71.4310826  82.9082619  89.7621787  72.5903809  84.2433283
  91.6976609  71.6648740  84.1535397  92.0598672  72.6377160  83.8211454
  91.8852429  71.5534119  85.2214762  92.4227329  70.5711280  83.3970470
  91.7654917  69.8281789  82.6397051  93.6569393  70.4640183  83.5541712
  87.9929475  70.9672394  84.9364215  87.2400178  70.9455819  83.9536129
  87.5468651  71.3383806  86.1384172  88.1992412  71.4366667  87.3976675
  89.1347847  71.9743215  87.2434409  88.4147161  70.4237385  87.7377353
  87.2558027  72.1675603  88.3253330  87.4044914  73.2453231  88.2588639
  87.3991212  71.8444430  89.3564277  85.8689310  71.7608009  87.8118987
  85.0991535  72.5077986  88.0056407  85.5435163  70.7954795  88.1996608
  86.1258383  71.6593260  86.3172430  85.5376527  70.8202676  85.9456022
  85.7284953  72.9251228  85.5732470  86.5411213  73.8223533  85.3438859
  84.4577416  72.9868469  85.1979751  83.8556419  72.1852041  85.3202217
  83.9034467  74.1802889  84.5516103  84.6594460  74.6661815  83.9347857
  82.7012226  73.8161689  83.6884516  82.2757870  74.7245516  83.2619006
  83.1310022  72.8880823  82.5721002  83.5561460  71.9792122  82.9979036
  82.2669517  72.6318092  81.9590409  83.8797621  73.3841143  81.9545162
  81.6023519  73.1568718  84.5244417  81.2913604  72.2524229  84.0016058
  82.0394130  72.8879400  85.4860823  80.4016455  74.0469560  84.7484442
  79.9637397  74.3159450  83.7872037  79.6622016  73.5163201  85.3482338
  80.7117931  74.9514637  85.2716786  83.5219081  75.1965875  85.6271150
  82.8519485  74.8246205  86.6022118  83.9215592  76.4657072  85.5075728
  84.5380474  77.1649068  84.4305663  84.0935307  76.7999568  83.5046524
  85.6000255  76.9197368  84.4444714  84.2836233  78.6379644  84.6555193
  83.3400786  78.9421539  84.2024287  85.0944065  79.2384979  84.2430977
  84.2356319  78.7586584  86.1842455  83.6113803  79.5836631  86.5274309
  85.2236572  78.8383059  86.6376349  83.5955687  77.4332181  86.5649619
  84.0650561  77.1030809  87.4916168  82.0922965  77.5497018  86.7721972
  81.3101907  77.5070864  85.8206220  81.6910451  77.6999185  88.0377110
  82.3542870  77.7235497  88.7990591  80.2685484  77.7825687  88.3560976
  79.7432204  76.9264050  87.9328795  80.0634195  77.7815119  89.8709831
  80.6196756  78.6312870  90.2666607  78.9981897  77.9316473  90.0466096
  80.5167902  76.5115133  90.5681257  79.8935775  76.3756338  91.4520055
  80.3573709  75.6808544  89.8806009  81.9751540  76.5533190  90.9800728
  82.6484738  77.5689961  90.7041263  82.4502554  75.5682737  91.5829262
  79.6291765  79.0243155  87.7511038  78.5122878  78.9628285  87.2254139
  80.3195573  80.1627693  87.8192094  81.2650359  80.1375138  88.1735139
  79.7640274  81.4479379  87.4289925  78.9113358  81.2947092  86.7675266
  79.2934344  82.2307911  88.6625082  78.7706920  81.5513437  89.3357028
  80.1508121  82.6637619  89.1778137  78.3542066  83.3554912  88.3767988
  78.6668044  84.6768942  88.2911265  79.7128939  84.9447930  88.4395411
  77.5424987  85.4130602  88.0243489  77.5089430  86.4163035  87.9126508
  76.4702945  84.5663149  87.9316054  75.1334725  84.8401514  87.6734457
  74.8351929  85.8758845  87.5110114  74.2712917  83.7839121  87.6395532
  73.2141100  83.9600085  87.4409155  74.7116476  82.4745741  87.8542571
  74.0133014  81.6382161  87.8239698  76.0383810  82.2009981  88.1101472
  76.3309305  81.1632500  88.2701298  76.9448716  83.2610079  88.1506292
  80.8328291  82.2339365  86.6817245  82.0134013  82.1696749  87.0522156
  80.4669684  82.9776604  85.6351995  79.1856750  83.2351126  85.0454948
  78.4920364  83.4782611  85.8503827  78.8587454  82.3218679  84.5483025
  79.3773939  84.3816636  84.0777119  79.2481047  85.3396941  84.5812603
  78.6739179  84.3099264  83.2482081  80.8195159  84.1953823  83.5901377
  81.2833165  85.1375675  83.2981191  80.9189001  83.4750523  82.7781357
  81.4878995  83.6575400  84.8453265  82.2321426  82.9276401  84.5268194
  82.1624757  84.7428683  85.6618457  81.5404368  85.3433870  86.5540620
  83.4327573  85.0340727  85.3941470  84.4731418  84.2899946  84.7011081
  84.4166271  84.5243716  83.6381059  84.2933389  83.2249929  84.8478780
  85.7706846  84.7473910  85.3283943  86.6027412  84.6167649  84.6364999
  85.9722942  84.1956778  86.2465814  85.5168621  86.2304135  85.6253983
  85.6483806  86.8493488  84.7378618  86.1168271  86.6337493  86.4411567
  84.0495281  86.2039645  86.0243826  84.0115350  86.0903659  87.1077801
  83.3039482  87.4643803  85.6217852  82.8866854  87.6157107  84.4727092
  83.1367004  88.3767287  86.5800945  83.5651864  88.2801755  87.4895871
  82.2585925  89.5166475  86.3474112  81.2738518  89.1672063  86.0371278
  82.1038372  90.3423939  87.6257784  81.5886460  91.2372943  87.2767362
  81.4484948  89.7838825  88.2941282  83.3728797  90.7456094  88.3766169
  84.0328063  89.8798498  88.4319174  84.0916919  91.8858375  87.6761442
  83.4325111  92.7521657  87.6208728  84.9895837  92.1482401  88.2356403
  84.3695048  91.5764525  86.6685722  83.0236016  91.1274950  89.8038380
  82.5621586  90.2769236  90.3055332  83.9305459  91.4143440  90.3360700
  82.3269693  91.9657923  89.7960805  82.7551479  90.4014295  85.2132621
  81.9848169  91.2215024  84.7009491  84.0171322  90.2552904  84.8027075
  84.6598654  89.6357503  85.2751092  84.5155928  91.0461941  83.6841217
  84.3414412  92.1013929  83.8946591  86.0171083  90.8237811  83.5139524
  86.2066484  89.7732513  83.2935854  86.3852914  91.4388942  82.6928693
  86.5324322  91.1002511  84.4337920  83.7817109  90.7110170  82.3929584
  83.6286190  91.5771005  81.5245810  83.3204577  89.4690289  82.2452965
  83.4264759  88.8039496  82.9979777  82.7093926  89.0155109  81.0048526
  82.9943744  89.6754053  80.1854480  83.1802995  87.5942709  80.6756875
  84.2625854  87.6119477  80.5474535  82.9247231  86.9450194  81.5130962
  82.5725291  87.1013072  79.4931763  82.8889750  86.2121503  79.3175007
  81.1888449  89.0449591  81.0488936  80.5544847  88.8449631  80.0085120
  80.5934988  89.2711756  82.2192166  81.1477976  89.3218290  83.0620016
  79.1435772  89.3948865  82.3359727  78.7107305  89.5899150  81.3547965
  78.5343428  88.1036084  82.8919961  77.4490756  88.1885507  82.9474876
  78.8000940  87.2555113  82.2609591  79.0885032  87.6823353  84.5550644
  78.3723058  86.5667365  84.6618300  78.6978888  90.5564065  83.2070451
  77.5634164  91.0187670  83.0443547  79.5311368  91.0451629  84.1226105
  80.4158300  90.5865353  84.2871649  79.2137683  92.2235037  84.9010706
  80.1422119  92.5746417  85.3513970  78.8379736  92.9776717  84.2096169
  78.1929792  92.0033021  85.9893746  77.7496861  92.9745986  86.6085437
  77.8094300  90.7587069  86.2445977  78.2109760  90.0140251  85.6929554
  76.8149388  90.4136203  87.2501361  76.4725008  91.2984945  87.7866369
  75.5945381  89.7093422  86.6344911  75.9296200  88.8211567  86.0988178
  74.6141274  89.3054966  87.7187385  74.2782223  90.1932671  88.2545857
  73.7559966  88.8082957  87.2665183  75.1024994  88.6242527  88.4155177
  74.9247203  90.6110641  85.6129400  75.6331330  90.8520371  84.8203585
  74.0625062  90.0991314  85.1856093  74.5969811  91.5302891  86.0984429
  77.4867278  89.5148066  88.2804426  78.0256895  88.4643366  87.9217616
  77.4909236  89.8674499  89.5619582  77.2635147  91.1432491  90.1764331
  76.2824433  91.4946047  89.8568266  78.0301180  91.8275205  89.8128522
  77.3447250  90.9280451  91.6708016  76.3711823  90.6519300  92.0758623
  77.7047025  91.8264942  92.1721067  78.3540847  89.7824283  91.8093547
  78.1784239  89.1841999  92.7034268  79.3945732  90.1065283  91.7883147
  78.0413237  88.9612823  90.5683552  78.9851956  88.5568320  90.2028088
  77.0768402  87.8225864  90.8440382  75.8972872  87.8979316  90.4724916
  77.5363221  86.7486992  91.4889412  78.8281969  86.4801756  92.0294579
  78.9014973  86.9561022  93.0073235  79.5789624  86.9039819  91.3624958
  78.9133834  84.9723389  92.1095443  79.6187685  84.6644293  92.8813749
  79.2168179  84.5502761  91.1514776  77.4811582  84.5556722  92.4618864
  77.2288696  84.6241515  93.5200736  77.2663221  83.5494573  92.1020579
  76.6735808  85.5727974  91.6711564  76.4981815  85.1467114  90.6833385
  75.3397859  85.8777815  92.3349944  75.2842445  86.2291126  93.5166363
  74.2575779  85.7375204  91.5698783  74.3797331  85.6192083  90.5742982
  72.8953144  85.8244913  92.0959890  72.1838108  85.8524402  91.2707129
  72.5772122  84.6151680  92.9741900  73.2977493  84.5497429  93.7894477
  71.5711262  84.6993198  93.3850543  72.6346506  83.3061585  92.2447711
  71.6646308  82.9714833  91.3181838  70.8529193  83.6714112  91.1198778
  71.7159989  81.7688855  90.6486706  70.9469343  81.5168642  89.9185161
  72.7415398  80.8836205  90.9029178  72.7835344  79.9311662  90.3745550
  73.7127964  81.2028120  91.8244330  74.5253046  80.5051477  92.0273987
  73.6563949  82.4073959  92.4909933  74.4231514  82.6617725  93.2227561
  72.6669010  87.1205116  92.8696999  71.9874582  87.1419259  93.8972966
  73.2365405  88.2150287  92.3741272  73.8264172  88.1586461  91.5562239
  73.0590272  89.5124992  93.0085469  72.1064942  89.5253789  93.5382771
  74.1793329  89.8110561  94.0088948  75.1228169  89.6170257  93.4987091
  74.1120091  90.8703859  94.2566606  74.1152784  88.9910650  95.2794225
  73.2594514  89.3204036  95.8686568  73.9926660  87.9401075  95.0175895
  75.3648543  89.1374230  96.1185913  76.2436848  89.9408976  95.8071279
  75.4538767  88.3592949  97.1902147  76.2676116  88.4163600  97.7857653
  74.7074715  87.7137117  97.4051634  73.0241197  90.5908259  91.9392410
  73.7765873  90.5312049  90.9646596  72.1532398  91.5729442  92.1312868
  71.5119133  91.5657015  92.9115094  72.0758084  92.6737772  91.1861751
  71.9341019  92.2843005  90.1780450  70.9018323  93.5916945  91.5245490
  70.9848274  93.8536259  92.5793490  71.0047671  94.4915267  90.9180785
  69.5457699  92.9595746  91.2655482  69.4671430  92.7403259  90.2007249
  69.4862981  92.0305935  91.8326102  68.4098588  93.8769746  91.6778734
  68.4977378  94.0834337  92.7445275  68.4942467  94.8093950  91.1196886
  67.0621089  93.2391872  91.3958123  66.9831883  93.0710430  90.3217547
  67.0225467  92.2825143  91.9166873  65.9330270  94.0965573  91.8475552
  65.9692534  94.9829206  91.3647019  65.0577327  93.6365595  91.6417351
  66.0057311  94.2521323  92.8428490  73.3851920  93.4570775  91.2065054
  73.9972902  93.6152343  92.2692228  73.8458183  93.9569925  90.0654000
  73.3114924  93.9305084  88.7456715  72.2596799  94.2095034  88.8085421
  73.3943168  92.9088045  88.3750501  74.1239730  94.9087238  87.9265898
  73.7011508  95.9114604  87.9885564  74.1678982  94.5973504  86.8829334
  75.5114549  94.8451785  88.5754311  76.0795710  95.7692379  88.4683926
  76.1087500  94.0081165  88.2139546  75.1460648  94.6294047  90.0351896
  75.8902659  93.9541216  90.4573929  75.1321071  95.9250304  90.8271089
  74.1172880  96.6199354  90.9148765  76.2870053  96.2423481  91.4136835
  77.0663729  95.5999768  91.4203611  76.4360477  97.5175268  92.1056833
  75.5560805  97.7150361  92.7178492  77.6642676  97.4802455  93.0138562
  78.3929438  96.9149031  92.4328931  78.0098108  98.5076875  93.1281495
  77.5056093  96.8410409  94.3907999  76.8729197  97.4843649  95.0023054
  76.8772838  95.4653056  94.2879436  77.5096812  94.8212343  93.6769244
  76.7772468  95.0355499  95.2846398  75.8924928  95.5485246  93.8282029
  78.8632426  96.7596459  95.0649681  79.2761990  97.7625132  95.1737042
  78.7541143  96.3035567  96.0489269  79.5356557  96.1543392  94.4570510
  76.5544608  98.6668019  91.1146662  75.9379106  99.7221423  91.2980009
  77.3407899  98.4777293  90.0593032  77.8064658  97.5921539  89.9214576
  77.5864793  99.5421176  89.1003791  77.8946879 100.4504923  89.6180297
  78.6920810  99.1346477  88.1300847  78.3245934  98.3336335  87.4886571
  79.1059939 100.3127940  87.2775606  79.4740543 101.1140920  87.9183044
  79.8950183 100.0057832  86.5910593  78.2477212 100.6690403  86.7078615
  79.8271159  98.6641356  88.8660903  80.5214395  98.4083109  88.2544787
  76.3119900  99.8725117  88.3310660  75.4902130  99.0011242  88.0414190
  76.1528129 101.1512408  88.0001786  76.8460358 101.8429396  88.2473509
  74.9570026 101.5928523  87.3093849  74.0728949 101.1816173  87.7965589
  74.8647434 103.1151510  87.3364191  75.1870541 103.4656649  88.3169063
  75.5285221 103.5173637  86.5710938  73.5408281 103.5536196  87.0904548
  73.5120320 104.5129173  87.1132285  74.9648001 101.0906271  85.8661832
  76.0242859 100.8157274  85.3007092  73.7862009 100.9577573  85.2466354
  72.4516423 101.1295645  85.7192553  72.1916053 102.1855541  85.6459957
  72.4108724 100.8174227  86.7628090  71.6005970 100.2586284  84.8235108
  70.5756808 100.6275950  84.7846573  71.6015446  99.2262578  85.1732414
  72.2895804 100.3747374  83.4586645  72.0291398 101.2663148  82.8882616
  72.1104608  99.4889565  82.8492319  73.7521900 100.4337736  83.8708995
  74.1182414  99.4076982  83.9065941  74.5870819 101.2344814  82.8864399
  75.2129517 100.6455225  81.9961459  74.6034397 102.5638772  83.0059773
  74.0982994 103.0330657  83.7440794  75.3085225 103.3802443  82.0226981
  74.9440872 103.1559655  81.0202086  75.0712308 104.8624605  82.3082530
  75.4176715 105.0835093  83.3178151  75.6425882 105.4521270  81.5913540
  73.6977124 105.1885853  82.1989467  73.5750819 106.1228704  82.3824489
  76.8002294 103.0730687  82.0093283  77.4106886 102.9601848  80.9399277
  77.4082507 102.9449235  83.1881642  76.9198405 103.1185258  84.0550073
  78.8286209 102.6201521  83.2479823  79.3995913 103.3170414  82.6344375
  79.3209619 102.7224589  84.6885793  78.7915239 101.9712601  85.2746636
  80.3878714 102.4993110  84.6915929  79.0896784 104.0927067  85.2963111
  79.3999246 104.8426967  84.5687377  78.0232990 104.1994481  85.4951662
  79.8644612 104.2869579  86.5824741  79.6163409 103.4876947  87.2808390
  80.9333471 104.2644210  86.3701665  79.5380320 105.5659599  87.2012744
  80.0900149 106.3639721  86.9209339  78.5809509 105.7434434  88.1027073
  77.8267139 104.7402161  88.5212281  77.9753321 103.8122092  88.1513419
  77.1058099 104.9070141  89.2086693  78.3691984 106.9615502  88.5907368
  78.9353023 107.7351350  88.2726284  77.6431697 107.1079442  89.2774317
  79.1055786 101.2384006  82.6725076  80.1124608 101.0362958  81.9821947
  78.2265511 100.2719348  82.9397012  77.4798395 100.4021612  83.6072057
  78.3645841  98.9664909  82.3018563  79.3234563  98.5221575  82.5687478
  77.2475683  98.0314450  82.7638712  76.3483859  98.6382049  82.6570413
  77.2066486  97.1959857  82.0649911  77.3337083  97.4960447  84.1929634
  77.3973699  98.3346824  84.8863138  76.1031718  96.6658936  84.5146888
  76.0390817  95.8267446  83.8219983  76.1748563  96.2893905  85.5350845
  75.2112228  97.2849388  84.4181981  78.5989082  96.6761379  84.3891343
  79.4709552  97.3008878  84.1959477  78.6374796  96.3061043  85.4136774
  78.5966537  95.8327613  83.6986201  78.3504472  99.1031319  80.7862741
  79.2138071  98.5534654  80.0926131  77.3754473  99.8390428  80.2536531
  76.6587182 100.2621090  80.8258540  77.2887917  99.9984802  78.8079306
  77.1971692  99.0230906  78.3301025  76.0648551 100.8366001  78.4449705
  75.1820761 100.3760952  78.8885193  76.1946218 101.8391711  78.8525391
  75.9002626 100.9159578  77.0399674  75.1262298 101.4466737  76.8379436
  78.5576539 100.6332323  78.2572850  79.0574445 100.2290698  77.2009327
  79.0963817 101.6304367  78.9599384  78.6520105 102.0020699  79.7872970
  80.3369127 102.2475882  78.5050089  80.2403302 102.5346563  77.4579354
  80.6563384 103.4944852  79.3250894  79.7416529 104.0812382  79.4097682
  80.9721125 103.1696728  80.3164943  81.7495178 104.3475475  78.6992224
  82.6374551 103.7261913  78.5826699  81.4034328 104.6734302  77.7183413
  82.0886993 105.5592354  79.5428832  82.9093023 106.1032141  79.0751258
  81.2143689 106.2068853  79.6076543  82.4890032 105.1793983  80.8909193
  82.3325730 104.2196222  81.1637907  83.0364667 106.0064227  81.7713717
  83.2600192 107.2775900  81.4796114  83.0112415 107.6346526  80.5681751
  83.6783985 107.8849090  82.1696998  83.3707090 105.5461203  82.9733525
  83.2055343 104.5766216  83.2033301  83.7882080 106.1681270  83.6507749
  81.5067924 101.2779119  78.5807342  82.4585130 101.3985426  77.8012362
  81.4677879 100.3219540  79.5088491  80.7119454 100.2607382  80.1759728
  82.5614359  99.3648211  79.6142460  83.5161326  99.8784453  79.5009165
  82.5353615  98.6776344  80.9801335  82.6106012  99.4485172  81.7470611
  81.5797187  98.1622646  81.0762629  83.6661952  97.6814933  81.1523629
  84.6274723  97.7231715  80.3583337  83.5943637  96.8558693  82.0862650
  82.5027054  98.3207245  78.5085520  83.5504253  97.8530098  78.0481491
  81.2995510  97.9473636  78.0732107  80.4637792  98.3568216  78.4655487
  81.1509603  96.9064704  77.0659490  81.8384450  96.0856224  77.2700875
  79.7226016  96.3642378  77.0888427  79.0076650  97.1869981  77.0943466
  79.5455758  95.7355895  76.2161668  79.4189293  95.5257180  78.2886951
  78.1330343  95.2139779  78.6714655  78.1697364  94.4676498  79.7612092
  77.2477434  94.1170922  80.2250380  79.4327034  94.2819346  80.0964990
  79.7656246  93.7489954  80.8872197  80.2347717  94.9340308  79.1919782
  81.3187969  94.8992303  79.3005119  81.4916388  97.3986514  75.6662518
  81.7086535  96.5748340  74.7713818  81.5435102  98.7151012  75.4568086
  81.3298031  99.3587709  76.2052188  81.8522997  99.2621144  74.1425897
  81.2107747  98.7684621  73.4126223  81.5559672 100.7599873  74.1187176
  82.1971947 101.2692587  74.8381410  81.7474586 101.1529042  73.1201949
  80.5114332 100.9284652  74.3807543  83.2969078  99.0241120  73.7301137
  83.6341521  99.2565769  72.5652522  84.1541297  98.5756242  74.6469863
  83.8563134  98.4334919  75.6015559  85.5499915  98.3249090  74.3144678
  85.8969548  99.0342090  73.5630630  86.4232762  98.4675200  75.5608858
  87.4646480  98.3043002  75.2833892  86.2716190  99.8540146  76.1650536
  85.2305215 100.0177987  76.4432449  86.9010950  99.9356262  77.0511679
  86.5743296 100.6042995  75.4346158  86.0445134  97.4839855  76.5297659
  86.5945921  97.5761067  77.3111284  85.7716893  96.9476590  73.7044811
  86.7648312  96.7524163  72.9971648  84.8820363  95.9952998  73.9579597
  84.1055315  96.1650162  74.5811258  85.0278768  94.6682229  73.3847063
  86.0592037  94.3312725  73.4892451  84.1144526  93.6746845  74.1017409
  83.1094575  93.9805798  73.8110310  84.3157871  92.6757171  73.7149224
  84.2217952  93.6614212  75.6291409  84.2971002  94.6879013  75.9879841
  83.0016615  92.9997424  76.2425200  82.9259431  91.9730127  75.8844814
  83.0953025  92.9993145  77.3284905  82.1060803  93.5509461  75.9557986
  85.4873228  92.9594960  76.0744428  86.3543606  93.4791024  75.6665776
  85.5413785  92.9627398  77.1630973  85.4785676  91.9306173  75.7146776
  84.7103271  94.7014223  71.8920703  84.1077202  95.6472552  71.3796036
  85.1239825  93.6498285  71.1874615  85.6555935  92.9084431  71.6208629
  84.8845596  93.5799209  69.7534017  85.1878025  94.5148731  69.2822250
  85.6858127  92.4394080  69.1336068  85.5277417  92.4420516  68.0551330
  86.7417149  92.6069858  69.3459469  85.2930148  91.0836443  69.6762565
  84.1547861  90.8658989  70.0849048  86.2413098  90.1572591  69.6752152
  86.0392548  89.2317314  70.0254607  87.1614685  90.3812746  69.3241798
  83.3901930  93.4243495  69.4668427  82.5521407  93.3717371  70.3692513
  83.0594373  93.3485482  68.1763711  83.7664869  93.2975697  67.4569398
  81.6626579  93.3374598  67.7722222  81.1960851  94.2358735  68.1762789
  81.6349656  93.3727015  66.6831443  80.8879409  92.1230889  68.2465279
  79.6973679  92.2263142  68.5501814  81.5374825  90.9621819  68.3128655
  82.5215143  90.9116266  68.0909987  80.8396280  89.7259970  68.6465643
  79.8100773  89.8016594  68.2967075  81.5109565  88.5467044  67.9393811
  82.5400229  88.4524578  68.2861376  80.9667096  87.6295970  68.1647909
  81.5050215  88.7168253  66.8627555  80.7961154  89.4822120  70.1514369
  79.7225527  89.2290561  70.7149058  81.9567109  89.5257850  70.8059554
  82.8361186  89.6204955  70.3183375  81.9831518  89.3725081  72.2534799
  81.5642740  88.4059540  72.5335047  83.4210634  89.4476585  72.7636911
  83.9126658  88.5979169  72.2900185  83.8623630  90.3737344  72.3952644
  83.6058296  89.3630406  74.2797723  83.1428014  90.2368045  74.7382943
  82.9693383  88.1052581  74.8343469  83.4322005  87.2309988  74.3766044
  83.1149206  88.0694085  75.9139864  81.9022505  88.1090346  74.6120639
  85.0791815  89.4104443  74.6323475  85.5094237  90.3452188  74.2729207
  85.1965422  89.3493761  75.7142894  85.5926372  88.5708768  74.1637445
  81.1207444  90.4255972  72.9288737  80.5689530  90.1775365  74.0022786
  80.9861937  91.6019078  72.3137400  81.5129787  91.8154222  71.4788697
  80.1155945  92.6354521  72.8660084  80.4063449  92.8642915  73.8912868
  80.2335687  93.9094828  72.0287308  81.2763753  94.2225917  72.0798821
  79.9872422  93.6343744  71.0031877  79.3411882  95.0511753  72.4734559
  78.3001704  94.7319239  72.4238441  79.5926429  95.3101315  73.5019568
  79.5116413  96.2847210  71.6075439  80.2005248  96.2502099  70.5889107
  78.8784175  97.3796900  72.0061309  78.9574860  98.2297870  71.4665157
  78.3200169  97.3584499  72.8474627  78.6708128  92.1576860  72.9199562
  78.0026752  92.2765543  73.9538689  78.1714812  91.6029938  71.8145139
  78.7065757  91.5562273  70.9591858  76.8040405  91.0969913  71.8029782
  76.1167317  91.8760219  72.1328526  76.4124557  90.6665854  70.3919143
  76.5128320  91.5065598  69.7045520  77.0468768  89.8459329  70.0570421
  74.9967055  90.1874608  70.2796474  73.9538558  90.9488502  70.7684138
  74.1696148  91.9074590  71.2402369  72.6518109  90.5092868  70.6650348
  71.8375083  91.1209383  71.0534860  72.3800921  89.2994789  70.0720256
  71.3510102  88.9497904  69.9895135  73.4084975  88.5303412  69.5826888
  73.1959770  87.5708159  69.1112588  74.7090149  88.9729704  69.6883630
  75.5255389  88.3624320  69.3028357  76.6397864  89.9354091  72.7720832
  75.6291857  89.8435999  73.4799959  77.6216785  89.0340215  72.8149094
  78.4191283  89.0866772  72.1973330  77.5277476  87.8986777  73.7295424
  76.6062798  87.3527532  73.5271500  78.7098836  86.9559740  73.5177190
  79.6395322  87.4857833  73.7254585  78.6202131  86.1030812  74.1904992
  78.7150678  86.6050777  72.4857577  77.4674730  88.3685059  75.1797863
  76.6436813  87.8888488  75.9697870  78.3361036  89.3106268  75.5468641
  79.0314859  89.6546076  74.9001647  78.3447394  89.8260766  76.9079618
  78.4111093  89.0094808  77.6268954  79.5436462  90.7483155  77.1057490
  79.5197308  91.5268271  76.3432217  79.5068898  91.3859445  78.4790852
  79.5312468  90.6080178  79.2421949  80.3705617  92.0398401  78.5998758
  78.5923686  91.9695085  78.5849377  80.7538200  89.9946799  76.9641548
  81.5084890  90.5748457  77.0885842  77.0504026  90.5580015  77.2281931
  76.5285270  90.4453769  78.3410200  76.5182668  91.3201346  76.2712376
  76.9838790  91.4779101  75.3889613  75.2558497  92.0056544  76.5187180
  75.3335214  92.6175341  77.4174223  74.9121083  92.9124240  75.3392724
  75.8192993  93.4568840  75.0772285  74.6245134  92.2661449  74.5099880
  73.7923063  93.9008984  75.6229394  72.8793097  93.3383017  75.8179344
  74.0595679  94.4771261  76.5087356  73.5646960  94.8469836  74.4521455
  73.4358820  94.2508640  73.5487368  72.6557296  95.4174421  74.6430820
  74.7333780  95.8031076  74.2660587  74.9434468  96.2746299  75.2260788
  75.6002720  95.2232739  73.9492201  74.4411600  96.8521617  73.2519566
  73.6381692  97.3898400  73.5455676  75.2400845  97.4631707  73.1598272
  74.2468975  96.4154672  72.3622043  74.1466584  90.9961006  76.7743756
  73.3378630  91.1666801  77.6944009  74.0981087  89.9317125  75.9722596
  74.7259530  89.8483603  75.1855175  73.1042482  88.8833673  76.1782882
  72.0987949  89.2968127  76.0993846  73.2715468  87.8003463  75.1142442
  73.2105925  88.2970721  74.1459223  74.2691618  87.3810215  75.2447476
  72.2444468  86.6881332  75.1765055  72.4141065  86.0496617  76.0434949
  71.2674785  87.1638872  75.2619053  72.2558576  85.8269187  73.9320263
  72.5714316  86.2994047  72.8412546  71.9616066  84.5452264  74.0971181
  71.9545664  83.9251131  73.2999285  71.7457687  84.1945235  75.0193561
  73.2339935  88.2885472  77.5750405  72.2495478  88.1801725  78.3190019
  74.4535871  87.8846827  77.9415019  75.2488802  87.9896060  77.3278249
  74.6551599  87.2294849  79.2283800  74.0135985  86.3513973  79.3022749
  76.1089456  86.7853486  79.3744616  76.6723120  87.6642785  79.0610932
  76.2826772  86.6020999  80.4348094  76.5671875  85.5727810  78.5668601
  76.5803006  85.8257575  77.5067036  77.9597072  85.1694763  79.0067057
  77.9472953  84.9158916  80.0667243  78.2869449  84.3040724  78.4304310
  78.6481849  85.9978870  78.8398687  75.6093871  84.4072990  78.7145906
  74.6211680  84.7013981  78.3609973  75.9692584  83.5636906  78.1255925
  75.5479935  84.1175102  79.7635674  74.2711684  88.1530940  80.3750860
  73.6445411  87.7187203  81.3477930  74.6512134  89.4289180  80.2927950
  75.1917557  89.7698269  79.5106860  74.3401325  90.3548243  81.3729822
  74.6189092  89.9163621  82.3311750  75.1148349  91.6568069  81.1885819
  76.1129604  91.4205820  80.8197426  74.5937186  92.2730280  80.4559091
  75.2187691  92.3636272  82.4106346  75.7089339  93.1768577  82.2692329
  72.8458485  90.6350961  81.4471511  72.3070887  90.8250093  82.5419821
  72.1632589  90.6700252  80.3022462  72.6298019  90.5987012  79.4093017
  70.7204251  90.8674001  80.3135585  70.4643436  91.7043338  80.9632225
  70.2195432  91.1733638  78.9027146  70.7952943  92.0214828  78.5321687
  70.4280114  90.2972639  78.2886380  68.7377086  91.4988158  78.8333225
  68.1751989  90.5713418  78.9404466  68.4925375  92.1690605  79.6571946
  68.3740736  92.1615935  77.5169091  67.2954869  92.3148689  77.4814630
  68.8797746  93.1249801  77.4517006  68.7679783  91.3492421  76.3732753
  69.6014672  91.6282386  75.8757247  68.1074167  90.2794603  75.9513887
  67.0084068  89.8595405  76.5581617  66.6568952  90.3592848  77.3623976
  66.5264703  89.0413437  76.2140821  68.5598673  89.6128837  74.8933769
  69.3974889  89.9256552  74.4236278  68.0638027  88.7969118  74.5644263
  69.9912052  89.6534553  80.8694230  68.8817937  89.7894705  81.3967853
  70.5868823  88.4660183  80.7615056  71.4885452  88.3728174  80.3160655
  69.9139488  87.2530298  81.2254576  68.8321314  87.3827598  81.1947890
  70.2903777  86.0711025  80.3290145  71.3612314  85.8869463  80.4153807
  69.5288172  84.8273686  80.7445519  68.4578232  85.0106179  80.6580007
  69.8082099  83.9963054  80.0969618  69.7722292  84.5799160  81.7778081
  69.9784212  86.3837792  78.9674061  70.2150465  85.6415937  78.4063628
  70.2277626  86.9211310  82.6854329  69.3161876  86.8260953  83.5119227
  71.5074300  86.7387640  83.0151654  72.2491005  86.9153722  82.3527200
  71.8653325  86.2243002  84.3344311  71.4225928  85.2391683  84.4813865
  73.3814472  86.1014017  84.4606293  73.7462112  87.0822724  84.1557701
  73.6173852  85.9372691  85.5120540  74.0532930  85.0238896  83.6147867
  73.7966599  85.1771367  82.5665712  75.5589219  85.0994496  83.7826176
  75.8163748  84.9458250  84.8305758  76.0318681  84.3272667  83.1758588
  75.9120080  86.0796328  83.4621939  73.5390197  83.6483534  83.9888486
  72.4626063  83.6048143  83.8229029  74.0317679  82.8958539  83.3731824
  73.7522557  83.4536000  85.0398959  71.3322276  87.0972028  85.4631357
  70.9821340  86.5804178  86.5291084  71.2585204  88.4128093  85.2562039
  71.4558779  88.8138549  84.3504932  70.9486126  89.3155751  86.3598035
  71.6693328  89.1804295  87.1662756  71.0145701  90.7668405  85.8838002
  70.7129776  91.4183756  86.7039485  72.0412833  90.9951866  85.5977616
  70.1586753  90.9764131  84.7758681  70.2169489  91.8926531  84.4953183
  69.5861155  89.0411484  86.9798540  69.3344377  89.4832899  88.1061609
  68.7018586  88.3274872  86.2823962  68.9146618  88.0681988  85.3297243
  67.3972738  87.9652055  86.8221929  67.2089456  88.5189471  87.7419765
  66.2964767  88.3012222  85.8154573  65.3575368  88.3277027  86.3684400
  66.5156862  89.2949681  85.4249242  66.1771227  87.3190585  84.6620652
  67.1722146  87.1381318  84.2556684  65.7653620  86.3844825  85.0430152
  65.2740725  87.8608042  83.5670306  65.0223205  87.0520490  82.8810022
  64.3618501  88.2506510  84.0186602  65.9162011  88.9311716  82.8121143
  66.8931257  88.8035790  82.5897681  65.3139418  90.0427494  82.4061298
  64.0322413  90.2674489  82.6467769  63.4886392  89.5820920  83.1516360
  63.6035226  91.1232653  82.3244755  66.0172459  90.9529934  81.7389407
  66.9958754  90.7908754  81.5489353  65.5695608  91.8022793  81.4252686
  67.3228948  86.4941861  87.2152814  66.2275340  85.9291158  87.2820368
  68.4624827  85.8639984  87.4822496  69.3479097  86.3450120  87.4133714
  68.4696470  84.4555555  87.8390496  67.7282001  83.9292722  87.2378995
  69.8422144  83.8404064  87.5700082  70.5940492  84.3509769  88.1718073
  69.8245957  82.7825899  87.8323326  70.0885244  83.9482068  86.5136893
  68.0988651  84.2644840  89.3066649  68.1670037  85.1888463  90.1210717
  67.6993526  83.0372434  89.6339573  67.6036824  82.3452091  88.9045499
  67.3572910  82.6550461  90.9982329  67.8086289  83.3502551  91.7061014
  65.8412742  82.6642081  91.2030966  65.6146886  82.2598012  92.1896128
  65.2975817  84.0802102  91.0991233  65.5233935  84.4851426  90.1126456
  64.2178062  84.0671751  91.2474951  65.7611987  84.7049446  91.8625804
  65.2145494  81.8423423  90.2102830  64.2636501  81.8504841  90.3419058
  67.9217648  81.2681205  91.2854620  67.5930363  80.3135214  90.5698056
  68.7622082  81.1035638  92.3064238  69.1799350  81.9828044  93.3540733
  68.3024537  82.5341576  93.6919139  69.9052231  82.6784514  92.9320172
  69.7761509  81.1175643  94.4412965  69.0065525  80.7861938  95.1384414
  70.5501530  81.6585974  94.9856357  70.3752363  79.9375356  93.6661030
  70.4038041  79.0214034  94.2560052  71.3671989  80.1401212  93.2622850
  69.3735235  79.7908037  92.5318600  69.9341513  79.5072348  91.6411393
  68.3134413  78.7399645  92.8182718  67.3736360  78.9734359  93.5806044
  68.4703065  77.5756149  92.1975074  69.2253054  77.4491865  91.5386509
  67.5268271  76.4778542  92.3880486  66.5511301  76.8659245  92.6804800
  67.3805385  75.6334656  91.1111228  67.2453235  76.3034162  90.2620154
  68.6106624  74.7715747  90.8847241  68.7462754  74.1009886  91.7332664
  68.4813176  74.1845705  89.9754405  69.4883686  75.4098048  90.7827757
  66.1333563  74.7521101  91.1965052  66.2256545  73.9847438  90.4279151
  66.1352078  74.2824820  92.1801441  64.8362130  75.5082589  91.0010638
  64.8334291  75.9778083  90.0173893  63.9970945  74.8165435  91.0752876
  64.7429835  76.2755484  91.7696176  67.9979649  75.6356730  93.5681846
  69.1364054  75.1702583  93.5842294  67.1600141  75.4081616  94.5857728
  65.8325474  75.8574551  94.8384178  65.2497713  75.6905773  93.9325347
  65.8799659  76.9261433  95.0475975  65.3158669  75.0616932  96.0162863
  64.8496847  74.1345265  95.6829173  64.5953336  75.6440189  96.5905947
  66.5804594  74.7880059  96.8409474  66.5192898  73.8720389  97.4286222
  66.8516339  75.6192348  97.4918104  67.6195847  74.6288821  95.7425940
  68.5458137  75.0714199  96.1091435  67.8632880  73.1747643  95.3793321
  66.9229345  72.4411893  95.0580413  69.1212896  72.7523833  95.4226945
  69.8542285  73.3983026  95.6789916  69.4965889  71.3923172  95.0514469
  69.2731378  71.2170327  93.9990951  70.9969751  71.1839856  95.2743239
  71.2310194  70.1708239  94.9474818  71.5170960  71.8998084  94.6377927
  71.4466966  71.3680249  96.7172411  70.6301477  71.0515514  97.3662351
  72.3119274  70.7263012  96.8835711  71.8148171  72.8032814  97.0327442
  70.9989235  73.7018793  96.7372626  72.9162059  73.0341879  97.5745208
  68.7019235  70.3404773  95.8251850  68.2909864  70.6181346  96.9179444
  68.4665002  69.2196643  95.3727339  68.4475016  69.0950898  94.3706263
  68.1319992  68.0693215  96.2244138  67.2882696  68.3317663  96.8626475
  67.7558382  66.8374852  95.3987406  68.5464557  66.7010463  94.6609008
  67.7204383  65.9696232  96.0572711  66.4266989  66.9879781  94.6913223
  65.2195834  66.8960303  95.3880150  65.2567426  66.7260811  96.4640428
  64.0006567  67.0145038  94.7492256  63.0650448  66.9500885  95.3047280
  63.9802635  67.2276994  93.3777484  62.7737087  67.3383374  92.7302102
  62.0217737  67.2528608  93.3208769  65.1537823  67.3212625  92.6561027
  65.1307089  67.4919090  91.5797905  66.3748113  67.1955417  93.3155574
  67.3067217  67.2593972  92.7538052  69.2949567  67.7518102  97.1728601
  70.4692763  68.1060811  96.9252342  68.9756722  67.0722990  98.2841206
  68.0310144  66.7531499  98.4449461  69.9709152  66.8223679  99.3112674
  70.3396384  67.7689800  99.7063218  69.3603127  66.0123449 100.4665909
  68.9231693  65.1762308  99.9207722  70.1969511  65.6557118 101.0673814
  68.2975850  66.6348617 101.3868689  67.4793888  67.0226403 100.7800052
  67.7623789  65.5845729 102.3468985  68.5799754  65.1966338 102.9544658
  67.0100904  66.0338563 102.9952096  67.3127934  64.7691205 101.7803204
  68.8269978  67.8536532 102.1572452  69.1484161  68.6190558 101.4508824
  68.0365376  68.2544828 102.7917605  69.6722713  67.5535646 102.7765662
  71.1946976  66.0838627  98.7685687  72.3031767  66.2506996  99.2507651
  70.9983009  65.2465638  97.7403071  70.0438689  65.0452234  97.4783510
  72.0942763  64.5108687  97.0421333  71.6837510  64.0130532  96.1636415
  73.2349919  65.4570717  96.5875238  73.5150350  66.0951292  97.4257109
  74.0920142  64.8533684  96.2889349  72.7918971  66.3240681  95.4155605
  72.5377563  65.7229921  94.5425078  71.9445309  66.9568225  95.6795578
  74.0000103  67.1997599  95.0956348  73.9332541  68.1327844  95.6551952
  74.9146899  66.6754298  95.3722909  74.0202620  67.4938285  93.6510240
  73.9924149  66.5809794  93.0560185  73.1917250  68.1405456  93.3622632
  75.3272835  68.2122666  93.4096057  76.0951694  67.6130122  93.6767109
  75.4072494  68.4456446  92.4301977  75.3531094  69.0583817  93.9605333
  72.6710282  63.3485259  97.8614534  73.8936623  63.1977729  98.0086105
  71.7975350  62.5138122  98.4042405  70.8025886  62.6635373  98.3161305
  72.2668374  61.3510025  99.2001643  73.3261464  61.4743924  99.4254164
  71.4959688  61.2207357 100.5220180  70.4377854  61.1281811 100.2775168
  71.8361980  60.3085935 101.0122637  71.7010194  62.4183863 101.4676978
  71.3923110  63.3368377 100.9684512  71.0825785  62.2601959 102.3512183
  73.1586266  62.5688417 101.9113413  73.7556514  61.6167103 102.4280707
  73.7460790  63.7480567 101.6970318  74.7068936  63.8880955 101.9751071
  73.2270969  64.4949220 101.2577697  72.0864900  60.1001424  98.3306720
  71.0156856  59.8650213  97.7220759  73.1364299  59.2755225  98.2600379
  73.9618545  59.4861520  98.8026323  73.1801787  58.1476430  97.3540672
  72.2306280  58.0497610  96.8278811  74.3315612  58.3109079  96.3198057
  75.2767530  58.3967327  96.8558532  74.3877924  57.1162238  95.3828458
  73.4430501  57.0300178  94.8460673  75.1998589  57.2519361  94.6685414
  74.5608657  56.2083981  95.9607708  74.1455416  59.5967059  95.5067415
  73.2564640  59.4561111  94.8920262  73.9688448  60.4001006  96.2218881
  75.3341806  59.9635831  94.6095858  75.5112046  59.1608110  93.8938210
  75.1136994  60.8862421  94.0727547  76.2235863  60.1047983  95.2236832
  73.2885213  56.8008602  98.1101916  74.3392840  56.4639275  98.6800866
  72.2019775  56.0099332  98.1254883  70.8104488  56.2191221  97.7325368
  70.7097906  55.9715530  96.6758070  70.5636505  57.2699402  97.8840981
  70.0017164  55.3024476  98.6235328  69.0537427  55.0418686  98.1528487
  69.8107431  55.7707447  99.5891043  70.9054867  54.0735510  98.7803978
  70.8315489  53.4215475  97.9100395  70.7400088  53.4899593  99.6860122
  72.2798492  54.7219213  98.8250927  72.5255521  54.8863227  99.8742354
  73.3770576  53.8630303  98.1703035  73.4620072  53.7620404  96.9457151
  74.2301281  53.2340627  98.9738808  74.2276068  53.3974632  99.9705720
  75.2698091  52.3734512  98.4159918  75.7837383  52.8971211  97.6099237
  76.3015196  51.9910669  99.4896607  75.7759600  51.6557829 100.3837921
  76.9120267  51.1761750  99.1006462  77.2142945  53.1434893  99.8670617
  77.3182134  54.1269024  99.1241125  77.8626322  53.0370633 101.0097331
  78.4824924  53.7774052 101.3059877  77.7365595  52.2156649 101.5837638
  74.6819793  51.1282218  97.7379057  75.4227156  50.2567313  97.2034200
  73.3554740  51.0082752  97.7411698  72.7980925  51.6423876  98.2955403
  72.6685918  49.8943876  97.0439273  73.1515563  48.9536112  97.3080948
  71.1850340  49.8107552  97.4331212  70.7588667  48.9263311  96.9595448
  71.1232656  49.7075743  98.5164671  70.4603606  50.9605297  97.0257906
  69.5411804  50.8686075  97.2870526  72.8417618  49.9923909  95.5403554
  72.3898297  49.1241525  94.7693844  73.5087650  51.0679791  95.0821461
  73.8747216  51.7232991  95.7579647  73.7246024  51.3462933  93.6515023
  73.1380116  50.6708733  93.0287517  73.2729107  52.7812590  93.3760350
  73.8689119  53.4820098  93.9606973  73.3782458  53.0118159  92.3159180
  71.5448444  53.1212231  93.7943604  71.5609548  54.3986242  93.4243805
  75.2048539  51.1984100  93.2107759  75.6789558  51.8852010  92.3017520
  75.9458917  50.2912208  93.8600438  75.5076056  49.7115138  94.5614312
  77.3927793  50.1611989  93.6551517  77.8558933  51.1398280  93.5290184
  78.0870171  49.4334590  94.8313377  77.6134579  48.4610567  94.9665214
  79.5675876  49.2414756  94.5625766  80.0419502  50.2135346  94.4277348
  80.0270147  48.7275639  95.4069237  79.6991625  48.6451841  93.6596779
  77.8912867  50.2118103  96.1361575  76.8264221  50.2971696  96.3526738
  78.3862931  49.6848966  96.9518965  78.3216748  51.2079827  96.0336512
  77.6966020  49.4401089  92.3170273  77.2198273  48.3025725  92.0622117
  78.4796459  50.0693522  91.4525915  78.7964414  51.0140929  91.6175309
  78.8034621  49.4440853  90.1736211  78.7859118  48.3600447  90.2860807
  77.7937548  49.8411835  89.0862278  77.7910249  50.9281753  89.0053535
  78.1231151  49.4079263  88.1418179  76.4829527  49.3859986  89.3834810
  75.8845527  49.6536558  88.6821417  80.2167771  49.7292763  89.7298648
  81.1498507  49.6148687  90.5237171  80.4301611  50.0744844  88.5729147
  79.5112884  50.3002855  88.2196637  81.5649651  50.2217474  87.6814470
  82.4551268  50.3997625  88.2847893  81.6853141  49.2939387  87.1221738
  81.3941799  51.3665847  86.7056161  80.9608961  52.4549753  87.0813622
  81.7372877  51.1212022  85.4457414  82.1922511  50.2467039  85.2258302
  81.5240915  52.0781172  84.3694142  81.1041303  53.0056049  84.7586431
  82.8482326  52.3950362  83.6753554  83.4033109  51.4713916  83.5114389
  83.4362999  53.0653586  84.3022085  82.6761958  53.2106985  82.0887895
  80.5187104  51.5083047  83.3791553  80.6771540  50.3783802  82.9082156
  79.4915715  52.2940597  83.0637510  79.4142404  53.1936073  83.5164467
  78.4326646  51.8875769  82.1499606  78.4133226  50.8012570  82.0625869
  77.0740662  52.3604633  82.6723539  77.0883191  53.4341520  82.8596735
  76.2861104  52.1275522  81.9561290  76.5811955  51.5872257  84.2281110
  75.4190859  52.2246389  84.3381291  78.6433701  52.3890216  80.7267644
  77.7361808  52.2582745  79.8989831  79.8054677  52.9692365  80.4192896
  80.5758382  52.9977420  81.0718359  79.9630164  53.6414557  79.1321389
  79.2030059  54.4170107  79.0372782  81.3437691  54.2968912  79.0487820
  81.5050276  54.6786997  78.0406561  82.1112881  53.5597491  79.2846550
  81.5882856  55.7233085  80.1704568  79.7584046  52.6639902  77.9789060
  79.1281497  53.0062932  76.9715087  80.3163396  51.4560811  78.0932441
  80.7793157  51.1708730  78.9443661  80.2696792  50.5142906  76.9839730
  80.8905881  50.9054001  76.1779924  80.6768135  49.5630315  77.3266785
  78.8647366  50.2895230  76.4598424  78.6055562  50.4004712  75.2572947
  77.9356925  49.9651432  77.3623327  78.1710998  49.8691438  78.3398126
  76.5650505  49.6792278  76.9492445  76.5643537  48.9264679  76.1609227
  75.7564906  49.1496526  78.1297644  76.2714225  48.2994596  78.5771077
  75.6008508  49.9186576  78.8864068  74.4067343  48.6672109  77.7290537
  74.0872014  47.4409269  77.2294916  74.9029283  46.7274610  77.1126335
  72.7397777  47.3737978  76.9713887  72.2493980  46.5709061  76.6039760
  72.1678171  48.5747490  77.2961952  70.8431735  48.9889890  77.2119480
  70.1000080  48.2875006  76.8328469  70.5561628  50.2627055  77.6143870
  69.5289046  50.6235978  77.5634222  71.5517221  51.1184237  78.0920345
  71.3102336  52.1324273  78.4107498  72.8652618  50.7096084  78.1751522
  73.6027305  51.4150110  78.5580983  73.1904481  49.4134770  77.7731629
  75.8995132  50.9142420  76.3619720  75.1067288  50.8099100  75.4199376
  76.1888119  52.0895288  76.9173747  76.7727001  52.1537471  77.7389890
  75.6264820  53.3193816  76.3708282  74.5375972  53.2701051  76.3698863
  76.0606124  54.5032584  77.2320463  77.1489689  54.4445010  77.2433089
  75.7518908  55.4185705  76.7270762  75.5366288  54.5121757  78.6669246
  75.7879706  53.5654821  79.1451497  76.1629477  55.6538424  79.4457845
  75.9116433  56.6009655  78.9683929  75.7817772  55.6498716  80.4669574
  77.2459896  55.5319911  79.4623045  74.0259725  54.6272027  78.6812263
  73.5914727  53.7792251  78.1518462  73.6711726  54.6319629  79.7118550
  73.7269210  55.5532911  78.1902807  76.0760109  53.5101763  74.9289780
  75.2693886  53.8224752  74.0425239  77.3739243  53.3298207  74.6817156
  78.0180593  53.1088568  75.4276140  77.9066422  53.4968314  73.3357137
  77.6421024  54.4758676  72.9362066  79.4282845  53.3750728  73.3608074
  79.6969891  52.3800119  73.7154224  80.0056930  53.5905340  71.9746022
  79.7377782  54.5856288  71.6194858  81.0911603  53.4995679  72.0144124
  79.6036009  52.8414364  71.2924912  79.9721539  54.3493498  74.2587168
  80.9289045  54.2718594  74.2736791  77.3108426  52.4729966  72.3836077
  77.0068111  52.7895316  71.2264627  77.1069392  51.2440545  72.8629632
  77.4187862  50.9747379  73.7850908  76.4766609  50.2318305  72.0231532
  77.0022365  50.1596311  71.0709680  76.5239669  48.8684280  72.7116217
  76.2848606  49.0271652  73.7631587  75.7541544  48.2468438  72.2543233
  77.8708749  48.1720972  72.5979899  78.0308153  47.9067041  71.5529605
  78.6442644  48.8706378  72.9173829  77.9361424  46.9182311  73.4544738
  78.9707786  46.5763820  73.4821533  77.6119503  47.1755304  74.4628368
  77.0526420  45.8122355  72.9060098  76.0406060  46.2027174  72.7992033
  77.4345358  45.5215568  71.9273565  77.0338539  44.6258817  73.8028513
  76.6796089  44.8949245  74.7096182  76.4377231  43.9135021  73.4063121
  77.9714718  44.2636415  73.9016125  75.0403989  50.6108415  71.6885998
  74.6080698  50.4536776  70.5446478  74.2876283  51.1116079  72.6671393
  74.6282112  51.1798851  73.6155278  72.9164958  51.5309131  72.3922560
  72.3404739  50.7136555  71.9582190  72.2364550  51.9738873  73.6867962
  72.7512535  52.8545719  74.0708240  70.7710839  52.3094824  73.4414040
  70.2554909  51.4290881  73.0577774  70.3077983  52.6222454  74.3771630
  70.6998567  53.1176056  72.7134176  72.3310080  50.9284122  74.6612908
  71.9032390  51.2086350  75.4737495  72.8884170  52.6579958  71.3678079
  72.1061800  52.6255361  70.4043227  73.7910548  53.6285913  71.5125262
  74.4451672  53.6323137  72.2820861  73.7988495  54.7614007  70.5923148
  72.8128846  55.2169865  70.5005870  74.7941897  55.8346454  71.0659441
  75.7553647  55.3633053  71.2710787  74.9706071  56.8993801  69.9964069
  74.0098708  57.3715194  69.7910505  75.6775372  57.6520698  70.3454176
  75.3511493  56.4394464  69.0844035  74.3236649  56.4584743  72.3681423
  74.2447170  55.6866111  73.1337118  75.0395680  57.2153942  72.6885399
  73.3485084  56.9218036  72.2181538  74.1210145  54.2837740  69.1851818
  73.4373006  54.6420083  68.2176507  75.1711724  53.4743038  69.0417367
  75.7433974  53.1805628  69.8204370  75.5610590  53.0558908  67.7012260
  75.6271632  53.9245033  67.0460606  76.9219690  52.3670299  67.7363797
  76.8748355  51.5736549  68.4823246  77.1002708  51.9307991  66.7535211
  78.0529749  53.3170844  68.0801284  78.2050496  53.9846706  67.2320112
  77.7538164  53.8997379  68.9514040  79.3414352  52.5845102  68.3820821
  80.0556709  53.2910895  68.8048255  79.1357306  51.7982077  69.1083833
  79.9228271  51.9705156  67.1244123  80.7557245  51.3259356  67.4053018
  79.1500011  51.3741183  66.6394901  80.4024584  53.0183741  66.1846691
  81.1188879  53.5708496  66.6336672  80.7835039  52.5804527  65.3581527
  79.6307404  53.6155060  65.9239320  74.5011141  52.1483428  67.0861371
  74.2103832  52.2518849  65.8890407  73.9055559  51.2556055  67.8848683
  74.2163384  51.1241370  68.8368292  72.8304112  50.4107201  67.3872756
  73.1430654  49.9166734  66.4673493  72.4733841  49.3405616  68.4196681
  72.2981196  49.8526794  69.3657744  71.5494209  48.8680931  68.0862530
  73.5449045  48.2793518  68.6092753  73.6805853  47.7631668  67.6588835
  74.4709762  48.7848680  68.8830339  73.1823004  47.2723683  69.6838438
  71.9748337  47.0854574  69.9420483  74.1050129  46.6658144  70.2689890
  71.5926623  51.2155496  67.0356276  70.6977896  50.6873679  66.3665537
  71.5214431  52.4732939  67.4692578  72.1984874  52.8407279  68.1224826
  70.4281581  53.3385180  67.0481211  69.5512615  52.7429440  66.7942647
  70.0514058  54.3107646  68.1677904  70.9525350  54.8130950  68.5195440
  69.0578544  55.3472605  67.6613708  68.1562161  54.8456793  67.3098537
  68.8007683  56.0306812  68.4706558  69.5042439  55.9085445  66.8405192
  69.4683677  53.5863723  69.2588831  69.2329241  54.1985221  69.9599104
  70.7833716  54.1205899  65.7884847  69.9406569  54.3436825  64.9204849
  72.0403815  54.5555933  65.6584112  72.7158642  54.4378679  66.4000063
  72.4526418  55.2704041  64.4533881  71.6697618  55.9604554  64.1387020
  73.7286412  56.0713323  64.7307646  74.5037302  55.3801388  65.0618065
  74.2106729  56.8191075  63.4797815  73.4362411  57.5108734  63.1483980
  75.1176828  57.3757548  63.7155270  74.4208508  56.1024135  62.6858826
  73.4748100  57.0294718  65.7641704  74.2742470  57.5316414  65.9383152
  72.6718069  54.3185313  63.2817940  72.3584231  54.6618426  62.1362492
  73.1965902  53.1239072  63.5414953  73.4898258  52.8933147  64.4800790
  73.4117415  52.1375740  62.4873294  73.4175972  52.6323111  61.5160930
  74.7530498  51.4241354  62.6812556  74.7216690  50.9544143  63.6643510
  74.8149002  50.6535875  61.9127957  75.9742067  52.3303895  62.5906066
  75.8608088  53.1264852  63.3264553  76.8557380  51.7363530  62.8316982
  76.1368464  52.9399732  61.2049021  75.2291358  53.4866267  60.9493040
  76.9829279  53.6270692  61.2169275  76.3738167  51.9246536  60.1848054
  75.5769868  51.6289438  59.6391708  77.5536651  51.3726108  59.9328224
  78.6381491  51.7136014  60.6099642  78.5765831  52.4103488  61.3385606
  79.5224836  51.2755562  60.3950958  77.6485803  50.4538773  58.9749869
  76.8266684  50.1871317  58.4521027  78.5421001  50.0274773  58.7752270
  72.2806475  51.1180688  62.4563195  71.1658323  51.1473585  62.0142255
  73.1049503  50.0119870  63.2149249  74.0943685  50.0932732  63.4007834
  72.4221396  48.7853914  63.6212028  72.1533508  48.9511396  64.6644570
  71.1283050  48.6114977  62.8006877  70.5861088  49.5570714  62.7969342
  71.4443154  48.1989167  61.3600856  71.9861396  47.2531273  61.3630075
  70.5148639  48.0828673  60.8026346  72.0571794  48.9666909  60.8878345
  70.3911785  47.4956401  63.3130735  69.5846277  47.3842241  62.8044847
  73.3405402  47.5803743  63.4461255  72.9609969  46.5395834  62.9037141
  74.5750682  47.7242405  63.9130561  74.8565839  48.6224610  64.2791819
  75.5737578  46.6757214  63.8198265  75.1309698  45.7523220  64.1931516
  76.0888559  46.4313009  62.3903628  76.7472263  45.5639947  62.4396355
  75.2174699  46.1911960  61.7811534  76.8411010  47.6074525  61.7630594
  76.1795969  48.4736418  61.7781988  77.7091284  47.8027948  62.3927172
  77.2995187  47.3439625  60.3344162  78.5277855  47.3600501  60.0694489
  76.4284706  47.1085210  59.4701127  76.6746210  47.0568755  64.7971160
  76.5036808  47.9418826  65.6400440  77.8324920  46.3988640  64.7090890
  77.0562134  45.3075740  65.1621659  76.9725722  44.5969914  64.3398662
  76.0665042  45.6877360  65.4152502  77.7745154  44.7280457  66.3594287
  78.4996034  43.9754578  66.0496579  77.0659970  44.2832766  67.0582015
  78.4648844  45.9481810  66.9819899  79.3722853  45.7158528  67.5394361
  77.7847267  46.5163867  67.6165191  78.8129259  46.7552674  65.7412435
  78.6634131  47.8063411  65.9882018  80.2609309  46.5368577  65.3009362
  80.6121579  46.6435885  64.1224943  81.1189044  46.2249789  66.2698031
  80.7783630  46.1720073  67.2191844  82.5348555  45.9715717  66.0278835
  82.7421376  44.9100918  65.8922601  83.0109440  46.7554207  64.7757360
  82.2943411  46.5984075  63.9695552  83.1180351  48.2448572  65.0765010
  83.8348548  48.4027115  65.8823250  83.4533670  48.7730938  64.1839656
  82.1426244  48.6260739  65.3787375  84.3424722  46.2219969  64.2499636
  84.5283370  46.7036715  63.2899925  85.1139539  46.5190798  64.9603559
  84.3710370  44.7225210  64.0742413  83.6000806  44.4247098  63.3635835
  85.3479816  44.4187973  63.6981690  84.1856951  44.2401179  65.0339472
  83.3414489  46.4087286  67.2569246  83.0589293  47.4394743  67.8692636
  84.3528554  45.6393700  67.6392965  84.5008968  44.7202217  67.2476980
  85.2483853  46.0922608  68.7026036  85.9932288  45.3212676  68.8997753
  85.9741621  47.3867147  68.3113977  86.4491842  47.8083352  69.1972246
  86.7367815  47.1448913  67.5711051  85.0375571  48.4267082  67.7214385
  84.3435639  48.1662439  66.7369540  85.0094726  49.6139924  68.3284347
  84.4043258  50.3427277  67.9779464  85.5934799  49.7789064  69.1358006
  84.4647253  46.2882061  69.9984757  84.1074100  47.3970405  70.3922449
  84.1792929  45.1043524  70.7114679  84.5892148  44.1826040  70.7608970
  82.9708319  45.3657791  71.4842241  82.3522990  46.1075433  70.9789497
  82.1399009  44.0831967  71.6806644  81.2742111  44.3150804  72.3010767
  81.6707077  43.5357549  70.3394254  82.5359135  43.3031880  69.7185943
  81.0858292  42.6301869  70.5005559  81.0540496  44.2814687  69.8376841
  82.9254171  43.0936354  72.3558456  82.4028962  42.2972215  72.4754170
  83.3009990  45.9617488  72.8502380  82.4257993  46.0978534  73.7041501
  84.5681044  46.3106991  73.0531434  85.2603205  46.0553634  72.3634045
  85.0106129  47.0183256  74.2458739  84.2299540  46.9855508  75.0058717
  86.2806655  46.3898197  74.8222450  87.0843275  46.4830522  74.0918099
  86.6851349  47.0877145  76.1128903  85.8821017  46.9945008  76.8440186
  87.5904875  46.6265739  76.5075866  86.8728959  48.1425949  75.9127061
  86.0506536  45.0009810  75.0895571  86.8485647  44.6082905  75.4511264
  85.2607732  48.4758372  73.8854271  86.0017549  48.7670036  72.9404821
  84.6436779  49.3848311  74.6346624  84.0784725  49.0782429  75.4135371
  84.7174966  50.8103310  74.3551593  85.4984321  50.9960771  73.6177739
  83.3877777  51.3352046  73.8030014  82.6308035  51.0907896  74.5482199
  83.4714221  52.4182153  73.7124951  82.9891392  50.7481912  72.4696442
  83.7191494  51.0197334  71.3222750  84.5956626  51.6636551  71.3943088
  83.3511952  50.4885001  70.1021389  83.9354131  50.7043283  69.2075946
  82.2379321  49.6825796  70.0194699  81.8666973  49.1515495  68.8077716
  82.4521310  49.4069887  68.0911003  81.4946196  49.4041472  71.1432261
  80.6134114  48.7659986  71.0773544  81.8699844  49.9372577  72.3570727
  81.2835819  49.7238726  73.2507723  85.0865020  51.5543453  75.6316168
  85.2425527  50.9621959  76.7028989  85.2278917  52.8706977  75.5075871
  85.1840336  53.2820498  74.5861940  85.5214992  53.7394461  76.6378339
  85.1259697  53.2994431  77.5532862  87.0365005  53.9238621  76.7972072
  87.2195731  54.5756509  77.6514642  87.4880778  52.9490311  76.9812794
  87.6084837  54.4968497  75.6356559  88.5543701  54.6006754  75.7626164
  84.7882251  55.0594688  76.4182545  83.9284610  55.1758915  75.5410976
  85.1301786  56.0640525  77.2262616  85.8465900  55.9492590  77.9288828
  84.4427875  57.3481516  77.1427162  83.3715871  57.2091966  77.2887317
  84.9639833  58.2887384  78.2239038  84.9937514  57.7103166  79.1472896
  85.9768207  58.5794640  77.9450865  84.1251024  59.5261807  78.4325553
  82.7406941  59.4595158  78.4420078  82.2592563  58.4931262  78.2923135
  81.9761139  60.5858632  78.6358831  80.8881478  60.5201545  78.6465658
  82.5929887  61.8023283  78.8079267  81.8313465  62.9305286  79.0004109
  80.8881770  62.7516071  78.9961492  83.9655904  61.8957118  78.7976255
  84.4554813  62.8589209  78.9402283  84.7201575  60.7623410  78.6055963
  85.8080068  60.8284079  78.5877356  84.6242381  57.9863319  75.7722887
  83.6711528  58.5288398  75.1958386  85.8508340  57.9531713  75.2491396
  86.6138863  57.5234612  75.7523292  86.1369375  58.5833580  73.9668817
  86.0021566  59.6631777  74.0295141  87.5832086  58.2939891  73.5613851
  87.6621417  57.2490038  73.2615925  88.0083591  59.1848008  72.4073870
  87.9301300  60.2300041  72.7066025  89.0401524  58.9612964  72.1361907
  87.3603946  59.0034261  71.5498640  88.4485661  58.5229453  74.6789129
  89.3559320  58.3411089  74.4235250  85.1705261  58.0970417  72.8962564
  84.6034944  58.8962798  72.1436181  84.9743588  56.7812904  72.8126685
  85.4800350  56.1455858  73.4128939  84.0771151  56.2206024  71.8142214
  84.2333461  56.7119546  70.8538756  84.3475635  54.7272948  71.6478957
  84.5637789  54.3134040  72.6328041  83.4447107  54.2640816  71.2499128
  85.5100502  54.4487299  70.7171185  85.5356304  55.0215762  69.6090721
  86.3996649  53.6560516  71.0922821  82.6129057  56.4469138  72.1560707
  81.7505519  56.1532072  71.3230975  82.3099266  56.9492606  73.3534234
  82.9987122  57.0000274  74.0903741  80.9512190  57.3898625  73.6456848
  80.2326367  56.7441433  73.1409221  80.6919713  57.3258355  75.1528958
  80.8923834  56.3188001  75.5187018  81.3352170  58.0355354  75.6731468
  79.2746438  57.6556095  75.5511331  78.2400979  57.6065983  74.6344163
  78.4554409  57.3230585  73.6042064  76.9502765  57.9107332  75.0097225
  76.1453725  57.8650008  74.2761430  76.6777003  58.2713658  76.3068085
  75.6574557  58.5140085  76.6040044  77.6923159  58.3258925  77.2290357
  77.4777584  58.6109032  78.2590037  78.9827469  58.0202839  76.8530539
  79.7887465  58.0643369  77.5855318  80.7167982  58.8008188  73.1242603
  79.7086894  59.0691854  72.4582334  81.6440715  59.7162674  73.4100139
  82.4393996  59.5150421  73.9991327  81.4710557  61.0807410  72.9240125
  80.4706432  61.4351081  73.1724029  82.4959972  62.0185551  73.5673100
  82.0006200  62.9818959  73.6884506  82.7236988  61.6017567  74.5483967
  83.7854478  62.2071821  72.7858172  84.2617519  61.2349767  72.6591214
  83.5530224  62.6275925  71.8073819  84.7532571  63.1313914  73.4916113
  84.6949360  63.2950687  74.7085704  85.6475434  63.7478927  72.7286879
  86.3176102  64.3762288  73.1485756  85.6538342  63.5858204  71.7317955
  81.5653059  61.1308387  71.4048939  80.8316760  61.8870910  70.7600066
  82.4562936  60.3317364  70.8140214  83.0802699  59.7498532  71.3545443
  82.5901511  60.3263325  69.3614148  82.7410014  61.3415354  68.9943911
  83.7934189  59.4769490  68.9562193  84.6701878  59.9225556  69.4261240
  83.6306511  58.4794082  69.3642866  84.0168013  59.3801705  67.4595563
  83.1637830  58.8716992  67.0102040  84.0949507  60.3877422  67.0511519
  85.2877402  58.6079529  67.1483823  86.1379693  59.1777970  67.5231985
  85.2412295  57.6467113  67.6601936  85.4504459  58.3792068  65.6569038
  84.5816691  57.8260901  65.2999873  85.4889005  59.3511679  65.1650582
  86.6880711  57.6151395  65.3422992  86.6524442  56.7142941  65.7976101
  86.7584645  57.4848728  64.3432120  87.4932458  58.1277003  65.6725631
  81.3280460  59.8133156  68.6816926  81.0093565  60.2412777  67.5672459
  80.5994104  58.9019610  69.3269709  80.9175475  58.4916429  70.1933006
  79.3420317  58.4298434  68.7591500  79.4696765  58.2960709  67.6849476
  78.9606328  57.0868621  69.3759662  78.8204318  57.2065792  70.4502620
  78.0338148  56.7301922  68.9266384  79.7548860  56.3633535  69.1921283
  78.2218745  59.4411275  68.9646212  77.4047266  59.6632987  68.0595337
  78.1659171  60.0633987  70.1439639  78.7869485  59.8257856  70.9042003
  77.1262629  61.0576124  70.3852941  76.1407278  60.6677641  70.1306609
  77.1184556  61.4867921  71.8620124  78.1161030  61.8257373  72.1411451
  76.1243617  62.6129790  72.0741478  75.1263389  62.2746168  71.7956472
  76.1276745  62.9084114  73.1233423  76.4038107  63.4662129  71.4560848
  76.7715326  60.3078441  72.7471203  77.5110118  59.5190670  72.6089054
  76.7691700  60.6242276  73.7901905  75.7843754  59.9305234  72.4801923
  77.3081589  62.2501080  69.4593993  76.3261654  62.8694004  69.0312780
  78.5560382  62.5963778  69.1372218  79.3517349  62.1372013  69.5568919
  78.8015622  63.6948266  68.2089383  78.3651212  64.6155966  68.5959799
  80.3048540  63.9037672  68.0319198  80.8019374  62.9395688  68.1383564
  80.4915195  64.2999696  67.0337817  80.8867170  64.8639873  69.0510105
  82.0464435  65.2620319  68.9552296  80.0826443  65.2363343  70.0384125
  80.4182922  65.8747519  70.7454226  79.1385697  64.8796648  70.0785490
  78.1356799  63.4300675  66.8654840  77.4177775  64.2866463  66.3371225
  78.3616478  62.2438954  66.2954600  78.9855406  61.5665131  66.7102014
  77.7511825  61.9254000  65.0096892  77.9626062  62.7194432  64.2935225
  78.3108436  60.6128534  64.4628238  78.2103937  59.8657953  65.2501695
  77.6928548  60.3279243  63.6113513  79.7608176  60.6970972  64.0286771
  79.8642278  61.5212327  63.3228387  80.3752114  60.8928174  64.9074921
  80.2165715  59.4064538  63.3698941  80.0338863  58.5813012  64.0582605
  79.6347826  59.2559015  62.4605233  81.6931121  59.4577420  63.0227195
  82.2576846  59.5774710  63.9473943  81.9661760  58.5140537  62.5505038
  82.0079105  60.5837182  62.0998492  81.7553563  61.4582849  62.5373982
  82.9966301  60.5835934  61.8936128  81.4851908  60.4727353  61.2427926
  76.2365840  61.8470360  65.1210959  75.5192925  62.2961553  64.2180821
  75.7242955  61.2750109  66.2130367  76.3024986  60.8577680  66.9283611
  74.2760754  61.1891951  66.3576606  73.8508572  60.6538848  65.5087015
  73.9111544  60.4416050  67.6384103  74.2611817  59.4226634  67.4730682
  74.4542011  60.8804451  68.4754406  72.4130688  60.4211227  67.9566745
  72.0726395  61.4450062  68.1111783  71.6263142  59.7922069  66.8174718
  71.9658868  58.7680852  66.6626682  70.5651486  59.7888639  67.0665045
  71.7831517  60.3682167  65.9054877  72.1503965  59.6799551  69.2520180
  72.6766665  60.1754366  70.0678841  71.0802632  59.6773431  69.4591634
  72.5050480  58.6531961  69.1620892  73.6531228  62.5789801  66.3518531
  72.6623526  62.8275573  65.6558303  74.2340205  63.5080406  67.1139045
  75.0023310  63.2786610  67.7280570  73.7326456  64.8783089  67.1153051
  72.6726697  64.8876071  67.3692023  74.4893563  65.7118744  68.1480657
  75.5380652  65.4996097  67.9400929  74.2831389  66.7614702  67.9384879
  74.1931024  65.4191147  69.6146329  74.2438242  64.3436227  69.7844717
  75.2100511  66.1182457  70.4960575  75.1596008  67.1938889  70.3271041
  74.9923893  65.9047518  71.5425491  76.2101294  65.7593074  70.2529382
  72.7843399  65.8594063  69.9689782  72.0679591  65.3210385  69.3484477
  72.5889588  65.6433162  71.0193270  72.6830359  66.9304854  69.7939753
  73.8600114  65.5059742  65.7338203  72.9234637  66.1425949  65.2378580
  75.0203577  65.3370456  65.0947918  75.7767807  64.8130743  65.5111781
  75.2432202  65.9578604  63.7951632  75.1498785  67.0417344  63.8630134
  76.6468065  65.6187942  63.2908325  76.7357045  64.5361762  63.2006338
  76.9060377  66.2623985  61.9387831  76.8177668  67.3451245  62.0282951
  77.9103324  66.0069648  61.6007817  76.1762100  65.8973895  61.2161348
  77.6230428  66.0823941  64.2319030  78.5025616  65.8680330  63.9123780
  74.1951454  65.5129685  62.7869567  73.7270630  66.3152140  61.9719806
  73.8127224  64.2390941  62.8258479  74.2152799  63.6113777  63.5070372
  72.8639621  63.6969422  61.8633375  72.9386851  64.3066493  60.9629082
  73.2448856  62.2556553  61.5115203  73.1660947  61.6309624  62.4012679
  72.5707004  61.8784985  60.7425422  74.2693180  62.2304038  61.1400372
  71.4153164  63.7312825  62.3360335  70.5285235  63.3454164  61.5680708
  71.1394290  64.1798011  63.5627556  71.8800310  64.5141072  64.1626285
  69.7832394  64.1348911  64.0978396  69.1252470  63.5983669  63.4142558
  69.7875600  63.4066762  65.4459559  70.3295010  64.0133448  66.1714573
  68.7577299  63.2768728  65.7786735  70.4093115  62.1404841  65.3320581
  70.4013042  61.7020936  66.1860778  69.1531188  65.5137628  64.2499768
  68.0849265  65.7630301  63.6853707  69.7729477  66.4158992  65.0037546
  70.6578160  66.2023457  65.4413643  69.1643783  67.7188396  65.2699179
  68.2308809  67.5806169  65.8154234  70.0947511  68.5981804  66.1078912
  71.0910574  68.2324835  65.8594182  69.9979981  69.6349500  65.7856372
  69.8830390  68.5128123  67.6216541  68.8152195  68.5724949  67.8321309
  70.4341329  67.2082427  68.1685935  71.5020748  67.1480446  67.9588913
  70.2731217  67.1684702  69.2459023  69.9234416  66.3702201  67.6942381
  70.5117231  69.7057089  68.3249435  70.0559620  70.6256549  67.9587733
  70.3480555  69.6223952  69.3993610  71.5823853  69.7252699  68.1214766
  68.8034839  68.4322380  63.9713657  67.9268839  68.9055891  63.8841408
  69.4480904  68.4242335  63.2072260  83.2463970  55.4489133  81.7986653
  28.3525882  60.4405132  77.4284053  29.2218826  59.9950089  77.1715901
  27.5966018  59.7877524  77.2784442  28.4677136  60.8814936  78.3297277
  28.1099300  61.5318534  76.4940635  27.1754570  61.3620081  75.9592627
  28.0236536  62.8884200  77.2165768  27.7406050  63.6551650  76.4954070
  26.9925529  62.8373318  78.3322364  27.2751900  62.0710779  79.0540888
  26.9470609  63.8058327  78.8302682  26.0149597  62.5983954  77.9135223
  29.3044416  63.2238779  77.7646717  29.2482575  64.0700195  78.2146584
  29.2125887  61.5924353  75.4429742  30.0297723  60.6791950  75.3349375
  29.2276406  62.6767446  74.6647032  28.5416842  63.4099811  74.7739157
  30.2055976  62.7992761  73.5894738  30.2536664  61.8722242  73.0181917
  29.7999543  63.9332877  72.6473850  29.5791204  64.8211663  73.2398402
  30.6322201  64.1431850  71.9755393  28.5797821  63.5904309  71.8148978
  28.6633579  62.8296573  70.8515767  27.4343083  64.1515694  72.1860977
  26.5894699  63.9583944  71.6674154  27.4135292  64.7687877  72.9852915
  31.6084968  63.0353759  74.1358845  32.5751644  62.4317568  73.6575503
  31.7419444  63.9116249  75.1334001  30.9485844  64.4209946  75.4956456
  33.0631475  64.2096695  75.6781989  33.7507615  64.4660191  74.8722392
  32.9760598  65.3929055  76.6404138  32.1901790  65.1704127  77.3622085
  33.9331303  65.4655965  77.1569718  32.6711571  66.7135437  75.9504754
  33.3400824  66.8219198  75.0967222  31.6385385  66.6933871  75.6020581
  32.8515492  67.9116211  76.8626174  32.9131296  67.7736700  78.0834431
  32.9370868  69.0978506  76.2704782  33.0577794  69.9303560  76.8294678
  32.8810300  69.1616838  75.2640566  33.6652731  62.9911263  76.3677049
  34.8713740  62.7383238  76.2563208  32.8428936  62.2271011  77.0910287
  31.8845428  62.4986397  77.2581515  33.3309820  60.9989964  77.7073902
  34.1762947  61.2185638  78.3595680  32.2235344  60.3575541  78.5425786
  31.3443468  60.4133769  77.9006968  32.4841953  59.3126315  78.7107830
  31.9193838  61.0287815  79.8826055  31.9820344  62.1098856  79.7585499
  30.5272348  60.6542614  80.3656594  30.4639535  59.5732739  80.4904000
  30.3299635  61.1418203  81.3203694  29.7883274  60.9788120  79.6330046
  32.9663830  60.6459942  80.9147041  33.9498907  60.9671598  80.5716814
  32.7366574  61.1312752  81.8632976  32.9648750  59.5645129  81.0507002
  33.8340366  60.0226869  76.6528070  34.8939034  59.4076984  76.8176600
  33.0849390  59.8691600  75.5585186  32.1866644  60.3227172  75.4719856
  33.5234123  58.9915943  74.4789373  33.7109479  57.9892442  74.8639360
  32.4402585  58.9072258  73.4045623  31.5094355  58.6453596  73.9076467
  32.3477270  59.8999149  72.9639873  32.7272551  57.8919132  72.3096969
  33.5825007  58.2360423  71.7281206  32.9655180  56.9348426  72.7737535
  31.5505545  57.6965645  71.3722830  30.4729373  58.2502443  71.5885996
  31.7531988  56.9064122  70.3244125  31.0037208  56.7414175  69.6677840
  32.6558705  56.4740748  70.1888780  34.8343427  59.4796253  73.8777826
  35.7285882  58.6763973  73.5830221  34.9605284  60.7915951  73.6741123
  34.1967362  61.4252605  73.8616994  36.1926385  61.3392453  73.1160147
  36.4120915  60.8668404  72.1585319  36.0407794  62.8456179  72.8946074
  35.2898503  62.9837439  72.1167090  35.6799116  63.2775626  73.8280410
  37.3241102  63.5334299  72.4840094  37.7591274  63.5096427  71.1670711
  37.1596332  62.9856811  70.4226449  38.9322268  64.1366089  70.7927063
  39.2639022  64.1108960  69.7547120  39.6850276  64.7969300  71.7410089
  40.8539139  65.4232169  71.3791256  41.0507631  65.3383971  70.4433608
  39.2724625  64.8345185  73.0540189  39.8660618  65.3577282  73.8036801
  38.1006309  64.2051415  73.4185055  37.7690002  64.2294657  74.4565467
  37.3763248  61.0469128  74.0267602  38.4419474  60.6233933  73.5645506
  37.2063933  61.2608716  75.3323244  36.3551188  61.6651699  75.6956067
  38.2853867  60.9656072  76.2674998  39.1884873  61.5018068  75.9759549
  37.8921776  61.4022455  77.6777443  36.9131387  60.9486459  77.8321124
  38.6047485  60.9765157  78.3842121  37.7948616  62.9110991  77.8997520
  37.2239180  63.3537950  77.0835753  37.1056438  63.2102927  79.2199031
  37.6762932  62.7682785  80.0366537  37.0446889  64.2892438  79.3622050
  36.1006753  62.7883557  79.2095140  39.1713353  63.5500745  77.8573189
  39.6279598  63.3663100  76.8847840  39.0789264  64.6242590  78.0175982
  39.7968071  63.1190785  78.6390646  38.6351162  59.4846959  76.2463045
  39.8145728  59.1157232  76.2488351  37.6191936  58.6202307  76.2207873
  36.6621377  58.9428480  76.2129554  37.8640056  57.1836848  76.2656982
  38.5094759  56.9397222  77.1094692  36.5416549  56.4363529  76.4305060
  36.2163990  56.7133793  77.4332843  35.8366842  56.8305492  75.6985732
  36.5965345  54.9104594  76.3154272  36.9296236  54.6464740  75.3117021
  37.5550399  54.3224245  77.3379703  37.2223253  54.5856159  78.3420271
  37.5758236  53.2374614  77.2353841  38.5553415  54.7218881  77.1708599
  35.2069523  54.3140597  76.4796161  34.5494375  54.7041999  75.7027221
  35.2644430  53.2288672  76.3950385  34.8097702  54.5811182  77.4589144
  38.5948739  56.6995800  75.0194057  39.4891246  55.8510156  75.1106745
  38.2284532  57.2162337  73.8475261  37.5831084  57.9924530  73.8141627
  38.6932943  56.6497909  72.5881944  39.0838718  55.6449870  72.7491836
  37.5273467  56.5690809  71.5954330  37.1042365  57.5698477  71.5085834
  37.9397326  56.2647820  70.6334350  36.4396804  55.5943893  72.0105563
  36.8950239  54.6166262  72.1678535  36.0012172  55.9449660  72.9448732
  35.3564155  55.4833385  70.9543206  34.9287142  56.4700777  70.7767924
  35.7959880  55.1069067  70.0306461  34.2895960  54.5790669  71.3663728
  33.4589853  54.9991612  71.7584264  34.3404469  53.2582062  71.2592505
  35.4003765  52.6443397  70.7586407  36.1941786  53.1861794  70.4481765
  35.4107155  51.6367758  70.6893029  33.3008815  52.5345328  71.6660558
  32.4881802  52.9951139  72.0500892  33.3291348  51.5278738  71.5889965
  39.8405834  57.4210634  71.9468173  40.4239940  56.9237345  70.9781960
  40.1793025  58.6094332  72.4457447  39.6677182  59.0042067  73.2219758
  41.2513789  59.3996870  71.8505168  41.7862849  58.8466941  71.0783941
  40.6997755  60.6976061  71.2332602  40.2297100  61.2915854  72.0170498
  41.8240422  61.5021196  70.5918498  42.2943183  60.9089252  69.8075911
  41.4167781  62.4164572  70.1603138  42.5662704  61.7571955  71.3482460
  39.6108664  60.3816406  70.2178062  38.7970967  59.8496311  70.7106010
  39.2313247  61.3098379  69.7906088  40.0232685  59.7588550  69.4239779
  42.3130366  59.7098356  72.8969955  43.4661265  59.2834271  72.7730906
  41.9303058  60.4504633  73.9377854  40.9799398  60.7814478  74.0235362
  42.9020257  60.8695441  74.9422882  43.8043534  61.2827889  74.4915858
  42.2896732  61.9283631  75.8766584  41.4965260  61.4674275  76.4653477
  43.3524545  62.4892280  76.8094528  44.1457681  62.9507689  76.2214609
  42.9042582  63.2367022  77.4640542  43.7699267  61.6826538  77.4121605
  41.6413285  63.0414330  75.0676653  40.8530781  62.6241130  74.4410814
  41.2135357  63.7812394  75.7442592  42.3921161  63.5176917  74.4371127
  43.4069531  59.6646994  75.7243947  44.6138613  59.5003215  75.9359262
  42.4873258  58.8075956  76.1722749  41.5016570  58.9697130  76.0230293
  42.8859353  57.6388828  76.9468992  43.4794399  57.9448972  77.8084134
  41.6447094  56.8984048  77.4467187  41.1439404  57.6585420  78.0463194
  41.0244692  56.6485413  76.5859223  41.8679027  55.6429324  78.2967351
  40.9732270  55.4669255  78.8939601  42.1474955  54.4196554  77.4268052
  43.0423558  54.5947423  76.8295880  42.3007591  53.5480287  78.0631054
  41.2992495  54.2416865  76.7658164  42.9915947  55.8567780  79.3013870
  42.7360441  56.6850343  79.9622840  43.1292565  54.9508106  79.8916188
  43.9151564  56.0878143  78.7705810  43.7680410  56.7155852  76.1186521
  44.8017202  56.2346316  76.5950638  43.3774037  56.4574111  74.8685459
  42.5038131  56.8107530  74.5051065  44.1870676  55.6006343  74.0104130
  44.3561654  54.6399225  74.4967647  43.4703905  55.3564855  72.6827416
  43.3375484  56.3284329  72.2075885  44.1304401  54.7410017  72.0715016
  42.1222612  54.6714726  72.8186046  41.5125089  55.2483561  73.5139523
  41.6430443  54.6593859  71.8396730  42.2637986  53.2482811  73.3302831
  42.9448444  52.7080896  72.6726595  42.6804958  53.2801722  74.3369836
  40.9211132  52.5391963  73.3607568  40.2486842  53.1119599  73.9994129
  40.5255530  52.5166095  72.3453155  41.0337254  51.1487150  73.8800750
  41.3998381  51.1694476  74.8211548  40.1213066  50.7156076  73.8832358
  41.6564358  50.6176907  73.2881764  45.5606436  56.2093935  73.7663427
  46.5721462  55.4980469  73.7632491  45.6192528  57.5261830  73.5622368
  44.7828064  58.0913729  73.5303431  46.9018170  58.1754563  73.3193743
  47.4296566  57.6841527  72.5019972  46.6866477  59.6428567  72.9497307
  46.2314199  60.1574998  73.7959047  48.0120269  60.3086544  72.6043654
  48.4676605  59.7948115  71.7579240  47.8378029  61.3526673  72.3440153
  48.6806010  60.2557014  73.4636124  45.8038489  59.7300509  71.8239735
  45.6697818  60.6521910  71.5931402  47.8095431  58.0594700  74.5363436
  48.9894134  57.7124395  74.4144219  47.2747234  58.3454031  75.7242586
  46.3042996  58.6102268  75.8150627  48.1046147  58.3437744  76.9205378
  49.0767254  58.7844015  76.6992964  47.4376719  59.1619256  78.0272039
  46.3743405  59.1365574  77.7889142  47.6047219  58.6836101  78.9922991
  47.9111872  60.6148416  78.0899361  48.9994098  60.6326737  78.1495557
  47.4598518  61.3702920  76.8519154  46.3716410  61.3532895  76.7918574
  47.8039146  62.4029220  76.9101976  47.8796527  60.8975589  75.9640016
  47.4109145  61.2983481  79.3505693  47.7897302  60.7702205  80.2256004
  47.7624077  62.3299542  79.3690808  46.3210552  61.2861110  79.3630553
  48.4003328  56.9407526  77.4281534  49.3233394  56.7712785  78.2309132
  47.6459668  55.9343767  76.9846237  46.8732160  56.0966146  76.3548346
  47.8892524  54.5747113  77.4421289  48.0990333  54.5723401  78.5117482
  46.6566625  53.7075708  77.1840538  45.7641370  54.1771859  77.5975258
  46.5224313  53.5529523  76.1134582  46.7516487  52.3533849  77.8021898
  47.1642952  51.2027911  77.1986503  47.4553295  51.2727280  76.1505532
  47.1191118  50.1599988  78.0900692  47.3775272  49.2040583  77.8913265
  46.6713153  50.6282390  79.2962903  46.4635517  49.9586988  80.4967732
  46.6757212  48.8904679  80.5411078  46.0017231  50.6911308  81.5551236
  45.8216768  50.1992662  82.5110277  45.7534495  52.0623058  81.4409909
  45.3879323  52.6365173  82.2923298  45.9624608  52.7292018  80.2518417
  45.7535623  53.7983330  80.2141494  46.4306909  52.0062158  79.1520209
  49.1023795  53.9472869  76.7718467  49.6304415  52.9524993  77.2809224
  49.5545380  54.5055824  75.6482058  49.1140724  55.3486491  75.3086063
  50.6284428  53.9234889  74.8600074  50.8853297  52.9368084  75.2454550
  50.1790455  53.7777100  73.3975699  49.1647493  53.3792555  73.4207318
  50.1648208  54.7817793  72.9736094  51.0574822  52.8781957  72.5407764
  52.1006104  53.0740657  72.7890092  50.8186788  51.8397861  72.7705163
  50.8324829  53.1341309  71.0557709  51.1754771  54.1433266  70.8277843
  51.4248468  52.4135529  70.4918809  49.3662654  52.9976551  70.6700706
  49.0169474  52.0175586  70.9948603  48.8026761  53.7736660  71.1880217
  49.1642676  53.1344643  69.2022092  49.6860757  52.4152208  68.7220998
  48.1821307  53.0382869  68.9871351  49.4874962  54.0427405  68.9011168
  51.9140189  54.7349450  74.9114095  52.9554725  54.2419092  74.4680235
  51.8725129  55.9522710  75.4466885  51.0136444  56.3165559  75.8336520
  53.0487710  56.8089318  75.4503506  53.3720931  57.0025879  74.4275802
  52.7243841  58.1436705  76.1211053  51.7769522  58.5336635  75.7491141
  52.6615088  58.0065703  77.2006192  53.7486325  59.2087888  75.8837042
  54.8369744  59.3925568  76.7089411  55.5622985  60.4008778  76.2591457
  56.4718127  60.7048787  76.7772832  54.9834427  60.8784866  75.1731895
  55.3147963  61.6519236  74.6145305  53.8460394  60.1516387  74.9169845
  53.2248119  60.3971908  74.0556590  54.2014109  56.1201293  76.1707237
  54.0014855  55.2813954  77.0517006  55.4250132  56.4837256  75.7844102
  55.5556725  57.1967955  75.0811615  56.6053457  55.8241528  76.3268824
  56.4945830  54.7422280  76.2542904  57.8474109  56.2417709  75.5404155
  57.9380526  57.3242213  75.6308827  58.7052723  55.7649623  76.0145752
  57.8036721  55.8586042  74.0707545  57.2981839  54.8975639  73.9759709
  57.2428077  56.6187401  73.5269472  59.1840125  55.7425491  73.4556644
  60.1961395  55.8662357  74.1448664  59.2299861  55.5048612  72.1507112
  60.1232866  55.4178960  71.6875129  58.3714599  55.4120406  71.6268616
  56.8183263  56.1215693  77.8032565  57.6649283  55.4767835  78.4297719
  56.0858232  57.0814014  78.3685638  55.4760405  57.6355204  77.7844263
  56.1649003  57.4043959  79.7852672  57.0101765  56.8875446  80.2396592
  56.3571165  58.9109158  79.9686785  55.5959839  59.4479201  79.4026373
  56.2789046  59.1752238  81.0232515  57.6903675  59.4251211  79.4933757
  58.7875769  58.5878691  79.3878558  58.6832006  57.5353830  79.6514438
  60.0023878  59.0723413  78.9549193  60.8578341  58.4016671  78.8742439
  60.1364734  60.4008467  78.6246229  61.0977358  60.7839777  78.2821538
  59.0573676  61.2451284  78.7267016  59.1613044  62.2983950  78.4660739
  57.8431662  60.7591823  79.1589625  56.9865209  61.4281137  79.2413606
  54.9266017  56.9421008  80.5467787  54.6915973  57.3907656  81.6724189
  54.1268567  56.0546830  79.9537975  54.3708114  55.6402687  79.0656274
  52.8442703  55.7035434  80.5512998  52.4329702  56.5960485  81.0228567
  51.8752193  55.2336749  79.4660971  52.2690112  54.3352561  78.9908374
  50.9066268  55.0122129  79.9142972  51.7581664  56.0180921  78.7183755
  52.9744217  54.6307170  81.6234910  52.2252336  54.6542307  82.6057869
  53.9050466  53.6928650  81.4613123  54.5971364  53.7568307  80.7284963
  53.8671367  52.4803676  82.2736029  52.9206005  51.9603692  82.1260562
  55.0116029  51.5414010  81.8657158  54.9006992  50.5973859  82.3992278
  54.9703878  51.3583445  80.7919878  56.3847957  52.0391568  82.1609219
  57.2230879  52.6788393  81.2983979  56.8523048  52.8501388  80.2878157
  58.4066441  52.9801860  81.9249429  59.1915732  53.4556388  81.5031248
  58.3497435  52.5319460  83.2169167  59.2961450  52.6039716  84.2333224
  60.2525173  53.0821630  84.0217010  58.9628011  52.0655087  85.4430954
  59.6791763  52.1035729  86.2637400  57.7184005  51.4631543  85.6565273
  57.4637517  51.0358993  86.6264277  56.7769981  51.3910804  84.6491773
  55.8216819  50.9134608  84.8667805  57.0892455  51.9328237  83.4013757
  53.8805531  52.7444646  83.7758209  53.1268167  52.0647675  84.4940564
  54.6750483  53.6743727  84.3172655  55.4384653  54.7555725  83.6747849
  54.7747527  55.5856472  83.4327891  55.9068920  54.3875736  82.7619584
  56.4360825  55.1078281  84.7226088  56.7833756  56.1311296  84.5799884
  57.2854884  54.4264176  84.6747490  55.7069357  54.9566929  86.0077365
  55.1723371  55.8767304  86.2440291  56.3783676  54.7060714  86.8289964
  54.7052089  53.8138423  85.7822991  55.0693625  52.8722907  86.1933598
  53.3519613  54.1388368  86.3864196  53.0793765  53.7367534  87.5237360
  52.4959361  54.8536805  85.6622309  52.7590607  55.1368680  84.7291341
  51.2079703  55.2924810  86.1791306  51.2352258  55.3272783  87.2682337
  50.8804354  56.6921601  85.6530620  50.7018405  56.6612796  84.5782367
  49.9929631  57.0743287  86.1574827  51.9708159  57.7005694  85.8787545
  53.0678316  57.7563699  85.0372536  53.1366286  57.0561616  84.2047422
  54.0676950  58.6845291  85.2423652  54.9285789  58.7145832  84.5744758
  53.9783215  59.5720229  86.2896231  54.7654845  60.3084463  86.4513475
  52.8931153  59.5288862  87.1333961  52.8220715  60.2292423  87.9655945
  51.8941699  58.5991350  86.9266649  51.0324680  58.5676421  87.5934317
  50.0706614  54.3433451  85.8247316  48.9065603  54.6765699  86.0679576
  50.3707603  53.1773226  85.2583942  51.3365894  52.9205809  85.1122527
  49.3352128  52.2733875  84.7758410  48.4825048  52.8449342  84.4093406
  49.8784234  51.4154684  83.6294906  50.8860366  51.1065775  83.9077015
  49.2377610  50.5369506  83.5529517  49.9200208  52.1302175  82.2885300
  48.9149525  52.4663811  82.0337111  50.5793952  52.9934775  82.3785827
  50.4319432  51.2445811  81.1714509  51.0562441  50.2142030  81.4187225
  50.1625403  51.6390779  79.9332144  50.4801106  51.0861328  79.1499506
  49.6411916  52.4904199  79.7798730  48.7683036  51.3690441  85.8640261
  47.9994257  50.4559556  85.5428559  49.1155134  51.5878893  87.1281784
  49.7494779  52.3397127  87.3582869  48.6342407  50.7373710  88.2058171
  47.6038878  50.4448900  88.0035131  49.4892456  49.4655306  88.3383559
  48.9536529  48.7949536  89.0103426  49.5431416  49.0178020  87.3460181
  50.9012219  49.6961692  88.8693463  50.8503912  50.3621865  89.7307046
  51.3156440  48.7361177  89.1770109  51.8197747  50.3104956  87.8370451
  51.4137577  50.5725168  86.7053207  53.0664099  50.5501781  88.2228235
  53.7227891  50.9597653  87.5735885  53.3532730  50.3219439  89.1639506
  48.6601072  51.5362790  89.4999481  49.3616331  52.5505302  89.5914950
  47.9125251  51.1084858  90.5149471  46.9640464  49.9819432  90.5358280
  47.5074953  49.0474856  90.6756584  46.4166680  49.9458675  89.5939286
  46.0798715  50.3119225  91.6973065  45.6778280  49.3954950  92.1293029
  45.2586212  50.9488470  91.3687089  46.9563242  51.0308278  92.6648988
  47.5010139  50.2879004  93.2475401  46.4269109  51.7038886  93.3392951
  47.9331124  51.8268578  91.7920167  47.6016243  52.8511045  91.6213344
  49.3293821  51.8403760  92.3916953  50.1246582  50.9204754  92.1925779
  49.6246550  52.9034147  93.1336877  48.9494824  53.6455557  93.2497393
  50.9344819  53.0580397  93.7531283  51.7371156  52.7752870  93.0720048
  51.1693355  54.5059841  94.2152599  50.4075443  54.7719983  94.9480695
  52.5480063  54.6487329  94.8427912  53.3103972  54.3833148  94.1103880
  52.6966539  55.6797098  95.1638689  52.6260642  53.9855831  95.7043253
  51.0062414  55.4602678  93.0507463  49.9969439  55.3740379  92.6482725
  51.1750492  56.4819028  93.3911366  51.7291734  55.2126990  92.2734563
  51.0264261  52.0882371  94.9228250  50.5106542  52.3602786  96.0116986
  51.6851598  50.9510732  94.7073740  52.0467328  50.7521288  93.7855359
  51.8597262  49.9433666  95.7530753  50.9430026  49.8548766  96.3360732
  52.1801348  48.5861668  95.1410460  51.4923807  48.4197950  94.3119417
  53.2017547  48.6241455  94.7629582  52.0527028  47.4522508  96.1377865
  51.7634780  47.7291596  97.3212629  52.2393238  46.2849039  95.7368939
  52.9674388  50.4152273  96.6852160  54.1348036  50.0514512  96.5411765
  52.5849782  51.2375368  97.6650058  51.6101952  51.4599981  97.8078639
  53.5747040  51.8872198  98.5172444  54.2356312  52.4875280  97.8920208
  52.8789047  52.8083487  99.5168222  52.2203749  52.2203498 100.1561154
  53.6267877  53.3105268 100.1304902  52.2921749  53.5526164  98.9783867
  54.4384917  50.8690435  99.2470129  55.6522861  51.0596802  99.3845293
  53.8322707  49.7818761  99.7275929  52.8358113  49.6506085  99.6279085
  54.5901452  48.7868500 100.4844813  55.0783033  49.2187102 101.3581504
  53.6622533  47.6512156 100.9507862  53.1101797  47.2698732 100.0917798
  54.4708473  46.5225684 101.5757127  55.0228727  46.9030665 102.4351254
  53.7977179  45.7287011 101.8993975  55.1716486  46.1267919 100.8406344
  52.6300514  48.1808315 101.9339974  52.0309557  48.9532466 101.4517513
  51.9812184  47.3657824 102.2546380  53.1370887  48.6036160 102.8013307
  55.7459683  48.2552154  99.6468027  56.8990355  48.2274853 100.0948431
  55.4582094  47.8297529  98.4163095  54.5068062  47.7716474  98.0823109
  56.5284184  47.3707278  97.5383808  57.1556616  46.6503819  98.0635159
  55.9445633  46.6968638  96.2984141  55.1529965  47.3443589  95.9212255
  56.7432676  46.6320834  95.5595128  55.3831557  45.3112218  96.5587517
  56.1373028  44.7246407  97.0834284  54.4975083  45.4084180  97.1866719
  55.0102347  44.6126091  95.2626127  54.2646410  45.2169652  94.7459479
  55.9038361  44.5316006  94.6437318  54.4470182  43.2269761  95.5212988
  55.2030930  42.6459729  96.0493959  53.5638982  43.3313392  96.1516214
  54.0762230  42.5283060  94.2597644  54.8944921  42.4311161  93.6757357
  53.7073522  41.6136142  94.4774183  53.3753252  43.0662992  93.7704744
  57.4436058  48.5198020  97.1393438  58.6641763  48.3444547  97.0452317
  56.8785644  49.7026047  96.9061102  55.8824675  49.8182915  97.0265549
  57.6513117  50.8365398  96.4189903  58.4230562  50.4960420  95.7286491
  56.7313913  51.8126727  95.6814457  56.0005249  52.1098427  96.4335252
  57.3130819  52.6827887  95.3770869  56.0043924  51.2339996  94.4643590
  55.5918308  50.2607638  94.7302649  54.8815556  52.1552352  94.0201917
  55.2934264  53.1285919  93.7536623  54.3786422  51.7246421  93.1543000
  54.1656179  52.2745622  94.8333919  56.9793803  50.9898016  93.3249838
  57.7454810  50.2842745  93.6465749  56.4435992  50.5785850  92.4694484
  57.4495265  51.9311049  93.0403618  58.3954591  51.5739645  97.5243189
  59.1475027  52.5058145  97.2210304  58.2126720  51.1886838  98.7874012
  57.5254215  50.4776977  98.9930341  58.9174261  51.8149046  99.9043860
  58.5318703  51.4264845 100.8470290  60.4178685  51.5182607  99.8300428
  60.5556624  50.4415287  99.7312489  60.8336059  52.0189772  98.9556599
  61.1654744  51.9911262 101.0597035  60.6207616  52.0086689 102.1625323
  62.4204586  52.3809913 100.8752938  62.9657252  52.7058955 101.6609282
  62.8245849  52.3510179  99.9501537  58.6560265  53.3221975  99.9373643
  59.5645672  54.1441988  99.8017419  57.3832523  53.6740808 100.1247331
  56.6866710  52.9466022 100.1998908  56.9402578  55.0668183 100.1815941
  57.7997731  55.7296394 100.0815898  55.9572293  55.3686072  99.0523513
  55.0987945  54.7334663  99.2709492  55.6581520  56.4152049  99.1096757
  56.4726914  55.0621581  97.6445514  56.8911729  54.0557482  97.6339054
  55.3473366  55.1531553  96.6276478  54.9286341  56.1594814  96.6373855
  55.7362317  54.9315959  95.6337802  54.5687164  54.4337586  96.8812606
  57.6101971  55.9977083  97.2739253  58.4286827  55.8741360  97.9830871
  57.9619386  55.7627252  96.2693547  57.2575253  57.0286685  97.3029558
  56.3044227  55.3110019 101.5440911  55.0841717  55.1541296 101.7074788
  57.0917351  55.6972243 102.5560241  58.5027812  56.1218398 102.4987722
  58.6283114  56.8524733 101.6996995  59.1333549  55.2551855 102.3003130
  58.7470065  56.7081307 103.8601664  58.5722228  57.7835967 103.8297951
  59.7774463  56.5163260 104.1593423  57.7936446  56.0290570 104.7758438
  57.5436440  56.6788964 105.6144780  58.1794995  55.0820272 105.1531371
  56.5464683  55.7814880 103.9183562  56.0815199  54.8220021 104.1448690
  55.5245991  56.8927331 104.0936233  54.4158140  56.6536434 104.5813127
  55.8848036  58.1116028 103.6973250  56.7835903  58.2461559 103.2566696
  55.0462919  59.2801298 103.9263859  54.4479342  59.1404701 104.8266983
  55.9217206  60.5242970 104.1084561  56.5055290  60.6609766 103.1981893
  55.2609904  61.3799651 104.2476242  56.8572931  60.4101793 105.2961493
  56.7149888  59.4445597 106.0751810  57.7349064  61.2846031 105.4489786
  54.0468373  59.5259969 102.8051394  53.2679847  60.4821867 102.8895949
  54.0467036  58.6953744 101.7617693  54.6736090  57.9047603 101.7168434
  53.1784947  58.9551061 100.6191613  53.3684260  59.9535520 100.2252944
  53.4480679  57.9355385  99.5148982  54.4890890  58.0453820  99.2110747
  53.2984172  56.9456072  99.9458746  52.5527076  58.1003233  98.3106876
  52.7324041  59.1531354  97.4270027  53.5354441  59.8660732  97.6139406
  51.9147469  59.3074001  96.3247214  52.0629657  60.1425004  95.6400752
  50.9038237  58.3967347  96.0936743  50.0855331  58.5406375  94.9956627
  50.3068973  59.3063872  94.4606627  50.7089962  57.3414538  96.9557731
  49.9115852  56.6208745  96.7741097  51.5309118  57.1987701  98.0558759
  51.3822834  56.3656489  98.7428394  51.7105387  58.9357804 101.0212878
  50.9324399  59.7974920 100.5976308  51.3118267  57.9646019 101.8401334
  51.9788058  57.3033177 102.2115380  49.9036707  57.7807246 102.1637567
  49.2893066  57.9828226 101.2863673  49.6537079  56.3403468 102.6142945
  50.5602172  55.9813210 103.1015733  48.8369539  56.3589512 103.3358670
  49.2962033  55.4168944 101.4732021  48.1794915  55.6595880 100.6837924
  47.5611775  56.5298581 100.9038315  47.8474207  54.8251147  99.6394513
  46.9689424  55.0289847  99.0272303  48.6348676  53.7286978  99.3698377
  48.3040934  52.8921170  98.3283033  47.5112316  53.1681697  97.8627232
  49.7475627  53.4643371 100.1362821  50.3702701  52.5957387  99.9221029
  50.0729681  54.3061973 101.1806981  50.9529183  54.1026570 101.7909105
  49.4035104  58.7514637 103.2242214  48.2029704  58.7544268 103.5170507
  50.2813103  59.5697648 103.8015719  51.2713205  59.4248558 103.6638025
  49.8576313  60.6569389 104.6711401  48.8551030  60.4587371 105.0502869
  50.8141656  60.7915704 105.8620618  51.8262068  60.8111559 105.4577249
  50.5959246  61.7465147 106.3401332  50.6998144  59.6748640 106.8863472
  49.6658064  59.6185675 107.2265810  50.9764814  58.7346786 106.4092636
  51.6116346  59.9263254 108.0766261  52.6445775  59.9089113 107.7290278
  51.3825134  60.9109748 108.4841412  51.4236463  58.8758187 109.1564919
  50.3742688  58.8715903 109.4512624  51.6870534  57.9041527 108.7386630
  52.2718275  59.1494488 110.3475671  52.0276099  60.0495831 110.7351438
  52.1194412  58.4315475 111.0414664  53.2442690  59.1529864 110.0747226
  49.7823295  61.9925844 103.9483963  49.0620393  62.8873643 104.4061255
  50.5053219  62.1461311 102.8389453  51.0573072  61.3798882 102.4807785
  50.5803007  63.4305778 102.1547687  50.3974599  64.2476558 102.8526598
  51.9664408  63.6067689 101.5113138  52.2179681  62.7008864 100.9597603
  51.9687586  64.7946291 100.5622855  51.7177532  65.7010179 101.1132449
  52.9578338  64.9027910 100.1171654  51.2323519  64.6328782  99.7751126
  53.0234795  63.8018514 102.6003652  52.9165702  64.8205017 102.9732228
  52.7951083  63.0970232 103.3998421  54.4457115  63.5844809 102.1271387
  54.6749827  64.2893106 101.3279205  55.1336302  63.7416405 102.9579022
  54.5535200  62.5658321 101.7545375  49.4855571  63.5905457 101.1053228
  49.1160047  64.7265229 100.7776146  48.9574534  62.4911550 100.5715068
  49.3350339  61.5962099 100.8482841  47.8942967  62.5142119  99.5739035
  47.5845208  63.5373569  99.3610367  48.3195847  61.8244503  98.2651854
  48.6825879  60.8222615  98.4931032  47.1382885  61.7307672  97.3061156
  46.7750062  62.7326621  97.0773508  47.4550505  61.2406894  96.3854711
  46.3389839  61.1518734  97.7688177  49.4922390  62.5682828  97.6207019
  50.3224135  62.5267011  98.3258133  49.7574100  62.0221392  96.7154334
  49.1985649  64.0154154  97.2703251  48.9337489  64.5623429  98.1752243
  50.0819753  64.4669675  96.8188984  48.3687434  64.0577810  96.5648457
  46.6723485  61.8328160 100.1679709  46.7786490  60.7359485 100.7278985
  45.5164789  62.4837913 100.0467002  45.5011191  63.4022346  99.6267891
  44.2666918  61.9349456 100.5514959  44.4689392  61.1797106 101.3109794
  43.4235500  63.0505490 101.1819141  44.0713626  63.5820205 101.8790339
  43.1313367  63.7218347 100.3743951  42.1825947  62.5674905 101.9123157
  41.4631768  62.2026388 101.1792251  42.4630947  61.7539876 102.5813708
  41.5564423  63.6939383 102.7192813  42.2900199  64.0445248 103.4452647
  41.3047026  64.5057613 102.0368812  40.3029861  63.2369949 103.4465641
  39.5749643  62.9123538 102.7031308  40.5666096  62.3958196 104.0876772
  39.7149922  64.3257837 104.2738947  39.4702464  65.1051643 103.6799543
  38.8865004  63.9844665 104.7399462  40.3892816  64.6264540 104.9631192
  43.4451680  61.2288625  99.4826446  42.5290747  60.4750646  99.8297409
  43.7455902  61.4487655  98.2024387  44.5065832  62.0766987  97.9863628
  42.9918131  60.8647399  97.0927544  42.3828600  60.0335970  97.4483902
  42.0732294  61.9004882  96.4424693  41.7339166  61.5169300  95.4802582
  40.8695807  62.1817568  97.3287338  41.2081035  62.5658108  98.2910251
  40.2287161  62.9209893  96.8481851  40.3081032  61.2603262  97.4830365
  42.7989237  63.1163873  96.2210577  42.2202589  63.7646091  95.8129453
  43.9646273  60.2912762  96.0702053  44.2703129  60.9339705  95.0565848
  44.4753074  59.0833695  96.3047138  44.3771411  58.2825515  97.5352068
  43.4226457  57.7565646  97.5546132  44.4487968  58.9364437  98.4043382
  45.5412320  57.3542246  97.4237512  45.3231873  56.4264352  97.9526768
  46.4256206  57.8202976  97.8581867  45.7281380  57.1166032  95.9571840
  45.0636100  56.3074501  95.6542439  46.7516005  56.8708679  95.6739204
  45.2980890  58.4248871  95.2819351  46.1479326  59.0676988  95.0524632
  44.4995595  58.1680275  94.0117494  43.3074132  57.8561700  94.0575330
  45.1730334  58.2959090  92.8692043  46.1506065  58.5489573  92.8896165
  44.5305443  58.1269094  91.5733093  43.7257078  57.3969869  91.6602031
  43.9397196  59.4508434  91.0681728  43.2945050  59.8303794  91.8604794
  44.7765037  60.1341188  90.9231658  43.1434905  59.3416972  89.7738744
  42.6357395  60.2934633  89.6175703  43.8524820  59.1713686  88.9636760
  41.9231848  58.0130409  89.7831741  40.8218351  58.5741665  91.0778121
  40.4068237  59.5450126  90.8070308  40.0118947  57.8555909  91.2032969
  41.3751615  58.6640829  92.0126095  45.5478583  57.5835713  90.5784771
  46.7560671  57.7782744  90.7390861  45.0486589  56.8994789  89.5496805
  44.0527140  56.7519439  89.4695149  45.9173737  56.3156566  88.5357342
  46.7506270  56.9918589  88.3445830  46.4774113  54.9637230  88.9824056
  47.3181335  54.7063945  88.3381483  46.8278628  55.0770694  90.0082888
  45.4403041  53.8619953  88.9224830  44.6627715  53.7220047  89.8895170
  45.3944116  53.1437724  87.9019921  45.1392175  56.1460743  87.2400808
  43.9069318  56.0864698  87.2337270  45.8867593  56.0642308  86.1363603
  46.8934607  56.1280688  86.1871189  45.2665198  55.9427198  84.8205959
  44.6122713  56.7951019  84.6375578  46.3391536  55.9083457  83.7334529
  46.9019066  54.9844492  83.8669579  45.8228067  55.8832119  82.7738414
  47.2910903  57.0886570  83.7641760  46.7245024  57.9720900  84.0584972
  48.0584963  56.8844331  84.5108237  48.0782842  57.3931341  82.1747364
  48.7855850  55.7852864  81.8338898  47.9913031  55.0400498  81.7910220
  49.3088877  55.8131867  80.8781301  49.4880482  55.5217703  82.6245895
  44.3846045  54.7043508  84.7310314  43.3184034  54.7403549  84.1079800
  44.8218635  53.5902587  85.3207374  45.7031347  53.5549735  85.8128911
  44.0159475  52.3807607  85.2619232  43.8774859  52.1074846  84.2158602
  44.5505724  51.5830481  85.7776072  42.6579754  52.5617655  85.9079681
  41.6447887  52.0664835  85.4037681  42.6147021  53.2837953  87.0291614
  43.4593116  53.5911266  87.4899016  41.3352076  53.6016745  87.6487368
  40.7880569  52.6896029  87.8871704  41.5568566  54.3904531  88.9403025
  42.1764341  55.2597386  88.7199240  40.2318322  54.8487212  89.5263518
  39.6118520  53.9799023  89.7474351  40.4138473  55.4076021  90.4442962
  39.7180056  55.4878412  88.8082931  42.2381895  53.5688395  89.8951897
  42.3760168  54.0661661  90.7046772  40.4594544  54.3880521  86.6855926
  39.2528393  54.1365667  86.5792352  41.0538066  55.3486347  85.9775562
  42.0258979  55.5761995  86.1303701  40.2982237  56.1499594  85.0221394
  39.3836042  56.5771882  85.4332914  41.1830135  57.2764949  84.4613125
  42.1543907  56.8655823  84.1862171  40.5311262  57.8918289  83.2399452
  39.5598360  58.3033944  83.5143716  41.1657998  58.6880888  82.8510234
  40.3980697  57.1273392  82.4744711  41.5035521  58.3015180  85.5532326
  40.6230971  58.9327629  85.6733563  41.6814631  57.7477552  86.4750753
  42.7051290  59.1663171  85.2452496  42.5277586  59.7207768  84.3237215
  42.8688821  59.8666735  86.0642643  43.5861246  58.5357683  85.1254382
  39.7394510  55.2765130  83.9086075  38.5781646  55.4254894  83.5083766
  40.5558462  54.3677132  83.3727932  41.5202977  54.2751705  83.6580449
  40.0669494  53.5097919  82.3002775  39.6618251  54.1271219  81.4984813
  41.1873094  52.6433146  81.7302848  42.0659163  53.2719710  81.5855772
  41.4162397  51.8608262  82.4537507  40.7937769  52.0076488  80.4025728
  39.7049688  51.9761331  80.3625171  41.1676774  52.6508335  79.6059463
  41.3464702  50.6075235  80.2225022  40.9839695  49.9979672  81.0502301
  40.9559901  50.2140804  79.2839782  42.8599567  50.5707336  80.1940254
  43.2223706  51.1827459  79.3680728  43.2502165  50.9616224  81.1337074
  43.3213466  49.1674462  80.0110045  42.9601858  48.8051955  79.1401216
  44.3309171  49.1447456  79.9922407  42.9859907  48.6002625  80.7764705
  38.9317970  52.6275254  82.7921319  37.9298129  52.4428353  82.0926982
  39.0727729  52.0635113  83.9926934  39.9226480  52.1586770  84.5300528
  38.0031238  51.2325558  84.5323652  37.7708285  50.4251017  83.8379906
  38.4369933  50.6216258  85.8641718  39.3566158  50.0668834  85.6780144
  38.6432307  51.4482412  86.5440784  37.4045027  49.6957984  86.4903802
  37.7420111  49.4316971  87.4925974  36.4571751  50.2309509  86.5558337
  37.2156850  48.4315107  85.6706568  36.8469493  48.7087614  84.6831017
  38.1803102  47.9338088  85.5712067  36.2272273  47.4902192  86.3333201
  35.3045403  48.0402432  86.5183143  36.0276939  46.6673686  85.6468782
  36.7476542  46.9489375  87.6179364  36.9322048  47.7112214  88.2543042
  36.0615824  46.3293299  88.0247433  37.6024086  46.4388742  87.4466777
  36.7218884  52.0387450  84.7024260  35.6344562  51.5728977  84.3408522
  36.8289209  53.2519204  85.2475593  37.7183304  53.6074125  85.5679894
  35.6422747  54.0761493  85.4473261  34.9031073  53.5311941  86.0344841
  36.0150441  55.3556492  86.1970540  36.9147213  55.7538134  85.7278574
  35.1936623  56.0593696  86.0621117  36.2670269  55.1500503  87.6824505
  35.3459773  54.7929197  88.1431307  37.0468745  54.3976203  87.7998763
  36.7026619  56.4395313  88.3561173  37.6903815  56.7163120  87.9874692
  35.9899122  57.2266821  88.1101886  36.7664751  56.3037162  89.8051895
  36.6139869  55.3812970  90.1872752  37.0055301  57.3028844  90.6417022
  37.2121074  58.5354081  90.2072691  37.1889405  58.7287934  89.2162265
  37.3920179  59.2772059  90.8686825  37.0422414  57.0599831  91.9491303
  36.8884470  56.1217129  92.2898595  37.2237373  57.8149522  92.5950247
  34.9788009  54.4116391  84.1184461  33.7509318  54.3434220  83.9927762
  35.7772104  54.7763345  83.1152470  36.7733229  54.8753221  83.2496376
  35.2210000  55.0975383  81.8062534  34.4567555  55.8687915  81.9021597
  36.3252514  55.6163207  80.8879187  37.0978932  54.8498666  80.9485162
  35.9403082  55.6637026  79.8692560  36.9210605  56.9716511  81.2708809
  37.0837606  56.9970474  82.3483709  38.2436896  57.1899700  80.5537198
  38.0817071  57.1651662  79.4761089  38.6553449  58.1588144  80.8365291
  38.9436394  56.4026769  80.8336132  35.9491269  58.0995495  80.9634897
  35.0285149  57.9504417  81.5277057  36.3969158  59.0525947  81.2450768
  35.7241154  58.1054266  79.8969840  34.5390949  53.8837805  81.1877776
  33.4434693  53.9933270  80.6264166  35.1748102  52.7137213  81.2867659
  36.0449558  52.6407639  81.7943319  34.6663786  51.5250795  80.6116408
  34.4355145  51.7529768  79.5710334  35.7231098  50.4212233  80.6470775
  36.6455036  50.8482998  80.2535110  35.8666183  50.1488673  81.6927005
  35.3576050  49.1837076  79.8478465  34.6904344  48.5731405  80.4562807
  34.8330656  49.5094817  78.9496100  36.5719234  48.3665078  79.4549429
  37.6584170  48.6044221  80.0227585  36.4408002  47.4842007  78.5807841
  33.3637421  51.0346258  81.2285227  32.5108241  50.4927414  80.5176632
  33.1905342  51.2106426  82.5398892  33.9504100  51.5878419  83.0879849
  31.9705331  50.8130843  83.2314626  31.3312581  50.2418215  82.5583464
  32.3084516  49.9413608  84.4416957  33.0708873  50.4423078  85.0382215
  31.4054988  49.8149203  85.0390140  32.8250017  48.5696870  84.0470716
  33.8702099  48.1295990  84.5231896  32.0894169  47.8846977  83.1784690
  32.3878505  46.9663888  82.8822496  31.2351102  48.2853688  82.8182973
  31.1370583  52.0154120  83.6592322  30.3501544  51.9159012  84.6064782
  31.3028888  53.1511196  82.9788797  32.1036124  53.2290524  82.3682509
  30.4344728  54.3197728  83.1377642  30.9253177  55.1970524  82.7163962
  29.0966000  54.1160544  82.4210186  28.4684079  54.9895188  82.5957580
  29.2901630  54.0161662  81.3530037  28.3537915  52.8817278  82.8965966
  28.3191461  51.8608077  82.2090590  27.7579199  52.9668051  84.0812534
  27.2494840  52.1737564  84.4454875  27.8161852  53.8241285  84.6120099
  30.2117110  54.6594260  84.6084372  29.1002936  54.9773998  85.0360644
  31.2879793  54.5938870  85.3952791  32.1722208  54.2478665  85.0510611
  31.1923724  54.9689258  86.8013574  30.3611270  54.4409607  87.2686722
  32.4795488  54.6052023  87.5408513  32.7209875  53.5730814  87.2868178
  33.2644374  55.2635902  87.1685943  32.3765465  54.7435163  89.0451573
  31.7544860  53.7675011  89.8107010  31.3377281  52.8931808  89.3107248
  31.6581835  53.8896276  91.1846726  31.1658163  53.1158917  91.7737474
  32.1869876  54.9988894  91.8085945  32.0927467  55.1237602  93.1754796
  31.6417989  54.3842757  93.5894947  32.8109018  55.9811516  91.0725388
  33.2307839  56.8578817  91.5656349  32.9029605  55.8499186  89.6983215
  33.3955020  56.6231837  89.1087759  30.8994797  56.4543150  86.9528659
  30.2347763  56.8617296  87.9125475  31.3826427  57.2697364  86.0200914
  31.8964557  56.8938267  85.2360076  31.1960400  58.7060145  86.0948827
  31.5140248  59.0757787  87.0696951  32.0316424  59.3929839  85.0157814
  31.7305851  58.9612874  84.0612649  31.7670871  60.4502096  85.0353864
  33.5243645  59.2448733  85.1862305  34.2024402  59.9422188  86.1669269
  33.6357892  60.6015411  86.8244224  35.5664485  59.8182127  86.3240829
  36.0856438  60.3805563  87.1001678  36.2725111  58.9773144  85.4947365
  37.6317507  58.8477527  85.6552682  37.9780072  59.3863347  86.3705552
  35.6226579  58.2685523  84.5066812  36.1798901  57.6058549  83.8445445
  34.2560727  58.4027262  84.3590633  33.7340863  57.8424964  83.5833231
  29.7266184  59.0704604  85.8879901  28.9116309  58.2695404  85.4211589
  29.3921269  60.3094207  86.2538425  30.0170382  60.8210112  86.8603574
  28.1413563  60.9437593  85.8567929  27.5400101  60.2432268  85.2773654
  27.3399233  61.3724230  87.0922725  26.9921404  60.4972207  87.6410595
  27.9574705  61.9886344  87.7457395  26.1214500  62.1842762  86.7619346
  25.9684947  63.5314895  86.9192688  26.8182836  64.0781024  87.3281366
  24.7159228  63.9182438  86.5070945  24.3572485  64.8622756  86.5231024
  24.0315922  62.8145677  86.0710937  22.7382072  62.7020673  85.5640504
  22.1317500  63.6038967  85.4803122  22.3090954  61.4555304  85.2007355
  21.3039500  61.3295280  84.7983599  23.1336328  60.3304233  85.3335398
  22.7805411  59.3411532  85.0423860  24.4189544  60.4397424  85.8372875
  25.0208500  59.5348725  85.9211504  24.8854600  61.7028072  86.2160472
  28.3490440  62.1539378  84.9614775  27.4678879  62.4740559  84.1609337
  29.4956040  62.8230323  85.0795858  30.1493331  62.5303163  85.7916638
  29.8396269  63.9727205  84.2586453  29.1478132  64.0364372  83.4187446
  29.7589494  65.2766867  85.0595030  28.7671684  65.3558056  85.5047108
  30.5098763  65.2484643  85.8490676  30.0034911  66.4998241  84.2032113
  31.1301699  66.7632893  83.7850607  28.9444541  67.2546899  83.9352873
  29.0495213  68.0836850  83.3679886  28.0387224  66.9963951  84.3000265
  31.2458589  63.7920813  83.7056640  32.1012424  63.1629159  84.3341511
  31.4773692  64.3517596  82.5161107  30.7591427  64.8662811  82.0267052
  32.7694259  64.1751229  81.8617539  32.9888696  63.1091136  81.8020221
  32.7173744  64.7431988  80.4439438  32.5074801  65.8119055  80.4876521
  33.6764365  64.5816414  79.9518065  31.9310289  64.2417930  79.8797166
  33.8943475  64.8284026  82.6549487  34.9935853  64.2723262  82.7564195
  33.6413091  66.0084302  83.2243136  32.7441206  66.4618584  83.1265639
  34.6896730  66.7020120  83.9641356  35.5599127  66.8492713  83.3245288
  34.1917876  68.0682463  84.4333454  33.5439056  68.4657619  83.6521095
  33.6100021  67.9097052  85.3413599  35.3113381  69.0581375  84.7153867
  35.7568099  68.8152880  85.6801042  36.0649211  68.9632338  83.9335888
  34.8299833  70.4944411  84.7521361  33.7213419  70.7789246  85.2049963
  35.6643366  71.4093289  84.2744504  35.3952046  72.3828120  84.2742754
  36.5645916  71.1278868  83.9132957  35.1804247  65.9029437  85.1611705
  36.2737393  66.1768682  85.6684325  34.4026181  64.9235056  85.6219825
  33.4729838  64.7774662  85.2551691  34.8458592  64.0905451  86.7346370
  35.1237920  64.7168574  87.5823311  33.7193069  63.1536793  87.1683368
  32.8529733  63.7764541  87.3913099  33.4938473  62.5092549  86.3186397
  34.0526719  62.2961020  88.3806070  34.9056091  61.6676865  88.1243007
  34.3258104  62.9624041  89.1988588  32.8901058  61.4202057  88.8086734
  31.8382397  61.4558581  88.1341984  33.0271847  60.6970478  89.8170681
  36.1084670  63.3203769  86.3611542  36.9700619  63.0722579  87.2119721
  36.2219486  62.9092742  85.0957489  35.4630464  63.0384440  84.4419278
  37.4252906  62.2262445  84.6326534  37.7816073  61.5331705  85.3947465
  37.1125994  61.4371271  83.3632961  36.3126417  60.7183969  83.5410426
  36.8256446  62.1060998  82.5519808  38.5037673  60.4908821  82.7572315
  37.8733994  59.9746776  81.7060096  38.5679068  63.1999375  84.3595671
  39.7428685  62.8514132  84.5487702  38.2420746  64.4328569  83.9693708
  37.2859352  64.6776248  83.7549288  39.2763284  65.4400771  83.7636825
  40.1024214  65.0370777  83.1777976  38.6892212  66.6679998  83.0450652
  37.8806016  67.0802680  83.6486127  39.7630647  67.7283647  82.8435350
  40.5718630  67.3169517  82.2396432  39.3322087  68.5903212  82.3341287
  40.1549922  68.0380257  83.8123498  38.0838201  66.2576181  81.6993589
  38.9112568  66.0065567  81.0357194  37.4773247  65.3691660  81.8751875
  37.2321647  67.3301032  81.0589233  37.8381314  68.2187689  80.8823520
  36.8392714  66.9644917  80.1102071  36.4042000  67.5813798  81.7218217
  39.9051215  65.8119867  85.0974847  41.1322601  65.9324528  85.2121315
  39.0770443  66.0124268  86.1229499  38.0738850  66.0295697  86.0068597
  39.6234479  66.2824986  87.4447102  40.3225197  67.1170959  87.3913712
  38.5053556  66.6432715  88.4241904  38.9819726  66.9212812  89.3642149
  37.9859291  67.5079533  88.0111266  37.5106251  65.5287251  88.6731915
  37.0465407  65.2578350  87.7248535  38.0468484  64.6683350  89.0735606
  36.4191044  65.9191531  89.6534005  36.2070530  67.1005875  89.9266183
  35.7200778  64.9235635  90.1864747  34.9813858  65.1252417  90.8450803
  35.9304081  63.9693679  89.9307926  40.4176483  65.0888620  87.9512382
  41.3651999  65.2615213  88.7180913  40.0617418  63.8732880  87.5242658
  39.2293898  63.7264141  86.9713485  40.8514848  62.7064971  87.9104923
  40.9978844  62.6957220  88.9905619  40.1260275  61.4253036  87.5034251
  39.8068131  61.5330270  86.4667974  40.8364031  60.6021965  87.5806348
  38.9200758  61.1352468  88.3757637  38.8104981  61.7405345  89.4623733
  38.0789539  60.3035954  87.9731087  42.2433145  62.7535638  87.2903722
  43.2418413  62.4897971  87.9717623  42.3354251  63.0950595  86.0010289
  41.5176230  63.2166127  85.4209220  43.6529181  63.2516805  85.3842122
  44.2257761  62.3305563  85.4912783  43.5041268  63.5642425  83.8947636
  42.6316285  64.1983483  83.7374237  44.3941409  64.0734669  83.5250806
  43.3142543  62.3510149  83.0322763  44.3871116  61.5361559  82.7168147
  45.3755505  61.7834108  83.1040531  44.2165815  60.4209257  81.9214719
  45.0696346  59.7861139  81.6818576  42.9664887  60.1101531  81.4301084
  42.8284962  59.2300970  80.8019688  41.8895482  60.9153445  81.7348525
  40.9000474  60.6727956  81.3473496  42.0649224  62.0288463  82.5309351
  41.2140926  62.6662534  82.7715610  44.4506387  64.3531319  86.0768503
  45.6491380  64.1921808  86.3636051  43.7974443  65.4833580  86.3479536
  42.8364990  65.6164140  86.0669205  44.4832285  66.5864894  87.0069849
  45.3732973  66.8640229  86.4423151  43.5592948  67.8008489  87.0900888
  43.0369730  67.9150184  86.1402233  42.8333123  67.6312766  87.8852584
  44.3105401  69.0812603  87.3859608  44.7118267  69.3303005  88.5220313
  44.5100759  69.9008072  86.3599953  45.0058123  70.7694847  86.5005105
  44.1651563  69.6515708  85.4440190  44.9627078  66.1786166  88.3928797
  46.0591792  66.5598408  88.8125073  44.1590083  65.3989505  89.1168507
  43.2315781  65.1672533  88.7908306  44.5761848  64.9039868  90.4233757
  44.9125354  65.7237640  91.0581456  43.4082325  64.1996766  91.1131790
  43.0662667  63.3810004  90.4799895  43.8360257  63.6488193  92.4683168
  44.1777059  64.4670272  93.1022649  42.9899074  63.1514531  92.9424580
  44.6468507  62.9334554  92.3307749  42.3259807  65.1219683  91.2923910
  41.5943374  64.6764526  91.7257663  45.7621663  63.9602132  90.2987594
  46.6554212  63.9591092  91.1543998  45.7756614  63.1284720  89.2568043
  45.0018782  63.0638732  88.6109050  46.9138749  62.2405909  89.0619011
  47.0531383  61.6213155  89.9480179  46.6855174  61.3278855  87.8599520
  45.6427144  61.0111071  87.8776348  46.8717570  61.9129341  86.9593228
  47.5868284  60.1036005  87.8639325  48.6179678  60.4508162  87.9294583
  47.3448166  59.5161962  88.7496461  47.4019463  59.0723445  86.4018091
  48.3402270  60.0204948  85.2038139  49.3715715  60.1167088  85.5431817
  48.3212711  59.5104044  84.2407204  47.8990740  61.0116193  85.0981852
  48.1921125  63.0441704  88.8766915  49.2375457  62.7036927  89.4421109
  48.1291508  64.1158899  88.0851018  47.3111881  64.3269052  87.5314694
  49.2969728  64.9873937  87.9570123  50.1723453  64.3947650  87.6912805
  49.0669096  66.0352270  86.8669607  48.2322523  66.6781597  87.1463959
  49.9626996  66.6415024  86.7324599  48.7318048  65.4561602  85.5173455
  49.0071061  64.1314472  85.2170596  49.4731945  63.5004399  85.9738233
  48.6982618  63.6086729  83.9770369  48.9184708  62.5643682  83.7555952
  48.1111911  64.4077549  83.0186914  47.8670843  63.9975387  82.0387759
  47.8332586  65.7270184  83.3018490  47.3681568  66.3609916  82.5469593
  48.1443175  66.2460932  84.5430588  47.9277225  67.2906579  84.7668248
  49.6253574  65.6670162  89.2854760  50.7991774  65.7943779  89.6625948
  48.5923923  66.1051723  90.0086746  47.6465718  65.9138071  89.7105097
  48.7895321  66.9134030  91.2060973  49.4581399  67.7499499  91.0029910
  47.4461654  67.4662855  91.6831849  46.7655850  66.6339322  91.8623457
  47.6188736  68.2645998  92.9660403  48.2990089  69.0974564  92.7875314
  46.6512145  68.6490752  93.2883968  48.0303601  67.6202534  93.7429554
  46.8849805  68.3095932  90.6694858  46.0418435  68.6553031  90.9714876
  49.4567510  66.1164646  92.3164383  50.2996699  66.6491545  93.0442530
  49.0707535  64.8522490  92.4864438  48.3352437  64.4449346  91.9267834
  49.6723367  64.0372900  93.5383964  49.5688354  64.5362580  94.5019407
  48.9746090  62.6799697  93.6139727  49.0828157  62.1780965  92.6524563
  49.4513406  62.0822823  94.3908877  47.5008024  62.8007880  93.9330606
  47.0068215  63.8855135  94.2354007  46.7884827  61.6818899  93.8691093
  45.7993981  61.7042284  94.0723638  47.2390716  60.8136922  93.6175080
  51.1645919  63.8600720  93.2938520  51.9824624  64.0010698  94.2140620
  51.5392138  63.5568707  92.0493997  50.8575516  63.3742694  91.3268399
  52.9512799  63.4267897  91.7155369  53.4214580  62.6870176  92.3634327
  53.1065138  62.9744157  90.2655282  52.7246850  61.9616880  90.1363433
  52.5771797  63.6501778  89.5937760  54.8169478  62.9405184  89.6950279
  54.5442187  62.5207498  88.4628301  53.6897908  64.7366091  91.9431739
  54.8130733  64.7426206  92.4609523  53.0790172  65.8597616  91.5605032
  52.1999388  65.8448823  91.0634128  53.7170445  67.1510806  91.8000042
  54.7080813  67.1683081  91.3465194  52.8781966  68.2702142  91.1833357
  51.8304769  68.0253279  91.3577296  53.1288338  69.1896137  91.7124723
  53.1102474  68.4621190  89.7041890  54.3794841  68.7351672  89.2116987
  55.2102528  68.8090785  89.9134536  54.5991695  68.9117493  87.8628643
  55.6004563  69.1270684  87.4898172  53.5432792  68.8146613  86.9843972
  53.7572925  68.9897543  85.6381339  54.6750839  69.1737231  85.4250280
  52.2733053  68.5428776  87.4468232  51.4377532  68.4654768  86.7511492
  52.0632956  68.3684882  88.7996038  51.0618727  68.1533608  89.1723939
  53.9313528  67.4004238  93.2891922  55.0160972  67.8173306  93.7121713
  52.9064694  67.1439891  94.1020595  52.0391490  66.7740318  93.7401391
  52.9804715  67.4696702  95.5231247  53.3621983  68.4798057  95.6714829
  51.5912740  67.3458798  96.1738477  51.1134955  66.4322504  95.8201397
  51.7172494  67.2979500  97.6915495  52.1945532  68.2115147  98.0460651
  50.7259951  67.2103518  98.1363440  52.3214490  66.4376480  97.9795123
  50.7010360  68.5137566  95.7493514  51.0637443  69.4017396  96.2670673
  50.8279959  68.6431872  94.6745359  49.2331284  68.3109886  96.0632343
  49.1053155  68.1819404  97.1379948  48.6666893  69.1815163  95.7324361
  48.8695676  67.4233860  95.5454649  54.0030459  66.5877337  96.2262574
  54.8586798  67.0781062  96.9720044  53.9331176  65.2731496  96.0068411
  53.2758242  64.8692122  95.3549980  54.7833565  64.3726746  96.7799436
  54.6723776  64.5833034  97.8436251  54.3935566  62.9192474  96.5274393
  53.3387594  62.8197289  96.7835606  54.5317843  62.7020983  95.4682701
  55.2059068  61.9458929  97.3513258  55.0039114  61.8285411  98.7186489
  54.2418754  62.4464531  99.1936072  55.7486833  60.9479925  99.4759831
  55.5772789  60.8642224 100.5491582  56.7105706  60.1744252  98.8711745
  57.4522370  59.2959932  99.6240504  57.2150322  59.3061266 100.5542283
  56.9351161  60.2742258  97.5165970  57.6980236  59.6615853  97.0362386
  56.1859635  61.1580645  96.7658949  56.3598955  61.2458915  95.6934518
  56.2595604  64.5857895  96.4642968  57.1003000  64.5599457  97.3694454
  56.5943620  64.7963930  95.1954299  55.8701605  64.8588204  94.4941923
  57.9815892  64.8812538  94.7640118  58.6364493  64.4968328  95.5459823
  58.1973039  64.0539655  93.4951614  57.2959623  64.1164921  92.8854294
  59.0403372  64.4648443  92.9396676  58.4788447  62.5976259  93.7939920
  57.6067468  61.7415000  93.6491479  59.7005381  62.3091434  94.2229641
  59.9442994  61.3528493  94.4378640  60.3813039  63.0471262  94.3326912
  58.3934514  66.3306735  94.5315768  57.5802080  67.2567106  94.5693731
  59.6850125  66.5129621  94.2823586  60.2597185  65.6891861  94.1765031
  60.3209732  67.8144472  94.1766446  59.5788837  68.6004941  94.3164036
  61.4077974  67.9699752  95.2486004  62.2245882  67.2990339  94.9825364
  61.7579098  69.0014442  95.2086892  60.9295467  67.6520957  96.6546103
  60.0342511  68.2405886  96.8551662  60.6847789  66.5910586  96.7035063
  61.9890408  67.9746046  97.6914172  62.8795699  67.3854144  97.4725292
  62.2300160  69.0354322  97.6230431  61.5034283  67.6553846  99.0951896
  60.5395012  68.1429754  99.2407930  61.3794358  66.5753968  99.1748850
  62.4576768  68.1228993 100.1366505  62.5723809  69.1236767 100.0632521
  62.0975580  67.8914781 101.0514503  63.3508142  67.6708823 100.0021688
  60.9400571  67.9842014  92.7960104  61.2491135  66.9955071  92.1203273
  61.1432840  69.2219711  92.3471117  60.7743966  70.4953256  92.9887683
  61.4875198  70.7237652  93.7808358  59.7741854  70.4122918  93.4139528
  60.8351749  71.4786752  91.8577406  61.1077131  72.4621898  92.2405215
  59.8627202  71.5363612  91.3687565  61.8656629  70.9546939  90.9272960
  62.8485001  71.2588380  91.2873325  61.7411815  71.2795177  89.8942939
  61.7267367  69.4313556  91.0166159  61.0377394  69.0342730  90.2711587
  63.0738688  68.7374749  90.8815610  63.8738181  68.7021234  91.8180108
  63.3179786  68.1806791  89.6951033  62.6363427  68.2896450  88.9578123
  64.5168305  67.4255597  89.4133250  64.8671946  67.7288238  88.4267273
  65.2584983  67.7023094  90.1626164  64.3353852  65.9214366  89.4312522
  65.2058971  65.2028820  88.9274245  63.2363973  65.4288683  89.9952212
  62.5795803  66.0440566  90.4537341  62.9666122  63.9977885  90.0079752
  63.8887904  63.4484090  90.1973658  61.9605792  63.6567746  91.1067026
  61.0702146  64.2653599  90.9486708  61.7021961  62.6026824  91.0055695
  62.5065754  63.9119543  92.4990609  63.7455633  63.9447953  92.6571638
  61.6963785  64.0823307  93.4345456  62.4357049  63.5466949  88.6525103
  61.6837744  64.2683253  87.9911488  62.8351237  62.3424274  88.2399581
  63.4477564  61.7706460  88.8037369  62.4434779  61.8476371  86.9248767
  62.7498212  62.5536932  86.1530362  63.1165226  60.5038483  86.6520552
  62.7826547  59.8009447  87.4153100  62.7904941  60.1566922  85.6716022
  64.6277162  60.5960256  86.6776544  65.1944540  61.3073790  85.8223079
  65.2495549  59.9562841  87.5521739  60.9294605  61.7213443  86.8083372
  60.3476818  62.0537171  85.7671691  60.2738683  61.2323952  87.8621154
  60.7663951  60.8657148  88.6640270  58.8193023  61.1425029  87.8441382
  58.4750027  60.5494954  86.9968489  58.3117122  60.5091506  89.1540123
  58.8564235  59.5821053  89.3328330  58.5253187  61.4547758  90.3226493
  57.9804965  62.3819342  90.1447543  58.1605789  60.9896226  91.2384540
  59.5884377  61.6725643  90.4248506  56.8295483  60.1435560  89.0376043
  56.4682902  59.9310311  90.0437984  56.3104925  61.0168896  88.6426751
  56.5636763  58.9558505  88.1470867  57.0820668  58.0819615  88.5416614
  55.4922571  58.7581166  88.1145084  56.9242715  59.1678194  87.1405381
  58.2052115  62.5153660  87.6123835  57.1614162  62.6364428  86.9616264
  58.8395738  63.5698943  88.1282696  59.6373652  63.4517259  88.7362700
  58.3404347  64.9218032  87.8964409  57.2818762  65.0087113  88.1413901
  59.1273149  65.9330580  88.7494007  60.1924714  65.8090710  88.5540342
  58.7121643  67.3533442  88.4071931  57.6471482  67.4782387  88.6027517
  59.2782347  68.0553940  89.0193946  58.9127373  67.5471689  87.3534834
  58.9029338  65.6567239  90.2257400  59.2424355  64.6484589  90.4628945
  59.4640282  66.3777186  90.8202476  57.8410576  65.7453716  90.4552206
  58.3999037  65.2719367  86.4152410  57.4540762  65.8447329  85.8606756
  59.5135682  64.9530886  85.7532568  60.3185716  64.5662787  86.2248998
  59.6130300  65.2218294  84.3228685  59.4005197  66.2724549  84.1250693
  61.0232411  64.9073352  83.8271588  61.2459759  63.9285554  84.2519863
  61.0028893  64.8347762  82.7397669  62.1019820  65.9036396  84.2508032
  61.9915037  66.1116588  85.3150510  63.4868596  65.3401607  83.9867263
  63.5982589  65.1323098  82.9225426  64.2397177  66.0653921  84.2955059
  63.6182537  64.4176681  84.5522734  61.9173778  67.2267583  83.5278176
  60.9386083  67.6405341  83.7705093  62.6940616  67.9242388  83.8414807
  61.9868087  67.0662781  82.4519345  58.5799357  64.4234706  83.5397148
  57.9712077  64.9372958  82.5920229  58.3704457  63.1604736  83.9166250
  58.9293603  62.7210571  84.6340001  57.3497234  62.3611423  83.2488793
  57.5483862  62.3194515  82.1779479  57.3579789  60.9366556  83.8029872
  57.1989334  61.0072799  84.8790058  56.5215982  60.4072592  83.3465806
  58.6475927  60.1776510  83.5301625  58.8252571  60.1969025  82.4549111
  59.4567030  60.6996655  84.0409886  58.5990516  58.4654685  84.0922237
  57.7007667  57.6969258  82.7529051  58.2490283  57.8344911  81.8209266
  57.5887456  56.6315244  82.9540811  56.7156519  58.1551671  82.6653548
  55.9747089  62.9925751  83.4165509  55.1938818  63.0738201  82.4594097
  55.6662728  63.4540960  84.6299492  56.2943196  63.3281546  85.4108432
  54.3836682  64.0995173  84.8726791  53.5818344  63.4220726  84.5790289
  54.2329385  64.4191310  86.3588045  55.0235424  65.1038531  86.6657268
  53.2624949  64.8833021  86.5345447  54.3050721  63.4986252  86.9380843
  54.2388868  65.3626517  84.0367288  53.1716992  65.6205281  83.4734913
  55.2990633  66.1678575  83.9516978  56.1508809  65.9717632  84.4577147
  55.2299779  67.3940558  83.1610007  54.3899307  68.0048826  83.4916223
  56.5171913  68.2000874  83.3322773  57.3453962  67.4932777  83.2813266
  56.5763230  68.8895913  82.4901444  56.5979697  68.9814693  84.6327734
  55.7364824  69.6477281  84.6779361  56.5489150  68.2686766  85.4559498
  57.8714831  69.7948297  84.7446227  58.4335847  70.1677093  83.6939098
  58.3111448  70.0618169  85.8835672  54.9890915  67.0860402  81.6884906
  54.1642727  67.7373704  81.0333105  55.7086120  66.0996133  81.1487599
  56.4198947  65.6143412  81.6766684  55.5214471  65.7402509  79.7479123
  55.6745566  66.6234175  79.1276919  56.5375898  64.6745338  79.3394042
  56.3908866  63.7805800  79.9455599  56.4008014  64.4257830  78.2870201
  57.5469172  65.0559903  79.4938336  54.1012297  65.2519978  79.4975994
  53.4560794  65.6557016  78.5189609  53.5917695  64.3914193  80.3808229
  54.1472917  64.0223154  81.1392798  52.2232082  63.9138331  80.2308089
  52.0910599  63.4614811  79.2479490  51.9164064  62.8642936  81.2960993
  52.4408975  63.2144979  82.1851242  50.8429555  62.8624012  81.4853071
  52.3759426  61.4478962  80.9594337  53.3667047  61.4941048  80.5073763
  52.4320807  60.5968164  82.2137992  51.4415147  60.5497554  82.6661963
  52.7614448  59.5902337  81.9560956  53.1336797  61.0380216  82.9217521
  51.4493693  60.8241141  79.9285841  51.4579785  61.4262170  79.0200153
  51.7889153  59.8143616  79.6979122  50.4358027  60.7838003  80.3275284
  51.2312812  65.0648249  80.3123494  50.2508668  65.1019647  79.5614452
  51.4622068  66.0079597  81.2252701  52.2465036  65.9402169  81.8580330
  50.5497938  67.1345790  81.3739859  49.5338836  66.7741962  81.5356954
  50.9632017  67.9864340  82.5751586  50.9348191  67.3402231  83.4524870
  51.9876535  68.3145068  82.3991848  50.0761792  69.1992547  82.8103651
  50.1873690  69.8680396  81.9568638  49.0451564  68.8499230  82.8656675
  50.4265078  69.9438993  84.0848789  51.5079265  69.6821933  84.6500678
  49.6210795  70.7937694  84.5193570  50.5118041  67.9769772  80.1075677
  49.4347446  68.3566217  79.6339130  51.6804608  68.2814598  79.5401340
  52.5678936  68.0166972  79.9432012  51.6859570  69.1035875  78.3349619
  51.0589445  69.9815510  78.4903150  53.1030864  69.5690732  77.9927598
  52.9937533  70.3413276  77.2313344  53.5057194  70.0120966  78.9036478
  54.0511686  68.4948721  77.4910326  54.2922816  67.8263025  78.3174587
  53.5553634  67.9309317  76.7009374  55.3340342  69.1117424  76.9461437
  55.9745444  68.3033622  76.5934864  55.0695451  69.7568859  76.1083282
  56.0754847  69.9240470  77.9967117  55.4524387  70.7747380  78.2728258
  56.2323942  69.2906936  78.8698338  57.3901847  70.4136464  77.4961817
  57.2449801  71.0008957  76.6873840  57.8491576  70.9464906  78.2211099
  57.9678244  69.6255171  77.2406750  51.0605899  68.3591030  77.1612636
  50.3420857  68.9604818  76.3542578  51.3019777  67.0497796  77.0513852
  51.9497632  66.5692363  77.6592926  50.6694812  66.2913704  75.9756321
  50.8582196  66.7749708  75.0171919  51.2391914  64.8747951  75.9281995
  51.1809823  64.5238731  76.9585221  50.6079368  64.2503256  75.2960164
  52.6894157  64.7916566  75.4420036  53.2683511  65.5746717  75.9317198
  53.2953051  63.4360392  75.7663883  52.7171419  62.6524948  75.2766086
  54.3251041  63.4032457  75.4106645  53.2788083  63.2787947  76.8448606
  52.7757043  65.0722991  73.9486088  52.3935120  66.0723060  73.7436337
  53.8147757  65.0077669  73.6257040  52.1807099  64.3380987  73.4054418
  49.1538878  66.2623385  76.1398627  48.4112913  66.4051158  75.1599575
  48.6751461  66.0850668  77.3734133  49.2903295  65.8911688  78.1506212
  47.2376979  66.1070492  77.6182346  46.7393833  65.3722389  76.9859089
  46.9519551  65.7665439  79.0815050  47.3351898  64.7726372  79.3125462
  47.4238777  66.4987134  79.7367277  45.4892501  65.7557362  79.4313067
  44.8359150  66.9260455  79.7820989  45.3943010  67.8619320  79.8026296
  43.4917626  66.9160929  80.1037840  42.9883075  67.8440711  80.3748746
  42.7874695  65.7305056  80.0815356  41.7278817  65.7186901  80.3369453
  43.4259276  64.5593134  79.7355282  42.8709774  63.6213495  79.7167087
  44.7683704  64.5738268  79.4127131  45.2731303  63.6473343  79.1389815
  46.6474832  67.4629852  77.2554936  45.5871952  67.5401397  76.6249805
  47.3232670  68.5443634  77.6480576  48.1492272  68.4678938  78.2242881
  46.8445898  69.8769343  77.2992615  45.8251248  70.0134899  77.6600148
  47.7365314  70.9392330  77.9417751  48.7455183  70.6345069  77.6639504
  47.5111336  71.9043471  77.4880675  47.6406899  71.0570146  79.4647665
  47.7217589  70.0616361  79.9015161  48.7535783  71.9395763  80.0059930
  48.6728854  72.9353246  79.5700196  48.6672404  72.0101568  81.0902739
  49.7198101  71.5070428  79.7463563  46.2806936  71.5934758  79.8812670
  45.5003342  70.9173169  79.5320568  46.2363105  71.6684335  80.9677810
  46.1288839  72.5798852  79.4430328  46.7988173  70.0584851  75.7889048
  45.8699544  70.6768353  75.2553641  47.7982276  69.5297793  75.0819795
  48.6006149  69.1168125  75.5355568  47.7809043  69.5865973  73.6251523
  47.7037031  70.6212285  73.2909706  49.0729997  68.9878655  73.0671320
  49.9005637  69.5522880  73.4968579  49.1223251  67.9542110  73.4095139
  49.1689502  69.0240413  71.5503134  48.4577751  68.3094487  71.1359605
  48.9156824  70.0276387  71.2086269  50.5535419  68.6763624  71.0461526
  51.3959262  68.1893371  71.7998483  50.7963976  68.9231193  69.7649617
  51.7039034  68.7103230  69.3760499  50.0725945  69.3225674  69.1847449
  46.5683725  68.8555735  73.0631053  45.8829808  69.3610273  72.1666346
  46.2850602  67.6601775  73.5811763  46.8396210  67.2634398  74.3262674
  45.1932534  66.8633254  73.0318614  45.1573374  66.9751248  71.9482055
  45.4062101  65.3857813  73.3639123  45.7480075  65.3329790  74.3975881
  44.4383405  64.8921958  73.2761528  46.4133592  64.6901932  72.4611161
  47.3045906  65.3142103  72.3947065  46.6740594  63.7319286  72.9104116
  45.8511179  64.4597699  71.0667048  44.9253787  63.8914681  71.1569204
  45.6393521  65.4288940  70.6149823  46.8305162  63.6962241  70.1909019
  47.2431464  62.8758431  70.7781087  46.2820478  63.2930627  69.3395837
  47.9387782  64.5627272  69.7017713  48.4473939  64.9360627  70.4904603
  48.5637676  64.0169486  69.1259120  47.5566696  65.3227340  69.1572699
  43.8267825  67.3142839  73.5343000  42.8435619  67.2306292  72.7912569
  43.7374751  67.7880162  74.7796272  44.5540943  67.8658106  75.3688475
  42.4397996  68.1350972  75.3472247  41.7290347  67.3233044  75.1926122
  42.5683547  68.4242513  76.8542594  43.1380762  67.6214692  77.3222966
  43.2772691  69.7467547  77.0822907  42.7078602  70.5501374  76.6149040
  43.3596665  69.9356005  78.1526405  44.2741235  69.7056575  76.6433244
  41.1880094  68.4557286  77.5191451  41.3372576  68.7648791  78.5536747
  40.5975834  69.2086676  76.9970537  40.4551326  67.1294925  77.4892875
  41.0447724  66.3761092  78.0116267  39.4876853  67.2372725  77.9797245
  40.3051003  66.8198965  76.4550049  41.8007037  69.3208859  74.6380887
  40.5713702  69.4554007  74.6549939  42.5976213  70.1864705  74.0092019
  43.6008544  70.0697886  74.0063807  42.0363952  71.3635826  73.3552022
  41.4868763  71.9671587  74.0775760  43.1596941  72.2142532  72.7617250
  43.8322110  71.5642301  72.2020016  42.7238196  72.9518860  72.0879214
  43.9612630  72.9417964  73.8234863  43.6108646  72.9239346  75.0027182
  45.0440938  73.5884498  73.4076246  45.6153443  74.0902493  74.0724328
  45.2913902  73.5754749  72.4284531  41.0337466  70.9994698  72.2680198
  40.1966829  71.8357501  71.9088018  41.0944974  69.7807403  71.7413237
  41.8258518  69.1528535  72.0429496  40.1869525  69.3314579  70.6948279
  39.9080181  70.1666577  70.0523825  40.8805831  68.2639685  69.8378961
  41.7669872  68.7358236  69.4139389  41.1835399  67.4691861  70.5195398
  40.0332303  67.6752280  68.7162379  39.2610618  67.0537242  69.1696578
  39.5658251  68.5017053  68.1809185  40.8475784  66.8416794  67.7465411
  42.0405171  67.1529964  67.5442836  40.2949190  65.8723011  67.1852334
  38.8741493  68.7918446  71.2499199  38.0135747  68.3704570  70.4706069
  38.6907725  68.8144678  72.5655290  39.3925168  69.2052355  73.1778646
  37.4928715  68.2440723  73.1641407  37.4457657  67.1748967  72.9573948
  37.5141816  68.4481574  74.6785759  38.4433336  67.9679021  74.9853833
  37.5791341  69.5193181  74.8696149  36.3487865  67.8583863  75.4745830
  35.4186037  68.0725477  74.9482792  36.5082016  66.3566683  75.6290110
  37.4380015  66.1417281  76.1556720  35.6683508  65.9582458  76.1982305
  36.5328820  65.8902100  74.6441719  36.2435276  68.5289700  76.8341208
  36.0772057  69.5979084  76.7006769  35.4096508  68.0984745  77.3885794
  37.1681163  68.3722259  77.3896981  36.2489451  68.8927809  72.5598722
  36.1358117  70.1267842  72.5664128  35.3023534  68.1158166  72.0375031
  35.2461836  66.6428397  72.0013474  35.3883505  66.2518514  73.0088279
  36.0369705  66.2677738  71.3516701  33.8734534  66.3551375  71.4585463
  33.1789982  66.2086026  72.2858059  33.9059481  65.4528021  70.8479432
  33.5005463  67.5336668  70.6412954  32.4159762  67.6422314  70.6458168
  33.8565907  67.4907323  69.6119808  34.1449544  68.7169602  71.3678772
  34.5071042  69.4798489  70.6787135  33.1801173  69.3470883  72.3583871
  33.2072134  69.0807273  73.5617854  32.3132541  70.2009097  71.8230177
  32.3709658  70.4239989  70.8396562  31.2921342  70.8650293  72.6234833
  31.7113863  71.1702699  73.5822090  30.7371349  72.1133582  71.9085626
  31.5661596  72.7803277  71.6719824  30.0138127  71.7263266  70.6231088
  29.1843146  71.0596849  70.8589509  29.6311761  72.6235649  70.1366402
  30.7081875  71.2186870  69.9535968  29.8271598  72.8007338  72.7763333
  29.4831820  73.5773166  72.3288976  30.1435718  69.9099950  72.9304296
  29.7051452  69.1527865  72.0641436  29.6517360  69.8672201  74.0559106
  49.4787746  16.5401791  76.5090063  50.4554807  16.5198520  76.7653907
  49.3611745  16.0413483  75.6386969  48.9261526  16.2861440  77.3153404
  49.1165833  17.9216818  76.2133299  48.7618051  17.9995897  75.1856325
  48.0037051  18.3935728  77.1519859  48.3659269  18.2600635  78.1713337
  47.8491763  19.4549738  76.9579529  46.6882257  17.6505729  76.9805274
  46.4067090  17.6840238  75.9280398  46.8343120  16.6139860  77.2842520
  45.5839343  18.2737645  77.8203940  45.8973125  18.2648046  78.8643350
  45.4408786  19.3036578  77.4933552  44.2770745  17.5110419  77.6775313
  43.9737026  17.5481023  76.6312557  44.4537339  16.4753047  77.9675984
  43.1993849  18.0866643  78.5267526  43.0352352  19.0462693  78.2578419
  42.3513119  17.5524053  78.4024969  43.4801182  18.0520271  79.4963341
  50.3258000  18.8437994  76.3392792  50.1851109  20.0663847  76.3414250
  51.5169405  18.2487918  76.4428133  51.5960933  17.2422455  76.4692474
  52.7304108  19.0435195  76.6136597  52.6392900  19.7715225  77.4197662
  53.9356208  18.1303002  76.9089263  54.8456732  18.7302190  76.9100261
  53.7695081  17.4598277  78.2629844  52.8598444  16.8593174  78.2625005
  54.6281442  16.8175504  78.4587507  53.7012493  18.2211540  79.0400459
  54.1146511  17.0915287  75.8092686  54.2824688  17.5948595  74.8571145
  54.9718801  16.4596743  76.0416863  53.2178918  16.4756849  75.7410040
  52.9741205  19.9187333  75.3906767  53.4733072  21.0454195  75.5058499
  52.6388314  19.4162608  74.2009185  52.3186804  18.4637601  74.0992081
  52.7885665  20.2280031  72.9975607  53.8183209  20.5735702  72.9065192
  52.4399159  19.4020406  71.7613299  53.0688146  18.5119050  71.7457043
  51.3927915  19.1054423  71.8218278  52.6509457  20.1499092  70.5764678
  52.4257440  19.6117767  69.8140391  51.9188557  21.4763851  73.0686919
  52.3445502  22.5635906  72.6604942  50.6977846  21.3427673  73.5891153
  50.3261910  20.4369984  73.8373096  49.8434194  22.5125642  73.7641017
  49.7117044  23.0224158  72.8097424  48.4681004  22.0906869  74.2871938
  48.5890623  21.8671300  75.3471418  47.8091312  22.9510963  74.1707664
  47.8599343  20.8870894  73.5813547  48.4792826  20.0188402  73.8064144
  46.8592656  20.7334626  73.9852857  47.7754138  21.0709347  72.0813580
  47.6399257  22.2276867  71.6294070  47.8448521  20.0590660  71.3525329
  50.4857861  23.5126350  74.7153306  50.4632939  24.7254093  74.4680927
  51.0630542  23.0200701  75.8132365  51.0356994  22.0322747  76.0220694
  51.6983625  23.9121371  76.7746318  50.9957214  24.6852799  77.0855094
  52.1395038  23.1280238  78.0097345  52.8555950  22.3774870  77.6750597
  52.6369684  23.8321763  78.6766665  51.0035994  22.4480651  78.7493367
  50.1907489  23.1606376  78.8893916  50.6511314  21.6088802  78.1496393
  51.4300823  21.9280994  80.1054732  52.6216428  21.8039741  80.3885251
  50.4575954  21.6267679  80.9569781  50.6860418  21.2756267  81.8760067
  49.4935906  21.7499930  80.6820024  52.8857288  24.6365200  76.1532843
  53.0716793  25.8364624  76.3751795  53.6930424  23.9300710  75.3603053
  53.5684428  22.9377748  75.2191580  54.8350996  24.5807944  74.7270255
  55.3974777  25.1475276  75.4690790  55.7617592  23.5376324  74.1042253
  55.0959473  22.9335216  73.4879106  56.4807525  24.0510916  73.4658616
  56.5086657  22.6315335  75.0879455  55.7867219  22.0107252  75.6185065
  57.4923217  21.7417415  74.3448332  58.2149121  22.3618762  73.8143664
  58.0154910  21.1036193  75.0570092  56.9527781  21.1209024  73.6296046
  57.2269954  23.4447474  76.1541532  56.5006188  24.0361188  76.7116085
  57.7470268  22.7719522  76.8360735  57.9487767  24.1096922  75.6798337
  54.3853646  25.5907864  73.6811819  55.0067775  26.6473188  73.5283025
  53.3053066  25.2944788  72.9564498  52.8717720  24.3829679  72.9924361
  52.7556398  26.2861072  72.0381147  53.5198295  26.6028987  71.3283567
  51.5853923  25.6839686  71.2597240  50.9606486  25.1533350  71.9782102
  51.0224300  26.5139662  70.8327843  52.0032122  24.7300058  70.1490636
  52.8494601  24.1404349  70.5017269  51.1654862  24.0677132  69.9306930
  52.3989401  25.4792160  68.8866526  51.5729057  26.1283163  68.5960758
  53.2776003  26.0860327  69.1053516  52.7151915  24.5216054  67.7485595
  53.1966464  25.0879732  66.9513586  53.4041535  23.7643573  68.1227332
  51.4916924  23.8599699  67.2176731  50.8533367  24.5614544  66.8705114
  51.7461239  23.2348725  66.4662625  51.0456480  23.3347590  67.9561154
  52.3117700  27.5357678  72.7896132  52.5985543  28.6646840  72.3678822
  51.6192753  27.3527012  73.9169657  51.3489276  26.4291482  74.2236597
  51.1805203  28.4993863  74.7052863  50.6017198  29.1819724  74.0830603
  50.3007861  28.0292755  75.8635754  49.4431251  27.4708368  75.4885248
  50.8728574  27.4005837  76.5459105  49.6248840  29.3716059  76.8666754
  48.9600597  28.5909828  77.7137495  52.3694687  29.2980875  75.2257208
  52.3483386  30.5336153  75.2186941  53.4137520  28.6095236  75.6924095
  53.3915169  27.6015107  75.7516959  54.5877557  29.3070771  76.2068610
  54.2800826  30.0644342  76.9278650  55.5327722  28.3272238  76.9011581
  55.7827571  27.5049909  76.2306809  56.4465676  28.8368199  77.2067555
  54.8573953  27.5661505  78.3989363  55.9292644  26.8290234  78.6757732
  55.3114958  30.0659701  75.1023274  55.8033780  31.1768181  75.3283419
  55.4062384  29.4788489  73.9079453  55.1181915  28.5219535  73.7613865
  55.9917712  30.2037657  72.7868776  56.9947982  30.5427016  73.0460275
  56.0847773  29.2945437  71.5623608  55.0770341  29.0037404  71.2657359
  56.5562079  29.8486792  70.7507038  56.8459135  28.1350629  71.8461510
  56.8895591  27.5813700  71.0631317  55.1803732  31.4498731  72.4641567
  55.7463652  32.5219268  72.2170616  53.8511484  31.3327648  72.4661766
  53.3927656  30.4446379  72.6118308  53.0232412  32.5092472  72.2537907
  53.2555744  32.9231826  71.2725782  51.9768197  32.2053236  72.2808429
  53.2548139  33.5762218  73.3071474  53.3496676  34.7651820  72.9942299
  53.3643584  33.1623072  74.5708055  53.2352949  32.1886583  74.8062832
  53.5947045  34.1129147  75.6563524  52.8713677  34.9281432  75.6394528
  53.5270409  33.3959847  77.0155559  54.0975256  32.4690518  76.9568800
  54.1062169  34.2794842  78.1122463  53.5359223  35.2064757  78.1718399
  54.0507136  33.7573164  79.0674221  55.1471864  34.5079831  77.8836199
  52.0816100  32.9966358  77.3285699  51.5244050  33.9172646  77.5019660
  51.6881458  32.4955030  76.4441767  51.9378091  32.0850655  78.5315420
  52.3306640  32.5857306  79.4164709  50.8848313  31.8492217  78.6855381
  52.4944072  31.1639694  78.3586823  54.9295166  34.8209888  75.4655728
  55.0257446  36.0512377  75.5685379  55.9854632  34.0525533  75.1949206
  55.9058304  33.0475120  75.1345053  57.3042927  34.6516409  75.0380012
  57.5484236  35.2486228  75.9167002  58.3614332  33.5639377  74.8787255
  58.1612832  32.8657028  75.6914414  58.2190843  33.0590166  73.9232719
  59.8017963  34.0641597  74.9804993  59.9148609  34.9501777  74.3557679
  60.1426805  34.4131825  76.4212154  60.0302867  33.5274845  77.0465197
  61.1719596  34.7677110  76.4759398  59.4704178  35.1948165  76.7750681
  60.7646871  33.0317884  74.4349317  60.5328258  32.8353001  73.3881594
  61.7848733  33.4068778  74.5163515  60.6708210  32.1086167  75.0068076
  57.3310500  35.5996067  73.8483770  57.9758382  36.6532205  73.9005612
  56.6400223  35.2441385  72.7644618  56.2197316  34.3298148  72.6780485
  56.5308418  36.1642329  71.6387994  57.5241991  36.4708106  71.3111552
  55.8193979  35.4849833  70.4701213  56.4314594  34.6333183  70.1732261
  54.8587453  35.1291474  70.8424484  55.5932694  36.3904882  69.2678149
  55.0725554  35.8197104  68.4989388  54.9718428  37.2298491  69.5799117
  56.9059910  36.9130136  68.7084804  57.3830149  37.5343051  69.4664673
  57.5482925  36.0626392  68.4795447  56.6837924  37.7316570  67.4505357
  56.0615241  37.1506385  66.7698742  56.1618883  38.6479183  67.7265439
  57.9649785  38.0745631  66.7794451  58.4485417  37.2256719  66.5232223
  57.7753449  38.6176913  65.9492940  58.5415583  38.6133149  67.4098429
  55.7994122  37.4344506  72.0490272  56.1627970  38.5363011  71.6207540
  54.7616462  37.3006630  72.8772805  54.4190272  36.3904566  73.1497430
  54.0606176  38.4800813  73.3723861  53.6791334  39.0644845  72.5351036
  52.8843818  38.0640483  74.2532668  52.1472214  37.5844947  73.6092776
  53.2583753  37.3407410  74.9778738  52.2364382  39.2255988  74.9862058
  52.9024081  39.5304586  75.7934514  52.1268666  40.0459476  74.2768956
  50.8835936  38.8698146  75.5570956  50.6462615  37.6733724  75.8243962
  50.0575808  39.7876977  75.7432443  55.0006282  39.3890218  74.1515293
  54.9665258  40.6143900  73.9921527  55.8478867  38.8079397  75.0022999
  55.8683481  37.8059148  75.1273068  56.7260758  39.6256780  75.8298813
  56.1400569  40.3562171  76.3875494  57.4809037  38.7420437  76.8250292
  57.9174037  37.9167285  76.2625155  58.2772925  39.3465437  77.2591314
  56.6005997  38.1882220  77.9374691  56.3083815  39.0241745  78.5729948
  55.7133831  37.7587485  77.4721721  57.4079793  36.9315344  78.9456752
  58.6075284  37.9204873  79.8303210  58.0911713  38.6813759  80.4155757
  59.1860452  37.2807323  80.4967537  59.2773814  38.4028522  79.1184768
  57.7086116  40.4378803  74.9949917  58.2953807  41.3950658  75.5085829
  57.9018268  40.0800720  73.7267129  57.4320944  39.2620489  73.3657573
  58.8035034  40.8047858  72.8424617  59.6067275  41.2619368  73.4203400
  59.4206158  39.8429169  71.8222777  58.7562329  38.9965657  71.6479668
  59.5946057  40.3671328  70.8825835  60.7405515  39.2719402  72.2456420
  60.7994069  38.1729045  73.0827504  59.8715192  37.7237275  73.4368187
  62.0125835  37.6448551  73.4700909  62.0454872  36.7807742  74.1337039
  63.1829789  38.2100651  73.0178231  64.1433027  37.7924836  73.3203192
  63.1402754  39.3041644  72.1823729  64.0663653  39.7545748  71.8251780
  61.9254648  39.8294906  71.7980181  61.8907471  40.6934836  71.1343838
  58.1260377  41.9437735  72.0927496  58.8169967  42.7186335  71.4225976
  56.8060613  42.0672088  72.1852531  56.2748447  41.4741108  72.8066573
  56.0846171  43.0255187  71.3622304  56.3983499  42.9119330  70.3245555
  54.5795167  42.7772983  71.4471683  54.2487628  42.8964013  72.4789223
  54.0563204  43.4934034  70.8134812  54.3581302  41.7647464  71.1097874
  56.3979657  44.4577569  71.7873506  56.8484503  44.7209083  72.9059444
  56.1528646  45.3940541  70.8663392  55.8989046  45.1447028  69.9211262
  56.2956441  46.8073954  71.1935968  57.2839100  46.9931681  71.6142133
  56.1314413  47.6617230  69.9352985  55.0940621  47.5615505  69.6160665
  56.3237550  48.6947708  70.2250014  57.0543100  47.2767605  68.7880548
  56.8223846  46.2528194  68.4950426  56.8545634  47.9473818  67.9523094
  58.5236373  47.3729745  69.1755778  58.6988100  46.7122972  70.0246473
  59.1245596  47.0422204  68.3284689  58.9150539  48.7941310  69.5502542
  58.5479331  49.4642656  68.7729238  58.4357397  49.0404377  70.4977193
  60.3885710  48.9511142  69.6846773  60.8328727  48.7233433  68.8067160
  60.6040985  49.9060042  69.9333398  60.7288950  48.3305474  70.4052156
  55.2896991  47.2463026  72.2444284  55.4736173  48.2965682  72.8679388
  54.2297576  46.4632494  72.4485989  54.0690572  45.6498675  71.8718107
  53.2522738  46.7822331  73.4803178  52.7624181  47.7300859  73.2573480
  52.1910902  45.6848507  73.5327627  51.9335455  45.4510135  72.4997621
  52.6627032  44.8173372  73.9943919  50.9315790  46.0428292  74.2989898
  51.2149996  46.5626117  75.2141945  50.3220440  46.7022419  73.6811355
  50.1306763  44.7926621  74.6516241  50.6915345  44.2319445  75.3993759
  49.1779792  45.1102134  75.0754506  49.8762305  43.9064899  73.4378263
  49.3508752  44.4978184  72.6878709  50.8397813  43.5886288  73.0395381
  49.0639692  42.7099088  73.7832136  48.1709113  43.0042249  74.1518939
  48.9184912  42.1511412  72.9545310  49.5507944  42.1616097  74.4778130
  53.9081035  46.9353615  74.8450688  53.4398290  47.7240170  75.6728408
  54.9871309  46.1930020  75.0978279  55.3059602  45.5293278  74.4064642
  55.7017787  46.2669786  76.3656386  55.2646893  47.0362725  77.0022224
  55.6014207  44.9206785  77.0863537  56.1073449  44.1433480  76.5137306
  56.0540487  44.9956636  78.0750928  54.1952640  44.4530606  77.2936186
  53.3558433  45.0047545  78.2353456  52.1859268  44.3929942  78.1945953
  51.3802602  44.6877214  78.8670061  52.2369660  43.4624574  77.2599241
  51.4874627  42.8358320  77.0036326  53.4833844  43.4781983  76.6820329
  53.7227814  42.7759792  75.8834851  57.1662951  46.6492135  76.1944972
  57.9208446  46.6167267  77.1740244  57.5908199  47.0112721  74.9825871
  56.9633149  47.0043291  74.1912031  58.9866561  47.3678444  74.7551389
  59.6046498  46.5367479  75.0949349  59.2363656  47.5839395  73.2628393
  58.6312363  48.4189948  72.9098503  60.2909752  47.8052006  73.0986977
  58.9652218  46.6819542  72.7142021  59.4089693  48.6073174  75.5303080
  60.6109798  48.8596429  75.6647206  58.4572247  49.3893785  76.0398959
  57.4774095  49.2065740  75.8766662  58.8206961  50.5758730  76.8035360
  59.4518610  51.2136130  76.1846517  57.5624024  51.3547505  77.1826345
  56.9244523  50.7323481  77.8101176  57.8426576  52.2547212  77.7300010
  57.0210003  51.6337176  76.2786653  59.6173670  50.2176338  78.0505930
  60.6040394  50.8865462  78.3771094  59.2075250  49.1660189  78.7625176
  58.4231044  48.6154166  78.4437374  59.8307418  48.8106774  80.0288174
  60.7250319  49.4139631  80.1849928  58.8606016  49.0647492  81.1865503
  59.3795150  48.8638297  82.1238120  58.5831000  50.1179751  81.1440278
  57.6219390  48.2171080  81.1083945  57.5877936  46.9600509  81.6838217
  58.4769483  46.5892812  82.1937562  56.4618002  46.1846820  81.6207112
  56.4493862  45.1939353  82.0749895  55.3383965  46.6658509  80.9888793
  54.2131728  45.8838016  80.9321547  54.3259255  45.0326126  81.3615306
  55.3422520  47.9118540  80.4102374  54.4558937  48.2918821  79.9022531
  56.4795387  48.6815404  80.4766903  56.4923851  49.6748164  80.0279835
  60.3131458  47.3694892  80.1265152  60.8274472  46.9874492  81.1825826
  60.1573339  46.5579700  79.0860358  59.6456264  46.8666859  78.2718188
  60.6605968  45.1920110  79.1080204  60.7659782  44.8931292  80.1509315
  59.6597991  44.2540063  78.4291976  59.5504747  44.5350284  77.3817365
  60.0214887  43.2277883  78.4936756  58.6936389  44.3301933  78.9280255
  62.0220204  45.0508617  78.4432771  62.5441169  43.9360439  78.3636677
  62.6092796  46.1459676  77.9756365  62.1737251  47.0458379  78.1192510
  63.8299473  46.0878819  77.1803320  63.7389954  45.3177458  76.4143573
  64.0766865  47.4343376  76.4936539  65.0396857  47.4014756  75.9840933
  63.2885544  47.6333005  75.7674572  64.1189526  48.6108811  77.4110377
  63.0644971  49.3769277  77.8096119  62.0827195  49.1024304  77.4237833
  63.4948568  50.3728289  78.6497122  62.9082975  51.0713049  79.0835081
  64.8508977  50.2652038  78.8053908  65.7302355  51.0364574  79.5533553
  65.3316708  51.8727702  80.1276598  67.0515267  50.6934823  79.5205723
  67.7717685  51.2767436  80.0942951  67.5056594  49.6086537  78.7666072
  68.5632371  49.3453497  78.7492882  66.6358855  48.8406906  78.0245337
  67.0399409  48.0027276  77.4565039  65.2779365  49.1670408  78.0368274
  65.0612727  45.6747132  77.9861722  65.9869980  45.0924258  77.4080899
  65.1414610  45.9462041  79.2942103  64.1960977  46.6399895  80.1856367
  63.4019036  45.9540487  80.4803252  63.7631501  47.4940590  79.6648481
  65.0543577  47.0498553  81.3343301  64.4481258  47.1320976  82.2364488
  65.5202610  48.0119711  81.1213305  66.0684435  45.9926678  81.4633478
  65.6809769  45.1600410  82.0504604  66.9855395  46.3635773  81.9210166
  66.3494648  45.5318215  80.0268956  67.1929309  46.0689184  79.5930869
  66.6169736  44.0400457  79.9685422  67.7809919  43.6304835  80.0368007
  65.5809916  43.2144798  79.8489588  64.6493861  43.5983405  79.7792355
  65.7315102  41.7654255  79.8656863  66.6431277  41.4902429  80.3960892
  64.5383918  41.1242715  80.5785537  63.6458482  41.2122294  79.9590953
  64.7387595  40.0717270  80.7788111  64.2089916  41.7570831  81.8981922
  65.1132745  41.7229842  82.9437976  66.0757940  41.2316546  82.8014902
  64.8077003  42.3024279  84.1571291  65.5285733  42.2698628  84.9740638
  63.5929304  42.9215745  84.3363209  63.3509014  43.3805088  85.2949143
  62.6828095  42.9616321  83.3050128  61.7191521  43.4512938  83.4453553
  62.9909988  42.3816851  82.0936583  62.2709004  42.4120760  81.2759574
  65.8675604  41.1541934  78.4769892  66.0838951  39.9428327  78.3720778
  65.7488025  41.9492782  77.4125956  65.6332493  42.9476598  77.5125007
  65.7286425  41.3814306  76.0680705  64.8757124  40.7113642  75.9602721
  65.6104488  42.4939764  75.0265937  66.2498764  43.3065679  75.3714512
  66.0030051  42.0954160  74.0910996  64.2085455  43.0161750  74.8029267
  63.1939046  42.7691902  75.7154273  63.4190922  42.1881243  76.6097160
  61.9149471  43.2462328  75.5058062  61.1268186  43.0472703  76.2320082
  61.6377738  43.9774680  74.3711644  60.3660304  44.4554084  74.1542529
  59.7528327  44.2215022  74.8548783  62.6286217  44.2331159  73.4508636
  62.4105454  44.8120402  72.5534284  63.9022786  43.7528315  73.6686940
  64.6907242  43.9499889  72.9423452  66.9632840  40.5409244  75.7769008
  66.8906536  39.5931698  74.9872654  68.0955247  40.8607131  76.3864869
  68.1013845  41.6121296  77.0613486  69.3510519  40.1905886  76.0903290
  69.1465781  39.2421325  75.5936191  70.2356807  41.0436199  75.1727760
  70.3296231  42.0276917  75.6319891  71.2156668  40.5683748  75.1295398
  69.6835103  41.1923802  73.7669894  69.5222789  40.1967027  73.3537924
  68.7312075  41.7194293  73.8256467  70.6336571  41.9637980  72.8704752
  70.8440166  42.9277433  73.3337864  71.5598927  41.3970953  72.7754212
  70.0322477  42.1847991  71.4935812  69.8404759  41.2091220  71.0470631
  69.0900642  42.7187674  71.6171420  70.9324454  42.9675085  70.6058181
  71.8053904  42.4726870  70.4908471  70.4934237  43.0896552  69.7044635
  71.1099280  43.8717913  71.0191843  70.0824970  39.8927876  77.3879609
  69.7873251  40.4951744  78.4259458  71.0385022  38.9634459  77.3633228
  71.4995262  38.1690848  76.2128792  72.1012545  38.7983630  75.5571108
  70.6360854  37.7938321  75.6635574  72.2937563  37.0729117  76.8428166
  73.1077696  36.7905938  76.1751505  71.6467437  36.2118680  77.0103870
  72.8083113  37.6078244  78.1294633  73.7584669  38.1024262  77.9277898
  72.9497874  36.8511177  78.9011362  71.7716484  38.6390471  78.5917401
  71.0709145  38.2291634  79.3191090  72.4390241  39.8754052  79.1729719
  72.9693999  40.7179268  78.4471696  72.4086518  39.9783165  80.4988500
  71.9172369  39.2990357  81.0620447  73.0346691  41.1098301  81.1708182
  72.7842569  42.0563024  80.6916700  72.6105998  41.1784773  82.6425134
  72.8433058  40.2285997  83.1238446  73.3479003  42.3023613  83.3560369
  73.1153091  43.2526824  82.8755246  73.0354138  42.3374423  84.3996949
  74.4218326  42.1231011  83.3046871  71.1056791  41.3639063  82.7526362
  70.5997798  40.5238833  82.2766852  70.8207932  41.4107349  83.8037055
  70.8159505  42.2902362  82.2565808  74.5452041  40.9796767  81.0354745
  75.1427250  40.0017238  81.4994496  75.1683522  41.9651173  80.3983597
  74.6396436  42.7391854  80.0223473  76.6077711  41.9413976  80.1798272
  76.9250883  40.9324391  79.9163662  76.9901063  42.8851821  79.0433428
  76.3495876  42.6584430  78.1910375  76.8017607  43.9054733  79.3774562
  78.4447302  42.7479785  78.6331641  79.2703735  42.3334985  79.4740087
  78.7643260  43.0559115  77.4668534  77.3146888  42.3306122  81.4723608
  77.1130466  43.4340929  81.9886504  78.1418144  41.4232033  81.9940440
  78.2583657  40.5160503  81.5655718  78.8471442  41.6944889  83.2404453
  78.2104482  42.1732598  83.9844182  79.4012959  40.3860987  83.8354789
  80.0129924  40.6202402  84.7067448  78.2575863  39.4733404  84.2499574
  77.6456691  39.2383688  83.3790690  78.6612172  38.5516677  84.6691258
  77.6450028  39.9748781  84.9991591  80.3270224  39.6837275  82.8444197
  81.1635684  40.3387102  82.6009231  80.7046303  38.7629355  83.2890027
  79.7745008  39.4475428  81.9350037  79.9686774  42.7039342  83.0524017
  80.4347809  43.2932494  84.0345836  80.4206547  42.9212122  81.8199259
  80.0117488  42.4152425  81.0473394  81.5273094  43.8279690  81.5434760
  82.0513695  44.0702325  82.4680129  82.5175547  43.1685330  80.5776537
  82.8339283  42.2314889  81.0358624  81.9726957  42.9567429  79.6576681
  83.7383779  44.0134397  80.2593815  83.4065339  44.8933578  79.7082694
  84.1868330  44.3241484  81.2030167  84.7643471  43.2596992  79.4367670
  85.0507217  42.0908481  79.7700215  85.2828667  43.8345876  78.4566875
  81.0650836  45.1590110  80.9671650  81.6467544  46.2009403  81.2809475
  80.0297926  45.1446702  80.1295583  79.5901121  44.2677939  79.8889998
  79.5379564  46.3598141  79.4966447  80.4016855  46.9595452  79.2096017
  78.7446975  46.0109501  78.2365304  77.8715101  45.4180519  78.5087724
  78.4213403  46.9282762  77.7445414  79.3750576  45.4375221  77.5568792
  78.6726463  47.2006208  80.4222939  78.2627407  48.2971840  80.0301874
  78.3758138  46.7142442  81.6268761  78.6261304  45.7620809  81.8523225
  77.6452734  47.4879618  82.6176803  77.5159216  48.5122534  82.2681178
  76.2604219  46.8723490  82.8546873  76.4706505  45.8378931  83.1263566
  75.7863596  47.3790611  83.6952869  75.3217074  46.9013912  81.6469619
  75.8464931  46.4941428  80.7827573  74.0743022  46.0776744  81.9157530
  73.5487007  46.4846281  82.7795994  73.4207483  46.1120716  81.0440965
  74.3569614  45.0443265  82.1167412  74.9501150  48.3242379  81.2837036
  75.8523401  48.8846993  81.0388112  74.2823008  48.3172589  80.4222649
  74.4479335  48.7960652  82.1282696  78.3861820  47.6009093  83.9411025
  77.8623013  48.2189128  84.8748549  79.5798927  47.0211095  84.0552251
  79.9144144  46.4203116  83.3154708  80.4264276  47.2213056  85.2125847
  81.4419469  46.9702292  84.9063488  80.3739289  48.2813826  85.4607378
  80.0670550  46.4102372  86.4384735  80.7130179  46.5812979  87.4799148
  79.0689207  45.5343611  86.3576900  78.5700666  45.4200839  85.4869520
  78.6260975  44.7615749  87.5165528  78.6063801  45.3992838  88.4003162
  77.2270726  44.2085979  87.2844523  77.3575537  43.4713788  86.4922516
  76.8915590  43.7090375  88.1932813  76.1833810  45.2380606  86.8547042
  76.5361797  45.7508001  85.9598678  74.8596453  44.5546779  86.5575969
  74.5059594  44.0420726  87.4521588  74.1255450  45.3004569  86.2526196
  74.9962390  43.8304465  85.7545206  76.0088861  46.3076477  87.9223178
  76.9585140  46.8172523  88.0854419  75.2610720  47.0299317  87.5949325
  75.6818684  45.8432151  88.8526192  79.6314671  43.6477264  87.7716600
  79.5044307  42.5318346  87.2671314  80.6526208  43.9632373  88.5700910
  80.7479134  44.8949523  88.9481461  81.6919026  42.9842914  88.8723495
  82.0878059  42.5618152  87.9488379  82.8365139  43.6560785  89.6325777
  82.5041861  43.9564700  90.6262691  83.6761278  42.9669895  89.7237085
  83.3639260  44.8876300  88.9672482  83.8618020  44.8840953  87.6820844
  84.2549117  46.1030571  87.3611534  84.6800732  46.3094178  86.3789355
  84.0313474  46.8972359  88.3932082  84.2332181  47.8858734  88.4372985
  83.4748953  46.1610386  89.4097099  83.2165653  46.6423299  90.3529625
  81.1350248  41.8165243  89.6768599  81.4106950  40.6497593  89.3727966
  80.3489389  42.1124208  90.7125612  80.1183493  43.0737172  90.9195322
  79.8496776  41.0745354  91.6054408  80.6342079  40.3452758  91.8074109
  79.4065870  41.6968731  92.9326817  79.1677524  40.8844354  93.6189778
  80.2444037  42.2712548  93.3279650  78.1975188  42.6039250  92.7820735
  77.7089754  42.7765050  91.6451850  77.7335030  43.1470896  93.8072718
  78.6969929  40.2743458  91.0144037  78.4233000  39.1708331  91.4976187
  78.0168789  40.7956013  89.9905421  78.2555041  41.6947340  89.5972003
  76.8590743  40.0901699  89.4516462  76.0897546  39.9977427  90.2182645
  76.2783311  40.8586627  88.2682379  76.0797727  41.8764091  88.6041933
  77.0447416  40.8753995  87.4933606  75.0098570  40.2566408  87.7088301
  73.7684372  40.6182181  88.2082356  73.7193471  41.3455340  89.0186066
  72.6079893  40.0749983  87.6979466  71.6384270  40.3682260  88.1005238
  72.6792401  39.1571069  86.6740029  71.5258726  38.6121710  86.1620046
  70.7327565  38.9415740  86.5910270  73.8997284  38.7820711  86.1599092
  73.9567881  38.0551814  85.3496771  75.0556985  39.3321531  86.6763510
  76.0254040  39.0412545  86.2724336  77.2125107  38.6706610  89.0319675
  76.3636391  37.7752695  89.0988113  78.4535041  38.4432941  88.5961261
  79.0994968  39.1996358  88.4207981  78.8897309  37.0812892  88.3107159
  78.2460527  36.6347786  87.5528203  80.3266487  37.0884444  87.7887291
  80.9914933  37.5358935  88.5275594  80.6531738  36.0704605  87.5761496
  80.5728066  38.0217283  86.2636802  81.8777674  37.7846959  86.1647294
  78.7835115  36.2044779  89.5502180  78.4057842  35.0303554  89.4616043
  79.1101548  36.7611066  90.7176522  79.4005125  37.7275539  90.7597389
  79.1187554  35.9822827  91.9506102  79.4188000  34.9549420  91.7441076
  80.1129362  36.5923506  92.9406414  79.8538152  37.6433275  93.0687159
  80.0019031  36.0727120  93.8923490  81.5496369  36.4802156  92.4684923
  81.7947985  35.7808015  91.4623453  82.4346222  37.0895694  93.1040354
  77.7332185  35.8936778  92.5811693  77.2867844  34.8055255  92.9594009
  77.0352044  37.0239415  92.7051904  77.3834722  37.9066922  92.3594157
  75.7770593  37.0183203  93.4443177  75.8891133  36.5142932  94.4042655
  75.2866137  38.4586607  93.6757105  75.4755222  39.0456217  92.7768831
  73.7938297  38.4726787  93.9871465  73.6041847  37.8862642  94.8861756
  73.4652729  39.4995017  94.1477256  73.2435316  38.0423028  93.1504579
  76.0858993  39.0976689  94.8145648  75.8318276  38.5558908  95.7256218
  77.1412510  38.9487060  94.5862176  75.8165699  40.5741860  95.0140843
  74.7614355  40.7239030  95.2429424  76.4232477  40.9464049  95.8396110
  76.0708569  41.1167181  94.1035367  74.7256445  36.1746476  92.7360773
  73.9026670  35.5256914  93.3928747  74.7203051  36.1626087  91.4062151
  75.3693800  36.7563843  90.9099978  73.7767828  35.3682612  90.6285180
  73.0258439  34.9255185  91.2828641  73.0806350  36.2082749  89.5446465
  73.8380716  36.6715504  88.9123760  72.1773166  35.3291257  88.6921809
  71.4192828  34.8658384  89.3237268  71.6915982  35.9378869  87.9295616
  72.7730981  34.5530183  88.2117634  72.2779440  37.3423985  90.1859613
  72.9897371  37.9791159  90.7113584  71.8176595  37.9056843  89.3742059
  71.2031263  36.8797295  91.1534991  71.6627323  36.3167260  91.9658348
  70.6833051  37.7465547  91.5615421  70.4906555  36.2432921  90.6286822
  74.5342536  34.2007705  90.0147490  75.5836037  34.3920909  89.3896675
  74.0004331  32.9947681  90.1937873  73.1207955  32.9149494  90.6836505
  74.6571029  31.7739712  89.7518804  75.6972384  31.9781141  89.4978272
  74.6227260  30.7304706  90.8736441  73.5799227  30.4410466  91.0036218
  75.1965834  29.8722369  90.5240406  75.1863028  31.2092511  92.2055902
  74.5923478  32.0604460  92.5384348  75.0908726  30.3965051  92.9256174
  76.6447088  31.6210707  92.0976106  77.2151990  30.7829628  91.6973419
  76.7184044  32.4685617  91.4161216  77.2052853  32.0128139  93.4553736
  78.1615034  32.5108823  93.2951382  76.5073318  32.7085917  93.9210488
  77.4018032  30.8376403  94.3459429  78.0488437  30.1929953  93.9148152
  77.7741939  31.1458311  95.2327595  76.5157954  30.3762261  94.4948931
  74.0321345  31.1797077  88.4980417  74.5288726  30.1644427  87.9993151
  72.9611633  31.7748864  87.9771224  72.5836600  32.5984437  88.4236019
  72.2698074  31.2446154  86.8005798  72.9882963  30.7459856  86.1500099
  71.1936159  30.2361335  87.2035563  70.5376752  30.6658095  87.9606690
  70.6043043  29.9527336  86.3314919  71.7407102  28.9690753  87.7805107
  72.1154758  28.8543977  89.1028714  72.5606494  27.6321579  89.3273070
  72.9071468  27.3415146  90.3190554  72.4884070  26.9481035  88.1996330
  72.7594312  25.9837881  88.0702439  71.9804777  27.7628045  87.2164545
  71.8461046  27.3782164  86.2054465  71.6647724  32.3957073  86.0158065
  70.4648134  32.6805780  86.1145849  72.4716159  33.0892394  85.2146600
  73.9287338  32.9569951  85.0578865  74.1511923  32.1272897  84.3869161
  74.3862876  32.7705940  86.0294822  74.3243121  34.2781949  84.4865732
  75.2209311  34.1623168  83.8776844  74.5224322  34.9836191  85.2935593
  73.1600668  34.7228239  83.6637471  73.2418430  34.2672444  82.6769042
  73.0774846  35.8045596  83.5582593  71.9272902  34.1724453  84.3914829
  71.4708364  34.9118022  85.0495858  70.8858029  33.6556422  83.4113902
  70.9673860  32.5268255  82.9204950  69.8942389  34.4983203  83.1312021
  69.8445102  35.3913464  83.6003832  68.8386273  34.1531475  82.1917363
  69.2456437  33.5122454  81.4096357  67.6920343  33.4079241  82.8894070
  68.1415282  32.5829101  83.4420428  67.2391219  34.1096610  83.5897895
  66.6224220  32.8665394  81.9508803  65.9194278  32.2886865  82.5508686
  66.1074164  33.7204337  81.5107259  67.2739455  31.8230032  80.6322146
  67.8655114  30.4165644  81.5695969  67.0344738  29.9647042  82.1111669
  68.2978090  29.6821667  80.8899797  68.6248463  30.7455189  82.2790337
  68.3270342  35.4266351  81.5365814  68.4630419  36.5254637  82.0790227
  67.7349041  35.2657642  80.3557120  67.6802425  34.3476068  79.9384609
  67.2007593  36.3959585  79.6094338  66.6136098  37.0268874  80.2767293
  68.3240275  37.2382019  79.0032294  67.8699307  38.0917975  78.4999701
  68.9575997  37.5915833  79.8167452  69.1600030  36.4592652  78.0168053
  70.0535586  35.7128594  78.4647997  68.9269849  36.5919566  76.7978330
  66.2697640  35.8722772  78.5264566  66.3479000  34.7093943  78.1245200
  65.3873889  36.7553101  78.0554617  65.4064322  37.7224739  78.3458594
  64.3220264  36.3237640  77.1564752  63.7584138  35.5078638  77.6089649
  63.3671741  37.4845863  76.8844428  63.9717674  38.3812119  76.7479555
  62.8351216  37.2615100  75.9596417  62.3625963  37.7160926  78.0040857
  61.6205356  36.9196236  77.9485539  62.9020176  37.6441969  78.9485208
  61.5265059  39.3127726  77.9186055  60.9057356  39.2898964  76.2406865
  60.2336734  38.4413067  76.1129097  60.3646388  40.2146410  76.0402810
  61.7401825  39.1997851  75.5452157  64.8676612  35.7677729  75.8480706
  64.2737830  34.8490718  75.2722426  65.9873586  36.3014409  75.3567029
  66.4297810  37.0995933  75.7895014  66.5676018  35.7710025  74.1273889
  65.8168937  35.7595124  73.3371961  67.7381792  36.6425868  73.6759939
  68.3776540  36.8415916  74.5359754  68.3058131  36.1008558  72.9194099
  67.2806748  37.8686943  73.1345031  68.0331104  38.3973232  72.8588366
  67.0184110  34.3276608  74.3093251  66.8208073  33.4898773  73.4216385
  67.6378131  34.0188879  75.4498839  67.8683495  34.7251679  76.1340775
  68.0539673  32.6454496  75.7070899  68.6861437  32.2780679  74.8987071
  68.8421798  32.5713570  77.0164304  68.2696950  33.0681044  77.7997587
  69.0964904  31.1255882  77.4141637  69.6693674  30.6282829  76.6314767
  69.6582851  31.0985073  78.3478405  68.1443371  30.6123393  77.5486269
  70.0957578  33.2479947  76.8623765  70.5883922  33.2001827  77.6849491
  66.8534620  31.7091412  75.7531603  66.8894443  30.6134919  75.1828202
  65.7714841  32.1317847  76.4082552  65.7759815  33.0035146  76.9183201
  64.5785414  31.2950501  76.4792829  64.8206213  30.2825593  76.8023293
  63.5554192  31.9129801  77.4512172  63.4149287  32.9630014  77.1946667
  62.2167478  31.1839626  77.3615428  62.3563606  30.1339053  77.6184251
  61.5088390  31.6363541  78.0560266  61.8280795  31.2604802  76.3460719
  64.1122507  31.8681269  78.8772918  64.3715785  30.8296300  79.0831417
  65.0170073  32.4759783  78.8829061  63.1595768  32.3711991  79.9427874
  62.2547118  31.7635009  79.9380906  63.6375890  32.3026526  80.9199798
  62.9001388  33.4098491  79.7378534  63.9915371  31.0893558  75.0885145
  63.5454890  29.9873602  74.7439340  63.9686091  32.1438337  74.2729658
  64.2628407  33.0589663  74.5829005  63.4546763  32.0057772  72.9145501
  62.4429654  31.6007883  72.9374464  63.4190784  33.3691679  72.2277897
  62.8977045  34.0532361  72.8973561  64.4519561  33.6959777  72.1075442
  62.7301877  33.3623421  70.8752244  63.2433069  32.6517987  70.2271985
  61.6961599  33.0463502  71.0132022  62.7572516  34.7403600  70.2367708
  62.2487292  35.4385561  70.9016214  63.7970389  35.0448489  70.1174880
  62.0714054  34.7411761  68.8821239  62.5319459  33.9690010  68.2658865
  61.0180276  34.5049067  69.0326935  62.1913387  36.0572403  68.1991394
  63.1673370  36.2761612  68.0591367  61.7238311  36.0162341  67.3047932
  61.7642740  36.7728271  68.7697971  64.2957200  31.0248834  72.1097676
  63.7553757  30.1848902  71.3794722  65.6216201  31.1150216  72.2287004
  66.0561290  31.8516605  72.7659755  66.4837100  30.1707669  71.5257935
  66.2686556  30.1947536  70.4574886  67.9518990  30.5394425  71.7368388
  68.1339707  30.6440899  72.8064173  68.5727380  29.7362121  71.3400013
  68.2752911  31.7528941  71.0823362  69.2008268  31.9599006  71.2311038
  66.2223655  28.7443593  71.9888729  66.1498030  27.8205093  71.1708375
  66.0755157  28.5449325  73.3008005  66.1879775  29.2991400  73.9630865
  65.8160178  27.2045406  73.8162144  66.5886173  26.5176461  73.4707216
  65.8203280  27.2156736  75.3439733  65.0326460  27.9004377  75.6582257
  65.5734604  26.2049916  75.6690554  67.1398977  27.6405810  75.9687544
  67.3924810  28.6297023  75.5867316  67.0018623  27.6931160  77.0487027
  68.2619264  26.6751834  75.6500803  67.9713259  25.6787358  75.9828602
  68.4198213  26.6658427  74.5716178  69.5478506  27.0860651  76.3461443
  69.8022783  28.0951407  76.0219011  69.3676330  27.0850191  77.4211419
  70.6736065  26.1658208  76.0315063  70.8410446  26.1669720  75.0354828
  71.5057967  26.4749470  76.5131708  70.4382243  25.2308136  76.3322651
  64.4972980  26.6580264  73.2842884  64.4110347  25.4842225  72.9073440
  63.4564840  27.4928260  73.2432663  63.5128348  28.4290276  73.6180337
  62.1767041  27.0375350  72.7073368  61.8742037  26.1170740  73.2066806
  61.0947331  28.0936367  72.9323833  61.6275089  29.0401044  72.8404704
  60.3617096  28.0105039  72.1299710  60.3787662  28.0406231  74.2847452
  61.1244333  28.0204307  75.0795242  59.4832863  29.2541165  74.4620119
  58.7370176  29.2747398  73.6678101  58.9828437  29.1989057  75.4287641
  60.0863003  30.1610002  74.4168852  59.5707025  26.7601910  74.4216418
  60.2358150  25.9001389  74.3439553  59.0717856  26.7466507  75.3906619
  58.8243184  26.7144342  73.6285995  62.2906294  26.6996862  71.2263029
  61.7380700  25.6919752  70.7694203  62.9997417  27.5284753  70.4578549
  63.3850124  28.3890388  70.8199272  63.1821059  27.2310208  69.0407384
  62.2120161  27.0920387  68.5635498  63.9086751  28.3826724  68.3445474
  64.7449380  28.6683413  68.9826359  64.2891727  27.9981101  67.3982739
  63.0332840  29.5984478  68.0820582  62.1242078  29.2568126  67.5871171
  62.7778497  30.0405795  69.0450598  63.7206900  30.6368871  67.2156226
  64.9457853  30.5212332  67.0042661  63.0358160  31.5689841  66.7447426
  63.9461581  25.9287975  68.8422402  63.7644967  25.2517092  67.8241470
  64.8010825  25.5664162  69.7941898  64.9784371  26.2012355  70.5594670
  65.5411275  24.3132427  69.7512157  65.6387540  24.0197245  68.7060290
  66.9423785  24.5117191  70.3367641  66.8613604  24.7971155  71.3856134
  67.5054335  23.5818904  70.2562164  67.4590011  25.2976043  69.7857787
  64.8342306  23.1821761  70.4883366  65.3839741  22.0796625  70.5740791
  63.6358291  23.4246674  71.0198973  63.2642618  24.3631854  70.9849534
  62.8660140  22.4000167  71.7241861  61.9764242  22.8495557  72.1653708
  62.4292272  21.2914867  70.7657836  63.3335639  20.8667638  70.3300259
  61.9218511  20.5319884  71.3606214  61.5057436  21.7650047  69.6546100
  60.9251390  20.9106922  69.3065449  60.8331249  22.5168302  70.0674593
  62.2775699  22.3615991  68.4886528  62.3957345  23.4328830  68.6514005
  63.2598760  21.8922293  68.4351159  61.5913809  22.1549293  67.2192205
  60.7715930  21.5650960  67.2312080  61.9725882  22.6848422  66.0653581
  63.0392223  23.4641965  65.9803788  63.5812337  23.6652615  66.8085675
  63.3061078  23.8541681  65.0877457  61.2660067  22.4287832  64.9681433
  60.4499533  21.8362562  65.0235392  61.5487006  22.8280233  64.0845200
  63.6523475  21.8171605  72.8953596  63.5969958  20.6179181  73.1716183
  64.3940051  22.6770881  73.5935840  64.4671942  23.6420514  73.3044672
  65.1595254  22.2440918  74.7550723  65.6459147  21.2912864  74.5460593
  66.2350261  23.2781376  75.0934694  65.7192304  24.1874166  75.4021208
  66.8067579  22.8825697  75.9329626  67.1788229  23.5964214  73.9422922
  66.5688440  23.8465914  73.0742821  67.7756836  24.4625489  74.2280887
  68.0973971  22.4420151  73.5977731  68.0794227  21.4266573  74.3251310
  68.8407496  22.5506613  72.6001900  64.2815138  22.0067885  75.9769281
  64.7387095  21.3800554  76.9379893  63.0405241  22.4937491  75.9649357
  62.7142649  22.9714850  75.1370331  62.1402646  22.4000101  77.1096208
  62.7234019  22.2752074  78.0220211  61.2885844  23.6603709  77.2434130
  60.8276264  23.8389147  76.2719506  60.5136735  23.4406707  77.9778140
  62.0513901  24.8881520  77.6704353  62.3982249  25.0820436  78.9990405
  62.1066512  24.3305157  79.7327230  63.0980230  26.1988322  79.3981928
  63.3651560  26.3389427  80.4456234  63.4568737  27.1429203  78.4648300
  64.1527529  28.2610826  78.8604108  64.3319515  28.2772616  79.8033985
  63.1260996  26.9720364  77.1375305  63.4149296  27.7189910  76.3981142
  62.4281660  25.8523669  76.7478241  62.1630186  25.7127650  75.6998220
  61.2409364  21.1806841  76.9568886  60.3479640  21.1617103  76.1038562
  61.4791635  20.1627620  77.7862916  62.2277195  20.2011573  78.4632621
  60.6929291  18.9392757  77.6943418  60.6974560  18.5705442  76.6686149
  61.2845481  17.8621363  78.6031958  61.1811935  18.2175653  79.6284214
  60.6817270  16.9641203  78.4680147  62.7438284  17.5393659  78.3237353
  62.8216356  17.0915065  77.3330442  63.3200299  18.4642447  78.3500642
  63.2894058  16.5749541  79.3581029  62.6861163  15.6671325  79.3588980
  64.3208927  16.3248885  79.1099065  63.2584952  17.1581142  80.6956764
  63.6568249  18.0814583  80.7898493  62.7575811  16.5708817  81.7762877
  62.2166764  15.3632344  81.7275518  62.1784981  14.8653999  80.8495978
  61.8447718  14.9455045  82.5685561  62.7967802  17.2162323  82.9393333
  63.2041061  18.1391840  82.9877658  62.4190289  16.7801474  83.7683283
  59.2360820  19.1935406  78.0573431  58.3380615  18.5303488  77.5259949
  58.9853421  20.1448716  78.9559413  59.7557710  20.6137626  79.4105619
  57.6317704  20.4988856  79.3529031  56.9744711  20.4383705  78.4854961
  57.0997232  19.5557793  80.4372062  56.0271087  19.7241962  80.5332953
  57.2780947  18.5329339  80.1054368  57.7659162  19.7741510  81.7770389
  57.3650982  20.7141633  82.4924066  58.6888786  19.0038105  82.1158026
  57.6274975  21.9428423  79.8359307  58.6726093  22.5180141  80.1487896
  56.4270572  22.5245896  79.8920576  55.5920075  21.9936522  79.6898277
  56.2883026  23.9474149  80.1844072  56.9111201  24.4912254  79.4741483
  54.8351917  24.3792453  79.9902932  54.2002947  23.8499004  80.7007859
  54.7493473  25.4530019  80.1569600  54.5180813  24.1432581  78.9744928
  56.7448636  24.3215856  81.5887855  57.0327893  25.4983508  81.8363101
  56.8098156  23.3640111  82.5150486  56.5451527  22.4098918  82.3157768
  57.2109515  23.7003838  83.8763878  56.5820281  24.5024728  84.2626621
  57.0605619  22.4812581  84.7851894  56.1194973  21.9967650  84.5248756
  57.8886465  21.8078151  84.5641677  57.0636125  22.8178453  86.2664620
  56.9882808  21.8894921  86.8326654  57.9986605  23.3197157  86.5152859
  55.9091181  23.7207012  86.6597050  54.8422403  23.6845269  86.0454760
  56.1193778  24.5409126  87.6829831  55.3842957  25.1635285  87.9864715
  57.0133816  24.5382449  88.1529313  58.6410888  24.2237216  83.9125941
  58.9509192  25.1568446  84.6639666  59.5282157  23.6385695  83.1061284
  59.2961105  22.8072953  82.5815242  60.8875862  24.1599035  83.0103384
  61.3479971  24.1838519  83.9980365  61.7304701  23.2662164  82.0998790
  61.2608087  23.2779484  81.1163243  62.7200596  23.7185203  82.0348110
  61.8607574  21.8295179  82.5820279  62.3137527  21.8507731  83.5732112
  60.8590170  21.4052534  82.6499607  62.7099044  20.9761625  81.6558481
  62.7216846  21.2497296  80.4377630  63.3628415  20.0312921  82.1464988
  60.8880845  25.5938943  82.4981595  61.6477887  26.4360604  82.9894351
  60.0450817  25.8914814  81.5073693  59.4756744  25.1775247  81.0759293
  59.9711121  27.2507446  80.9770429  60.9579417  27.5890501  80.6611064
  59.0362515  27.2719238  79.7662646  59.5655154  26.9013165  78.8884097
  58.1609316  26.6494409  79.9518182  58.5247717  28.6378781  79.4142217
  57.3582623  29.1252587  79.9806120  56.8126352  28.5045794  80.6913498
  56.8857918  30.3783101  79.6554613  55.9679786  30.7516170  80.1097316
  57.5751369  31.1589215  78.7552174  57.2038234  32.1504499  78.4961853
  58.7361390  30.6857386  78.1810109  59.2830251  31.3025992  77.4679198
  59.2047535  29.4324264  78.5091722  60.1211596  29.0567925  78.0539811
  59.5034291  28.2320132  82.0468002  60.0675506  29.3251320  82.1990505
  58.4603211  27.8619580  82.7906078  57.9782080  26.9881982  82.6350117
  57.9902885  28.7274021  83.8592770  57.7077236  29.6882873  83.4292119
  57.1175553  28.2660384  84.3214238  59.0482032  28.9540189  84.9202960
  59.2357021  30.0780361  85.3980055  59.7581107  27.8890828  85.2994586
  59.5382539  26.9629611  84.9617297  60.8400830  28.0335932  86.2652633
  60.4481573  28.4811393  87.1786065  61.4275943  26.6644810  86.6054636
  61.8323047  26.2076181  85.7023657  62.2238314  26.7826554  87.3404068
  60.6462918  26.0252463  87.0166140  61.9223412  28.9611326  85.7335020
  62.4621978  29.7830829  86.4775528  62.2491804  28.8467483  84.4455415
  61.8298267  28.1398671  83.8585485  63.2739098  29.7078329  83.8662281
  64.1947178  29.6336677  84.4447704  63.5648458  29.2807167  82.4287894
  62.6112639  29.0459232  81.9558698  64.0294044  30.1201879  81.9115144
  64.4762184  28.0744505  82.3522212  64.8302102  27.5257370  83.4170509
  64.8459916  27.6779412  81.2270002  62.8573639  31.1728767  83.9120769
  63.6582301  32.0425476  84.2724472  61.6107726  31.4695374  83.5449288
  60.9771924  30.7612015  83.2029701  61.1577642  32.8610644  83.5509936
  61.8486496  33.5150007  83.0188809  59.7691170  32.9756003  82.8964422
  59.1115111  32.2177632  83.3222784  59.1802730  34.3529816  83.1438317
  59.8371393  35.1113755  82.7178429  58.1984610  34.4185288  82.6749509
  59.0818716  34.5193078  84.2165639  59.8655431  32.6951735  81.4046149
  60.2510116  31.6877172  81.2479374  58.8766863  32.7794621  80.9538851
  60.5381351  33.4170932  80.9414165  61.1540443  33.4122697  84.9724393
  61.6152238  34.5364841  85.2333636  60.6189057  32.6347161  85.9163298
  60.1716149  31.7551782  85.7008229  60.6006498  33.0984984  87.2963036
  60.1415126  34.0855788  87.3507527  59.7934404  32.1358975  88.1660055
  60.0570464  31.1198692  87.8722409  60.0837407  32.3004226  89.2036746
  58.2924935  32.3311353  88.0229860  58.0460625  33.3272324  88.3906316
  58.0436308  32.2634317  86.9639366  57.4978394  31.2967805  88.7955965
  57.6830368  30.3096790  88.3720029  57.8105486  31.3080235  89.8397163
  56.0671645  31.5708520  88.7334664  55.7918324  32.4993322  88.4467328
  55.1182125  30.6912975  89.0262530  55.4113531  29.4594052  89.4098765
  56.3771132  29.1732886  89.4843388  54.6680067  28.8108530  89.6264772
  53.8440275  31.0569620  88.9306764  53.6116999  31.9952436  88.6378428
  53.1139135  30.3948825  89.1513187  62.0110354  33.2747986  87.8378205
  62.2535005  34.1791239  88.6385954  62.9551557  32.4375653  87.4046976
  62.7236930  31.6289598  86.8455183  64.3497391  32.6435459  87.7784129
  64.4381952  32.7301728  88.8613582  65.1940414  31.4582759  87.3128438
  64.7883008  30.6155159  87.8725129  65.0173213  31.3055636  86.2481612
  66.6981602  31.5636543  87.5696781  67.0719670  32.4824772  87.1178664
  66.9816850  31.5817964  89.0617151  66.6085518  30.6630214  89.5141784
  68.0564516  31.6571184  89.2269546  66.4838117  32.4382877  89.5162974
  67.4370136  30.4206286  86.8916685  67.2586306  30.4587316  85.8170397
  68.5057019  30.5124077  87.0855323  67.0771009  29.4702142  87.2857172
  64.8829970  33.9409233  87.1893840  65.6275588  34.6738883  87.8504324
  64.5190761  34.2348100  85.9402863  63.9594061  33.5961068  85.3935441
  64.9641425  35.4749201  85.3137244  66.0527648  35.4986941  85.2643744
  64.4086073  35.5720589  83.8931763  64.7235987  34.6721186  83.3649840
  63.3217712  35.5827892  83.9754703  64.8696345  36.7971491  83.1243272
  64.5268819  37.6859966  83.6540174  65.9590796  36.7929228  83.0897784
  64.2238478  36.8240286  81.4425948  62.5093382  37.2292903  81.7544005
  62.4495231  38.1920705  82.2619193  61.9704803  37.2836869  80.8084757
  62.0619886  36.4593611  82.3830409  64.5279623  36.6796737  86.1316325
  65.3039089  37.6210910  86.3307841  63.2836304  36.6704825  86.6097953
  62.6288214  35.9328456  86.3925024  62.8145780  37.8002306  87.4136467
  63.1425453  38.7375177  86.9641698  61.2888152  37.8007341  87.4850373
  60.9308786  36.8068443  87.7536704  60.9446673  38.5227277  88.2255691
  60.6200141  38.1627699  86.1881718  60.8864153  39.3711136  85.5718391
  61.5905095  40.0611107  86.0368715  60.2738607  39.7080761  84.3833694
  60.4939118  40.6640116  83.9081163  59.3864920  38.8389781  83.7986623
  58.9021790  39.1026223  82.8584322  59.1092667  37.6356376  84.4002367
  58.4042131  36.9453133  83.9371472  59.7225229  37.3005158  85.5897645
  59.5004925  36.3462734  86.0674922  63.4233727  37.7821976  88.8162585
  63.7963571  38.8361643  89.3580544  63.5252370  36.6000274  89.4235651
  63.2192586  35.7511574  88.9698071  64.0273631  36.5113263  90.7864046
  63.4820098  37.2014525  91.4301551  63.8420707  35.0935028  91.3230530
  62.7995451  34.8026802  91.1939725  64.4804954  34.4168554  90.7550193
  64.1847402  35.0244843  92.6959517  64.0611037  34.1264195  93.0118529
  65.4878020  36.9173457  90.8705193  65.9212665  37.4283625  91.9037605
  66.2658630  36.6916166  89.8106908  65.9320553  36.1761598  89.0088330
  67.6525275  37.1427566  89.8141925  68.1728080  36.7433530  90.6847579
  68.3647876  36.6554065  88.5537507  67.7676570  36.9327248  87.6850569
  69.3398093  37.1388906  88.4931210  68.5669697  35.1570004  88.5426883
  68.4652198  34.4979029  89.5762639  68.8560566  34.6077535  87.3699810
  69.0012348  33.6103570  87.3049942  68.9296020  35.1895872  86.5476907
  67.7209522  38.6598168  89.9176941  68.4977657  39.2098083  90.7064983
  66.9039063  39.3540861  89.1240625  66.3352417  38.8971008  88.4255753
  66.8573572  40.8073829  89.2096402  67.8498249  41.2223354  89.0337953
  65.9014303  41.3667611  88.1586868  66.2976326  41.2059287  87.1560623
  64.9221947  40.8952832  88.2417899  65.6159222  43.1419372  88.3049052
  64.7811003  43.2338886  87.2736363  66.4387988  41.2554467  90.6016947
  67.0291029  42.1815894  91.1669467  65.4176214  40.6100723  91.1710334
  64.8929761  39.8986594  90.6824249  65.0033858  40.9685879  92.5269849
  64.7363322  42.0247149  92.5640974  63.7887203  40.1419524  92.9530452
  64.0330760  39.1058362  92.7188387  63.6911012  40.2565884  94.0325956
  62.4844568  40.5142819  92.2874090  62.2201489  41.8189355  91.8998521
  62.9740726  42.5857703  92.0777928  61.0283397  42.1523710  91.2991413
  60.8311156  43.1815021  90.9989855  60.0818800  41.1787264  91.0800970
  58.8925917  41.5002202  90.4795872  58.8259271  42.4309004  90.2537778
  60.3180683  39.8796760  91.4567044  59.5680143  39.1082565  91.2822584
  61.5103846  39.5552257  92.0575146  61.7046104  38.5271724  92.3632644
  66.1384153  40.7675191  93.5248193  66.4003128  41.6296335  94.3700758
  66.8267332  39.6301836  93.4355972  66.6246251  38.9630049  92.7047592
  67.8428856  39.2870263  94.4229864  67.4508737  39.4137459  95.4321286
  68.2519457  37.8251718  94.2376213  67.3461560  37.2327321  94.3666928
  68.6035802  37.7312344  93.2101832  69.3245360  37.3225454  95.1871505
  70.2207763  37.9318224  95.0703785  68.9622259  37.4028499  96.2120332
  69.6557093  35.8692277  94.8788554  68.7763706  35.2654768  95.1032372
  69.8876715  35.7916384  93.8166535  70.8337372  35.3672888  95.6911168
  71.6874569  36.0175357  95.5002184  70.5704943  35.4149353  96.7477777
  71.1869425  33.9660597  95.3305211  71.4313178  33.9217704  94.3515324
  71.9728765  33.6629411  95.8877704  70.3961414  33.3632941  95.5077396
  69.0527856  40.2051491  94.3229344  69.6161829  40.6081080  95.3464829
  69.4688571  40.5470569  93.1044301  68.9908971  40.2314529  92.2725360
  70.6737069  41.3535943  92.9457249  71.4740639  40.9523952  93.5674701
  71.1324585  41.3368090  91.4883992  71.2719860  40.2915736  91.2125111
  70.3400736  41.7704190  90.8783101  72.4196426  42.0953355  91.2556061
  73.6531633  41.4853854  91.4373684  73.6828395  40.4422616  91.7521880
  74.8292865  42.1763704  91.2265439  75.7911175  41.6828545  91.3659171
  74.7827681  43.4972108  90.8403151  75.9515024  44.1900303  90.6321438
  76.7355243  43.6573482  90.7843247  73.5715751  44.1277094  90.6590359
  73.5344564  45.1727355  90.3513948  72.4003012  43.4281093  90.8693459
  71.4383509  43.9220423  90.7322991  70.4444095  42.7860461  93.4032845
  71.1489691  43.2922537  94.2830905  69.4643570  43.4566408  92.8146879
  68.8151372  42.9979193  92.1916409  69.3194790  44.8812244  93.0295945
  70.2993524  45.3558848  93.0810241  68.5410347  45.4966070  91.8759938
  67.6374452  44.9102414  91.7092581  68.2670996  46.5175197  92.1420706
  69.3366851  45.5294026  90.5966987  69.1161277  44.7209847  89.6967733
  70.2710706  46.4668775  90.5048477  70.8340340  46.5342682  89.6690065
  70.4150902  47.1088091  91.2711916  68.6024261  45.1740673  94.3414463
  67.8768025  44.3279463  94.8693513  68.7917547  46.3688562  94.8914057
  69.8973874  47.3061528  94.6362225  69.6437675  47.9492023  93.7934505
  70.8042666  46.7470171  94.4059261  70.0037260  48.0575958  95.9170376
  70.3877687  49.0586681  95.7209139  70.6821599  47.5342827  96.5908122
  68.6309447  48.1042563  96.4786651  68.1387284  48.9792843  96.0542265
  68.5878128  48.1557499  97.5665932  67.9368857  46.8242367  95.9863584
  67.8929833  46.0459388  96.7482135  66.5362102  47.1180726  95.4834013
  66.3197214  47.2684466  94.2718522  65.5525630  47.2046214  96.3801312
  65.6422487  47.1313573  97.8478307  66.4180090  47.8119795  98.1986152
  65.8911852  46.1129145  98.1459984  64.2662586  47.5413469  98.2993190
  64.2477996  48.6160579  98.4803014  64.0128974  47.0141296  99.2190751
  63.3433887  47.1604243  97.1979316  62.4773015  47.8222298  97.1955948
  63.0084073  46.1246777  97.2537535  64.1677594  47.3758651  95.9220879
  63.9617975  46.6078498  95.1765475  63.9235026  48.7459008  95.3167602
  63.0166930  48.8993730  94.4895138  64.7122815  49.7468523  95.7128839
  65.4141837  49.5914005  96.4222973  64.5414770  51.1006698  95.1929184
  63.5028098  51.4146675  95.2962385  65.4250095  52.0702851  95.9767299
  66.2865045  51.5185418  96.3529014  65.7626110  52.8441968  95.2873925
  64.6907349  52.7130107  97.1374080  63.6014077  53.2797065  96.9107093
  65.1993000  52.6470157  98.2759598  64.8456014  51.1908286  93.7002749
  64.1645240  51.9282596  92.9795654  65.8606788  50.4758471  93.2125113
  66.3730637  49.8203454  93.7851181  66.2758537  50.6541838  91.8245647
  66.6696512  51.6616021  91.6899132  67.3629974  49.6486445  91.4391321
  67.0596859  48.6427862  91.7295636  67.5329640  49.6798100  90.3629165
  68.6869208  49.9009664  92.0890786  69.8779352  49.5064218  91.5169445
  70.8788567  49.8565838  92.3044231  71.9085852  49.6338098  92.0249057
  70.3811007  50.4611033  93.3681205  70.9111660  50.8346055  94.1424762
  69.0120613  50.5037550  93.2565950  68.4156151  50.9697581  94.0409382
  65.0725683  50.4845769  90.9091419  64.2601123  49.5741794  91.0904135
  64.9577759  51.3690284  89.9153661  65.6599115  52.0740415  89.7419836
  63.7611399  51.3654152  89.0819669  62.8647943  51.4131225  89.7003419
  63.7878159  52.5854626  88.1675891  64.7688962  53.0504980  88.2641438
  63.6512326  52.2356685  87.1443154  62.7200696  53.5936131  88.4997026
  62.6806395  54.3318817  87.6987621  61.7648651  53.0719939  88.5596775
  62.9984081  54.2927451  89.8189047  62.6213914  53.7436456  90.8748318
  63.5961331  55.3890814  89.8005635  63.6494730  50.0858248  88.2660614
  62.5445861  49.7311856  87.8000935  64.7518166  49.3460811  88.1330504
  65.6383458  49.5949787  88.5480388  64.6932457  48.1658137  87.2934438
  64.3077234  48.3886903  86.2985580  66.0770114  47.5091482  87.1487446
  66.7676880  48.2366915  86.7224281  66.5992341  47.0452215  88.4941800
  65.9092709  46.3172599  88.9209397  67.5786409  46.5845541  88.3651514
  66.6858098  47.8998067  89.1652168  66.0074767  46.3590739  86.1608640
  65.6858970  46.7332379  85.1889124  66.9920215  45.9011256  86.0657086
  65.2944975  45.6157085  86.5174722  63.6763535  47.2382976  87.9122470
  62.9549369  46.5209047  87.2144315  63.6616472  47.1863089  89.2467599
  64.2897377  47.7494153  89.8021993  62.7791281  46.2591485  89.9327326
  62.9211526  45.2332396  89.5929691  63.0129133  46.3105250  91.4509697
  63.2581971  47.3331818  91.7375149  61.7697657  45.8614906  92.1954624
  61.5241066  44.8386860  91.9097643  61.9532881  45.9041809  93.2690533
  60.9374035  46.5185061  91.9432613  64.2056542  45.4526479  91.8274014
  65.0951892  45.8223257  91.3173349  64.3604928  45.4976851  92.9054071
  64.0197011  44.4205145  91.5303778  61.3480867  46.6058245  89.5668552
  60.5039550  45.7239266  89.4057725  61.0247697  47.9040253  89.5708379
  61.6963209  48.6071312  89.8442613  59.6739405  48.3346448  89.2259492
  58.9594827  47.9568028  89.9573073  59.5883335  49.8610190  89.2027326
  60.2916334  50.2537592  88.4684137  58.5764214  50.1646494  88.9345110
  59.8358296  50.2543609  90.1886977  59.2875156  47.7531264  87.8768238
  58.1882076  47.2020133  87.6979237  60.2375930  47.7784496  86.9381568
  61.1520696  48.1719449  87.1084308  59.9409186  47.2688512  85.6019297
  58.9920470  47.6740392  85.2504122  61.0414330  47.6845391  84.6253665
  61.9594511  47.2004431  84.9585227  60.7601159  47.2947337  83.6470963
  61.2670774  49.1855001  84.5269257  60.5419183  49.5982183  83.8255636
  61.1087090  49.6236394  85.5123471  62.9303247  49.5841349  83.9620356
  62.7754171  49.2875495  82.2047044  62.0076717  49.9417628  81.7915810
  63.7279133  49.4921277  81.7158288  62.4961441  48.2477850  82.0344172
  59.7976239  45.7536122  85.6252396  58.9266140  45.1897574  84.9504215
  60.6587157  45.0799463  86.3840652  61.4122240  45.5555873  86.8595547
  60.5712483  43.6311471  86.5052273  60.6273760  43.1800814  85.5145262
  61.7351665  43.1088753  87.3461504  61.6873449  43.5446555  88.3441027
  61.6717059  42.0232929  87.4208743  62.6779398  43.3855726  86.8742221
  59.2416807  43.2159277  87.1187156  58.6264186  42.2428699  86.6762034
  58.7870968  43.9357175  88.1460550  59.3395587  44.6801983  88.5468462
  57.4995012  43.6250125  88.7559246  57.4830729  42.5831686  89.0759099
  57.2598370  44.5148442  89.9762699  57.5054067  45.5365896  89.6867338
  56.1995528  44.4520080  90.2211148  58.0825570  44.1215747  91.1885516
  57.6571792  43.2074767  91.6027730  59.1025075  43.9288314  90.8559063
  58.0940487  45.2018348  92.2541496  58.4571312  46.1333928  91.8200185
  57.0818682  45.3476356  92.6314190  58.9600637  44.8372499  93.3689185
  59.2138877  43.8630091  93.4497120  59.4257809  45.6897782  94.2724383
  59.1129820  46.9738964  94.2381842  58.5057528  47.3233696  93.5106946
  59.4827020  47.5994638  94.9396628  60.2294206  45.2408343  95.2322496
  60.4756282  44.2618065  95.2636550  60.5898488  45.8809702  95.9253703
  56.3846611  43.7932980  87.7412486  55.4648589  42.9705130  87.6730511
  56.4858378  44.8187221  86.8967880  57.2471430  45.4807790  86.9436330
  55.4320432  45.0454143  85.9148702  54.4582344  45.0719720  86.4038389
  55.6657053  46.3862626  85.2182650  55.5891531  47.1476650  85.9944772
  56.6871966  46.3560821  84.8391281  54.7172488  46.7225222  84.0864643
  55.1952949  47.4856996  83.4723527  54.5759804  45.8174547  83.4957037
  53.3735687  47.2280167  84.5630302  52.9328928  46.4920933  85.2355780
  53.5140196  48.1683838  85.0960243  52.4463945  47.4508085  83.3782379
  52.6220915  48.4585768  83.0018947  52.7085306  46.7251573  82.6082936
  51.0124059  47.2985287  83.7339590  50.7691929  47.9711327  84.4470866
  50.4436542  47.4562689  82.9143618  50.8493029  46.3646395  84.0823085
  55.4049061  43.8783200  84.9313213  54.3479908  43.2777847  84.6675783
  56.5725756  43.5412731  84.3814365  57.4292477  44.0080322  84.6428713
  56.6318322  42.5184374  83.3476522  55.9167142  42.7485382  82.5578681
  58.0299384  42.4589744  82.7376332  58.2467213  43.4979729  82.4894671
  58.7382838  42.1100268  83.4890203  58.1558781  41.5976779  81.4797319
  57.8989700  40.5699644  81.7364497  57.2346708  42.0889965  80.3776665
  57.4912894  43.1165612  80.1200687  57.3490005  41.4551404  79.4983168
  56.2013424  42.0485635  80.7221923  59.6014235  41.5585674  81.0013233
  60.2322362  41.1361740  81.7834732  59.6716944  40.9413154  80.1056877
  59.9362715  42.5701851  80.7719642  56.2481703  41.1612973  83.9178271
  55.5968219  40.3631552  83.2403100  56.6406985  40.8798504  85.1641189
  57.2316860  41.5147539  85.6815459  56.2683643  39.6180632  85.7896157
  56.4911579  38.7927524  85.1133583  57.0463978  39.4089960  87.0881741
  58.1053463  39.5259041  86.8578267  56.7381073  40.1894474  87.7838410
  56.8127901  38.0444761  87.7210168  55.7522023  37.9413320  87.9503976
  57.1053018  37.2770525  87.0043579  57.6054072  37.8435300  88.9957767
  58.2699221  38.7594973  89.4784865  57.5355330  36.6401340  89.5506873
  58.0441502  36.4497707  90.4022575  56.9740546  35.9201261  89.1189097
  54.7765707  39.5618557  86.0656767  54.1779984  38.4864639  85.9857651
  54.1574667  40.6958098  86.3993655  54.6684058  41.5457155  86.5909401
  52.7081367  40.7125058  86.5487935  52.4017270  39.9750933  87.2907066
  52.2427218  42.0926781  87.0109747  52.6249068  42.8309836  86.3060357
  51.1529655  42.1004226  86.9892663  52.7223467  42.4329072  88.4080714
  53.2420404  41.5298821  89.0957377  52.5823495  43.6048768  88.8172621
  52.0424508  40.3306489  85.2359669  51.1191024  39.5063175  85.2049451
  52.5178421  40.9089047  84.1311894  53.2150538  41.6387099  84.1683327
  51.9653578  40.5426132  82.8258548  50.8804457  40.6438172  82.7971711
  52.5713537  41.4263582  81.7201786  53.6574528  41.3395516  81.7510414
  52.0659752  40.9866460  80.3525588  50.9799153  41.0736198  80.3207735
  52.5034764  41.6211047  79.5817440  52.3522921  39.9500375  80.1748875
  52.2430545  42.8889762  81.9678581  52.6526844  43.1959199  82.9301943
  52.6792684  43.4988208  81.1767155  51.1613452  43.0229918  81.9746108
  52.1994878  39.0607396  82.5455806  51.2998724  38.3442831  82.0786554
  53.4102525  38.5782947  82.8268295  54.1262185  39.1713400  83.2215310
  53.7500105  37.1940109  82.5222251  53.5638077  36.9903422  81.4677362
  55.2255258  36.9316438  82.8168490  55.8423345  37.4239991  82.0650296
  55.4943258  37.3021940  83.8060603  55.5933848  35.4777218  82.7886607
  55.7312862  34.8077915  81.5859127  55.5737795  35.3502256  80.6536805
  56.0641266  33.4684800  81.5573493  56.1734939  32.9525276  80.6034454
  56.2580246  32.7843034  82.7362259  56.5208099  31.7266232  82.7173456
  56.1195023  33.4382223  83.9407771  56.2726777  32.8982519  84.8751590
  55.7868928  34.7765756  83.9642387  55.6737504  35.2934112  84.9172233
  52.8815361  36.2285181  83.3118818  52.4534322  35.2002257  82.7827619
  52.6321981  36.5258640  84.5874091  53.0738501  37.3139737  85.0389908
  51.7565453  35.6744457  85.3837357  52.0677839  34.6337380  85.2934181
  51.8228011  36.0779031  86.8560928  51.6588401  37.1545202  86.9020445
  51.0081071  35.5647015  87.3669722  53.1392299  35.7371447  87.5334023
  53.9438539  36.1374383  86.9165992  53.1547538  36.2220274  88.5094899
  53.3320689  34.2446676  87.7081882  52.3948002  33.4821297  87.3936530
  54.4186123  33.8327368  88.1646194  50.3227910  35.7382452  84.8776032
  49.6546239  34.7047782  84.7633420  49.8307204  36.9413669  84.5681960
  50.3546371  37.7881559  84.7371900  48.4837863  37.0591491  84.0211596
  47.7542774  36.7035712  84.7488137  48.1738304  38.5202063  83.6923237
  49.0407753  38.9216790  83.1676091  47.3123149  38.5228037  83.0245779
  47.8748956  39.3801729  84.9065796  46.9452678  39.0280596  85.3536917
  48.6897351  39.2581571  85.6201977  47.7081550  41.1264867  84.4902678
  47.7425955  41.8667792  86.1197996  48.6852576  41.6236089  86.6100601
  47.6490402  42.9490236  86.0298269  46.9144868  41.4791030  86.7131327
  48.3186069  36.1945216  82.7787378  47.2419677  35.6364553  82.5392507
  49.3763604  36.0699239  81.9756164  50.2340199  36.5773718  82.1399824
  49.2849580  35.2319841  80.7815032  48.2939009  35.3246862  80.3373057
  50.3259948  35.6676722  79.7490971  51.3048309  35.5501023  80.2140235
  50.2416340  34.9850791  78.9034909  50.1653204  37.0968889  79.2632541
  50.2582525  37.7647231  80.1196780  50.9608004  37.3098180  78.5491290
  48.8158606  37.3122880  78.5972154  48.6209901  36.4852421  77.9144859
  48.0418547  37.3396822  79.3641989  48.7716219  38.5609364  77.8436079
  49.1016559  38.5276571  76.8896323  48.3303039  39.7169963  78.3205533
  47.8882605  39.8322598  79.5633449  47.8829889  39.0255709  80.1710663
  47.5583860  40.7263371  79.8978718  48.3352074  40.7881899  77.5321339
  48.6729387  40.7115787  76.5833619  48.0011791  41.6732997  77.8858350
  49.4538212  33.7472367  81.1042870  48.6874370  32.9099830  80.6155106
  50.4476923  33.4015065  81.9247393  51.0031327  34.1109927  82.3810449
  50.7962680  32.0027970  82.1450198  50.7897732  31.4635379  81.1977834
  52.1929434  31.8991930  82.7563273  52.9171257  32.3946297  82.1096420
  52.2122773  32.3611364  83.7434112  52.6704578  30.4881203  82.9334111
  52.8767109  29.6712671  81.8360326  52.6891768  30.0650604  80.8371043
  53.3146621  28.3716994  81.9946941  53.4760513  27.7403105  81.1209652
  53.5479269  27.8724490  83.2586152  53.8930761  26.8466341  83.3877500
  53.3432550  28.6752407  84.3614505  53.5270181  28.2842301  85.3621713
  52.9052336  29.9752056  84.1974190  52.7408310  30.6089741  85.0688599
  49.8012987  31.2799032  83.0388195  49.7153572  30.0492060  82.9742339
  49.0515433  32.0033628  83.8717822  49.1916966  32.9974129  83.9827812
  48.0386272  31.3527406  84.6923921  48.5248958  30.6068075  85.3210620
  47.3502879  32.3770392  85.5935456  46.8510859  33.1256373  84.9783235
  46.6145806  31.8736265  86.2207701  48.0935018  32.8635323  86.2252551
  47.0070638  30.6324156  83.8395722  46.3249409  29.7292098  84.3358700
  46.8818965  31.0095704  82.5679989  47.4403850  31.7854698  82.2421614
  45.9399780  30.4017391  81.6424399  45.1064078  29.9603099  82.1887000
  45.3923264  31.4673834  80.6932408  46.2096918  31.7748983  80.0409773
  44.6078695  31.0014799  80.0968674  44.8294588  32.6847695  81.4077820
  44.0292726  32.3551323  82.0704601  45.6267688  33.1361139  81.9982792
  44.2852024  33.7074894  80.4279893  45.0942224  34.0221494  79.7687665
  43.4977898  33.2387138  79.8377943  43.7221793  34.9185498  81.1517480
  44.4486304  35.2361800  81.8997323  43.5805990  35.7157543  80.4220088
  42.4237641  34.6186373  81.8171196  42.5548255  33.8802493  82.4936591
  42.0857212  35.4476005  82.2847166  41.7503542  34.3247054  81.1241388
  46.5567877  29.2570358  80.8431845  46.0222549  28.8901637  79.7906431
  47.6646275  28.6923946  81.3129944  48.1148137  29.0351060  82.1496428
  48.2759522  27.5771093  80.6089099  48.4803253  27.8598929  79.5762608
  49.5943362  27.1789134  81.2771035  50.2401292  28.0568127  81.2585697
  49.3636370  26.9199637  82.3104587  50.3074746  26.0097535  80.6077391
  49.6072303  25.1757489  80.5608874  50.5735667  26.3173271  79.5964550
  51.7964941  25.4852736  81.4788832  51.0891760  24.7056376  82.9261719
  50.4511912  23.8772953  82.6180754  51.8888386  24.3297723  83.5644240
  50.4960816  25.4343233  83.4787635  47.3168281  26.3880797  80.5981200
  46.6661660  26.1078540  81.6125249  47.2019212  25.6614243  79.4745567
  47.8920996  25.8610777  78.1875687  48.9596377  25.9907409  78.3654738
  47.4952241  26.7504000  77.6979826  47.5831275  24.6051172  77.4292504
  48.3758281  23.8753828  77.5942122  47.5126412  24.8299067  76.3650123
  46.2822203  24.1207948  77.9558747  46.2344435  23.0360036  77.8607716
  45.4225177  24.5670407  77.4559992  46.2880192  24.5138857  79.4362632
  45.3116328  24.8521419  79.7831788  46.7623522  23.3536419  80.3066122
  47.9443100  23.0142111  80.2617612  45.9345783  22.7369483  81.0796383
  44.9716183  23.0230022  81.1844266  46.4214370  21.6307549  81.8996321
  47.3320096  21.2211125  81.4624253  46.7380069  22.1170257  83.3416939
  47.4584638  22.9239071  83.2075910  45.8212259  22.5174195  83.7744727
  47.3270235  21.0567074  84.2825523  48.1287444  20.2163105  83.8255461
  46.9510010  21.0391603  85.4735020  45.4292217  20.4927819  81.9193085
  44.3550191  20.5471048  81.3008825  46.7859854  19.9595779  82.9358565
 106.5807914  68.0916245  62.0591262 106.6859132  68.6463285  61.2216574
 105.9920026  67.2978454  61.8509367 107.4919448  67.9502244  62.4713218
 105.8632780  68.8496129  62.9968277 104.9437264  68.3241670  63.2545690
 106.6739440  69.0787018  64.2808152 107.0502224  68.1111392  64.6129846
 107.5130888  69.7284119  64.0321934 105.8382924  69.7256458  65.4163159
 106.4512086  69.6989741  66.3172726 105.6599869  70.7619673  65.1293543
 104.3307027  68.9594662  65.7348516 103.7691536  69.5690417  67.3915599
 103.6559745  70.6527272  67.3613043 102.8123486  69.1111900  67.6425514
 104.5082503  69.3023961  68.1470315 105.5277522  70.1994445  62.4701559
 106.3773938  70.7286497  61.7374855 104.3874774  70.7684707  62.8865637
 103.7395617  70.2134004  63.4271204 104.0415397  72.1843256  62.6120238
 104.2113547  72.4455626  61.5675061 102.5262721  72.3392942  62.9228207
 102.3831625  72.2243105  63.9972497 102.2147286  73.3390379  62.6202430
 101.7329627  71.3564116  62.2241842 100.8058204  71.4819640  62.4392274
 104.7890282  73.2603251  63.4673086 104.9790221  73.1089162  64.6660924
 105.1929798  74.3277270  62.7970383 104.7446540  74.3717419  61.8930659
 106.2142043  75.3433915  63.1221229 106.2027061  75.4931374  64.2017261
 107.5806819  74.9873521  62.7116210 107.6968888  74.8816311  61.6330023
 108.0382481  75.9219872  63.0359519 108.2792202  73.7893140  63.4300602
 108.1878935  73.6183001  64.8381486 107.5912203  74.3141835  65.4279169
 108.8592966  72.5627768  65.4684164 108.8471672  72.5435718  66.5581805
 109.4246214  71.4982626  64.7556539 110.0814025  70.4573795  65.3644773
 110.1095504  70.5395218  66.3205421 109.4039546  71.6008526  63.3735778
 109.8532531  70.8111598  62.7714013 108.8204632  72.6920974  62.7580240
 108.7594106  72.7363337  61.6706345 105.6754350  76.6362042  62.4683805
 105.3248235  76.6476706  61.2982172 105.6400267  77.7252436  63.2209045
 105.9160836  77.5535838  64.1771601 105.0520519  79.0337554  62.8881455
 105.1112509  79.2071043  61.8136480 103.5644807  79.0708116  63.3138796
 103.5036635  79.1714892  64.3975145 103.1066366  79.9404253  62.8424449
 102.7791195  77.8084297  62.8901794 102.4128410  77.6090556  61.6936382
 102.4906716  76.8995439  63.7732703 101.9775521  76.0750341  63.4957963
 102.7809888  77.0220098  64.7328633 105.9163536  80.1984189  63.3520017
 106.9374801  80.0691910  64.1510548 105.5193332  81.4015094  62.9730068
 104.7582605  81.4314657  62.3097043 106.1603165  82.6346150  63.3288326
 106.6684289  82.5790462  64.2915543 107.1693914  82.8524238  62.2751414
 108.0027711  82.1603367  62.3959426 106.6144173  82.5979531  61.3721749
 107.7013955  84.2689573  62.1591857 107.0747732  85.1055649  61.2298315
 106.1347666  84.8145938  60.7609789 107.6763341  86.3433515  60.9004902
 107.2556447  86.9972095  60.1365582 108.6664391  86.8246944  61.7665284
 109.2478848  87.9930376  61.4891101 108.9101002  88.3991521  60.6875040
 109.2319721  86.0205841  62.7460126 110.0986376  86.3539926  63.3168278
 108.6754217  84.7722544  62.9939113 109.0089457  84.1873274  63.8510707
 105.0711451  83.6981064  63.5061031 103.9719441  83.5627854  62.9043297
 105.3547735  84.6575994  64.3716862 106.2276134  84.5810564  64.8740715
 104.3669638  85.6378267  64.8383041 103.7950085  86.1346746  64.0546534
 103.3633581  85.0072805  65.8692145 102.8490525  84.1729780  65.3922154
 104.0673832  84.5294662  67.0596628 104.5815888  85.3633534  67.5374973
 103.3502186  84.0974911  67.7576406 104.7955290  83.7711169  66.7718925
 102.1766759  85.9131920  66.2208330 101.6097666  86.1373317  65.3172416
 101.5311799  85.4054888  66.9375421 102.5445590  86.8414662  66.6579483
 104.8951734  87.0393670  65.2622538 105.8696681  87.0825625  65.9746717
 104.3458871  88.1067229  64.5994205 103.5222563  87.9841257  64.0278423
 105.0569371  89.4121281  64.5410587 105.4881205  89.8257414  65.4527078
 106.1308556  89.4449803  63.4268420 106.8580614  88.6746447  63.6834626
 105.6335003  89.2175244  62.0267736 104.9065447  89.9877962  61.7692510
 106.4714881  89.2624124  61.3311717 105.1612844  88.2371838  61.9631638
 107.0671845  90.5805476  63.5174014 107.5975095  90.5398749  64.4688231
 107.7852558  90.5261966  62.6991598 106.5118939  91.5161643  63.4512601
 104.0252569  90.5233294  64.4885194 102.9694329  90.2728193  63.9270059
 104.1906527  91.7066586  65.1602896 104.8381749  91.6261931  65.9312239
 103.5448170  92.9658285  64.9451210 102.5139623  92.7049423  65.1846541
 104.0485981  93.9983402  65.9847331 105.1184578  94.1333034  65.8257194
 103.3604364  95.3168999  65.8786073 102.2905215  95.1828002  66.0379783
 103.7572963  95.9962094  66.6330210 103.5297310  95.7369222  64.8871331
 103.5667633  93.5860266  67.2530791 103.8613894  94.2059378  67.9242765
 103.8129013  93.4592595  63.4505634 104.9640534  93.7236994  63.1515308
 102.7857404  93.6744725  62.6864410 101.8830804  93.3678746  63.0200604
 102.8534205  94.3649295  61.3761168 103.8303805  94.2576832  60.9047925
 101.7637839  93.7956547  60.4048767 100.7789332  93.9043278  60.8591446
 101.7920327  94.3453427  59.4640551 101.9612354  92.7406803  60.2147685
 102.5772920  95.8462195  61.5812924 103.0538639  96.6546700  60.8294653
 101.9239049  96.2353917  62.6634981 101.7347845  95.4724586  63.2977424
 101.4582912  97.5405589  63.0152927 102.1828759  98.3094606  62.7472137
 100.1462155  97.7886876  62.2079840 100.4467114  98.0518404  61.1938084
  99.6040034  96.8432517  62.1919524  99.2829733  98.8351047  62.7462108
  98.5599355  98.9100619  61.9339925  98.7689694  98.5509681  63.6644528
  99.9341383 100.2137371  62.9536375 100.6731763 100.6237606  62.0895764
  99.8559417 100.8662109  64.1017997 100.2976209 101.7695262  64.1968910
  99.3549220 100.4580234  64.8779850 101.1750976  97.7080436  64.5524187
 100.3592165  97.0193896  65.1497625 102.0160892  98.5728678  65.1564106
 102.7778317  98.9279302  64.5962513 102.0421051  98.8212143  66.6096268
 102.2109610  97.9029503  67.1721017 103.1801834  99.7521611  66.8637882
 103.3520441  99.7428910  67.9401140 104.0455372  99.3279842  66.3545370
 102.9694943 101.1815342  66.3976052 103.0840620 101.2709888  65.3173400
 101.9893607 101.5576047  66.6908818 104.0402200 101.9851912  67.0832663
 103.8175735 101.9720989  68.1502040 104.9874864 101.4766004  66.9040426
 104.1433795 103.4775442  66.5867246 104.8676188 103.9778038  67.2296229
 104.5240464 103.4479545  65.5657856 102.8174837 104.2473058  66.6153836
 102.4647955 104.2752109  67.5613920 102.9680088 105.1895325  66.2842476
 102.1463794 103.7841574  66.0193873 100.6848560  99.1755962  67.2437200
  99.7054261  99.5880197  66.4980303 100.4901355  99.0054494  68.5373969
 101.4738849  98.4882798  69.4236981 102.1883016  99.2878997  69.6194452
 101.9774680  97.6696508  68.9095487 100.7368548  98.0164752  70.7114656
 101.3637845  98.1130643  71.5978790 100.3863546  96.9879692  70.6252886
  99.5356133  99.0131309  70.7513670  99.8017142  99.9104771  71.3099896
  98.6600043  98.5493260  71.2055623  99.2345044  99.3801700  69.2794859
  98.4276488  98.7765272  68.8639168  98.8537198 100.8927053  69.1859228
  99.8482927 101.6789090  69.3022051  97.5782402 101.2686012  69.0875818
  96.8239257 100.5982540  69.1293394  97.2422827 102.6771457  68.9401165
  98.1353650 103.2969960  69.0194183  96.5798857 102.9479655  67.5963830
  96.2543842 103.9880349  67.5762666  97.5747413 102.6825649  66.3909341
  97.9003336 101.6425066  66.4101189  97.0667755 102.8863960  65.4483193
  98.4421050 103.3360548  66.4843773  95.4182328 102.2028433  67.3048791
  95.0867605 102.4525382  66.4392124  96.2524953 103.1898814  69.9954530
  96.0713760 104.4056885  70.0721137  95.5851960 102.3342471  70.7639754
  95.6871654 101.3691988  70.4840052  94.6279582 102.6488342  71.7880280
  94.1096757 103.5312386  71.4127347  93.6407284 101.5684271  71.9811700
  94.1432638 100.6807705  72.3653887  92.8815199 101.8922810  72.6930838
  93.1674189 101.3333478  71.0278520  95.3441424 103.1133358  73.0889890
  96.2271966 102.4945841  73.6309204  94.8710358 104.2466064  73.6654087
  94.1822281 104.8387651  73.2238303  95.4611166 104.6918485  74.9360547
  96.5016762 104.3904209  75.0563723  95.3758548 106.1987278  75.0637183
  94.3509835 106.4934466  74.8381547  95.7558400 106.7020970  76.4576124
  96.7808117 106.4081391  76.6837159  95.6752674 107.7887305  76.4865303
  95.0825454 106.2685538  77.1970826  96.2089825 106.9617664  74.0325479
  95.8692766 106.7058054  73.0289614  96.0931020 108.0337315  74.1924295
  97.2591104 106.6902819  74.1403828  94.8130953 103.9900282  76.0687729
  93.6803413 104.3838853  76.4862776  95.4558601 103.0051024  76.6405783
  96.3083215 102.6607782  76.2224280  94.9325373 102.3153818  77.7839199
  93.8452757 102.2560602  77.7345016  95.5130934 100.8604436  77.7988703
  96.5849532 101.0565790  77.7715449  95.2674579 100.3133217  78.7090465
  95.1563527 100.0240163  76.6344102  95.8606792  99.8090205  75.6444960
  93.9438827  99.5907751  76.5891722  93.6453498  99.0144004  75.8153698
  93.2976479  99.8295634  77.3277258  95.1733874 103.0362949  79.1061546
  94.3936299 102.7783783  80.0501558  96.1333082 103.9029542  79.1385255
  96.7642564 104.0257276  78.3594682  96.3191426 104.7051952  80.2810910
  95.3403533 105.0945748  80.5611878  96.6904972 104.0538953  81.0722948
  97.2738609 105.8580165  80.1063937  98.1087653 105.9041548  79.2419083
  97.0373052 106.9196739  80.8792624  96.2707933 106.8928799  81.5364084
  97.8959449 108.1550546  80.8344605  98.9003511 107.8754004  80.5165597
  97.3482340 109.2119684  79.8598493  97.9610656 110.1120152  79.8103280
  97.1861601 108.8275313  78.8528537  95.7577310 109.7315821  80.4499983
  95.5239710 110.6018033  79.4717501  98.0058767 108.9073199  82.1936875
  97.1320343 108.9134814  83.0865729  99.0282503 109.7018121  82.3243719
  99.6953477 109.8445052  81.5795772  99.2713375 110.3729899  83.6239041
  98.4028009 110.8919044  84.0294544  99.7986229 109.3416002  84.7094221
  99.1408514 108.4742462  84.6534510 101.2463087 108.8926862  84.5436865
 101.9047615 109.7595012  84.6000120 101.5025187 108.1902898  85.3368423
 101.3680458 108.4068902  83.5755523  99.6513440 109.7288496  86.1606546
  98.5968180 109.8791731  86.3919112 100.0515539 108.9351139  86.7914599
 100.1991380 110.6523464  86.3482077 100.2536723 111.5055035  83.4236936
 101.1515178 111.3667643  82.6018786 100.1691780 112.6013012  84.2281972
  99.3906957 112.7012694  84.8638630 101.1960470 113.6183625  84.2371122
 102.1869191 113.4968069  83.7995098 100.5550804 114.9249219  83.6669147
 101.3065067 115.6889088  83.8663712 100.1259102 115.0048547  82.2114115
  99.3741002 114.2414169  82.0113012  99.7052712 115.9899768  82.0096779
 100.9900727 114.8405865  81.5677193  99.5546695 115.6186325  84.4333582
  99.2628181 116.3951414  83.9501842 101.7518880 113.9886755  85.6447482
 101.1444995 113.9022975  86.7327023 102.9395725 114.5009226  85.5056530
 103.3725728 114.6170393  84.6005967 103.6879929 114.9294293  86.6966403
 103.1346116 115.7444632  87.1631038 103.7357037 114.0838797  87.3828393
 105.0879128 115.3964249  86.3963018 105.3715350 115.6696840  85.2480083
 105.9421549 115.5474191  87.4044844 105.5965791 115.1995646  88.2874758
 107.2960796 116.1217724  87.3627802 107.4567588 116.6454478  86.4204185
 107.4668321 117.1604533  88.5576692 106.8883086 116.7132440  89.3660092
 108.4683351 117.3977867  88.9165070 106.8038847 118.4743821  88.2283400
 106.5909750 119.4689450  89.1910934 105.9910042 120.4608707  88.5730638
 105.6143844 121.3056346  89.1498051 105.9621691 120.2130281  87.2597719
 105.6110162 120.8304984  86.5417733 106.4768401 119.0059898  87.0430851
 106.5646217 118.6256158  86.0253861 108.3008995 114.9244464  87.5508262
 108.6878531 114.5547150  88.6368440 108.6018547 114.2148323  86.4677765
 108.3627955 114.5918460  85.5617904 109.2933054 112.8522049  86.5264657
 109.2831373 112.4079075  87.5217524 108.4113522 111.9496513  85.5578374
 107.4368714 111.7630322  86.0091242 108.2774790 112.4553349  84.6015623
 109.0428359 110.5278424  85.2356546 109.1829895 109.5626317  86.2775007
 108.8427121 109.7650566  87.2930475 109.7927707 108.2925781  85.9599370
 109.8844229 107.5342713  86.7375432 110.2538894 108.0363576  84.6954824
 110.6986865 107.0635074  84.4861553 110.1595991 109.0222327  83.6543787
 110.6194607 108.8469908  82.6817957 109.4704183 110.2148989  83.8974246
 109.2605011 110.9001317  83.0761508 110.7300291 112.9150846  86.0588824
 111.5400408 112.0035133  86.2693104 111.0524388 114.0299569  85.3062260
 110.4320617 114.8133437  85.1594723 112.4213732 114.0838612  84.6978980
 112.8633577 113.1089435  84.9035299 112.2901418 114.2482370  83.2041484
 113.2923343 114.2663626  82.7759172 111.4828105 113.1140109  82.5654496
 110.4802807 113.0955477  82.9928754 111.4156450 113.2762319  81.4896837
 111.9771790 112.1619717  82.7586376 111.5206027 115.3696148  82.8863650
 111.4527553 115.4512051  81.9322475 113.2423222 115.2516593  85.2001693
 114.4778175 115.1296963  85.2546888 112.5696374 116.3144928  85.6968948
 111.6685682 116.3656088  85.2435068 112.9269231 117.3722486  86.6706446
 112.6981315 117.0584238  87.6891079 114.4702492 117.6344949  86.5614771
 115.0109916 116.7461626  86.8879163 114.7262347 117.8546510  85.5250878
 114.8242594 118.7157756  87.3669924 115.7688873 118.8716377  87.2963885
 112.1597980 118.6725507  86.5049837 111.5535789 118.8919642  85.4572694
 111.9046409 119.3221967  87.6846738 112.5642805 119.2082216  88.4409705
 110.7219233 120.1219873  87.9205701 109.8427347 119.4777308  87.9128162
 110.8821148 120.7204636  89.3334989 111.7532795 121.3752334  89.3546806
 109.9909999 121.2938363  89.5889559 111.0154040 119.9157538  90.0565310
 110.4904639 121.2066652  86.9176192 109.3590317 121.5574466  86.6946805
 111.4799505 121.7622048  86.1796673 112.4320056 121.4817234  86.3668049
 111.2448397 122.7990911  85.1592626 110.8004456 123.6971211  85.5883958
 112.5966254 123.1526162  84.5967857 112.3904249 123.9671995  83.9024986
 113.1484517 123.5376860  85.4542873 113.4246133 122.0910382  83.8984954
 112.6594965 121.4032367  83.5384592 113.9078159 122.5732930  83.0487633
 114.4701511 121.3140376  84.7072270 114.2765160 120.9370287  85.8714361
 115.5713841 121.1470151  84.1069151 110.2730548 122.4256966  84.0091653
 109.5777183 123.2811355  83.4385252 110.1790453 121.1571986  83.7104196
 110.8225538 120.5384122  84.1827537 109.1945692 120.5542724  82.7194862
 108.8139899 121.3522878  82.0819676 109.8314926 119.4535669  81.8142845
 110.0539319 118.5754735  82.4205616 109.0376125 119.2143128  81.1067451
 111.0521044 119.8635883  81.0694354 111.9565267 119.0911008  80.8514894
 111.1145610 120.9943725  80.6070155 108.0110038 119.9035694  83.4218389
 108.2646498 119.2788569  84.4538680 106.8134209 119.9542597  82.9161168
 106.6608050 120.6954907  82.2472488 105.6236646 119.0998597  83.3304865
 105.8621088 118.5784127  84.2574906 104.3677865 119.9490863  83.5553541
 104.5031258 120.5883034  84.4278128 104.3742845 120.5605713  82.6530549
 102.9934113 119.1951512  83.6669093 102.7517808 118.7667927  82.6941685
 103.0558122 118.0801294  84.7137745 103.2969577 118.5078033  85.6869357
 102.0902770 117.5772007  84.7676747 103.8247011 117.3602647  84.4332303
 102.0069072 120.2219210  84.2255929 101.9405806 121.0706217  83.5448527
 101.0238604 119.7627314  84.3298294 102.3522782 120.5651479  85.2007919
 105.4975452 118.0197755  82.2602557 105.1294975 118.2814670  81.0954220
 105.9017476 116.7512842  82.5989374 106.2157013 116.6457194  83.5530802
 105.8746290 115.5287694  81.7155711 106.2627686 115.8107974  80.7368438
 106.7146825 114.3371447  82.2590781 106.1313022 114.0930164  83.1468663
 106.7145675 113.4851221  81.5792564 108.1384171 114.6193165  82.6793885
 108.4341358 114.9022204  83.8180412 108.9976911 114.7082641  81.7242694
 109.9671159 114.8954532  81.9370497 108.6980851 114.5904099  80.7669568
 104.4202920 114.9206250  81.5613046 103.6084893 114.9485370  82.5056389
 104.0522601 114.4649120  80.3761783 104.6903445 114.6665526  79.6196807
 102.8548257 113.6432347  80.0846938 102.1912902 113.6536941  80.9493964
 102.0649830 114.1960875  78.8366733 101.5481552 115.1272670  79.0688219
 102.9231623 114.4067965  78.1985275 101.0899970 113.2320648  78.0943224
 101.6411664 112.3530460  77.7601980  99.9787724 112.8064391  79.0177770
  99.4268242 113.6849397  79.3519756  99.3038773 112.1334309  78.4889317
 100.4003251 112.2925011  79.8816413 100.2900589 114.0118543  76.9978566
 100.9853357 114.4410354  76.2764044  99.6126077 113.3280792  76.4863756
  99.7144082 114.8102240  77.4661844 103.4934331 112.2595588  79.7198012
 104.2036470 112.1247926  78.7111639 103.0463386 111.1779456  80.3555067
 102.4653784 111.4479586  81.1363252 103.3196762 109.7230257  80.1450557
 104.0523874 109.6119352  79.3457483 103.8712455 109.0446721  81.4178217
 103.0308488 109.0625166  82.1117339 104.1261282 108.0111942  81.1831765
 105.0594187 109.7237588  82.0504605 105.6183844 110.2343042  81.2662401
 104.6473468 110.7136439  83.0938709 104.0886900 110.2037253  83.8787176
 105.5340433 111.1794997  83.5238111 104.0186638 111.4799138  82.6403420
 106.0114973 108.6841783  82.6549590 106.3627829 108.0132293  81.8710423
 106.8637682 109.1910446  83.1075319 105.4854925 108.1084373  83.4164971
 102.0029607 109.0281462  79.6440279 100.8994005 109.2057790  80.1924553
 102.1462431 108.1770342  78.6045288 103.0949949 108.0781112  78.2725898
 101.0750206 107.4050117  77.9189796 100.1652619 107.4585095  78.5169565
 100.8054361 108.0302951  76.4939078 101.7750913 108.3286189  76.0953202
 100.1032863 107.0897252  75.4892033  99.1332958 106.7913248  75.8869171
  99.9625234 107.6094616  74.5414900 100.7179751 106.2038833  75.3293879
  99.8619916 109.2684931  76.7753045  98.8263101 109.0723143  76.4978545
  99.9037270 109.5939730  77.8147373 100.4316213 110.3654859  75.8747037
 100.3897892 110.0408960  74.8349963  99.8444308 111.2759621  75.9944514
 101.4672075 110.5625531  76.1518779 101.4376434 105.8988944  77.7261061
 102.4675912 105.5007189  77.1971507 100.4727694 105.0533155  78.1376283
  99.7205846 105.4246377  78.7001558 100.4900927 103.6145455  77.8637508
 101.4817661 103.3246110  77.5164454 100.2161874 102.9190494  79.1825449
  99.2229134 103.1923828  79.5386287 100.2667910 101.8393489  79.0418809
 100.9616265 103.2246131  79.9167455  99.4861558 103.1716043  76.7860241
  98.3279261 103.4958826  76.8320510  99.9863407 102.3422868  75.7989620
 100.9861403 102.2067998  75.7526645  99.1533026 101.7007857  74.7860623
  98.0980112 101.8415833  75.0198042  99.4485397 102.3470350  73.3734028
 100.3894043 101.9391405  73.0039503  98.6410918 102.0667775  72.6969534
  99.5494756 103.9051127  73.4463664  98.6373786 104.3281296  73.8673611
 100.4028608 104.2049913  74.0545676  99.7323421 104.4059260  72.0512341
 100.5132963 103.8108840  71.5778057  98.7936774 104.2649204  71.5153932
 100.1337267 105.9206926  72.0116644  99.2432079 106.5078215  72.2360670
 100.8829264 106.0876810  72.7855597 100.6695147 106.3270639  70.7235512
  99.9752890 106.1728115  70.0063646 100.9107047 107.3073890  70.7533833
 101.4949416 105.7834332  70.5156205  99.3734607 100.2091998  74.7408189
 100.3835065  99.7833673  74.0869876  98.6085994  99.3021350  75.3440581
  97.7346547  99.6770392  75.6843034  98.9453389  97.9054452  75.6735806
  98.3552447  97.5724663  76.5274033  98.6349278  96.9732602  74.4578561
  97.6434733  97.1853515  74.0576881  99.3766781  97.0835749  73.6668206
  98.6626388  95.5022439  74.9637615  98.1370414  95.2392519  75.9956823
  99.2556410  94.5650297  74.2928279  99.2572596  93.6188664  74.6462004
  99.7132881  94.7853424  73.4198317 100.3852280  97.7000063  76.1952264
 100.6110920  97.6759034  77.3632934 101.4026199  97.5359248  75.2938098
 101.1439727  97.6383071  74.3228726 102.7793164  97.2118145  75.6073190
 103.0912521  97.1104261  76.6467976 103.2016550  95.9861430  74.8595526
 104.2916201  95.9877550  74.8509728 102.6987474  94.6634485  75.4394217
 101.6087834  94.6609065  75.4478949 103.0587376  93.8371625  74.8264311
 103.0697598  94.5481787  76.4578338 102.9757492  96.1696908  73.4235801
 103.2494451  95.3789878  72.9529639 103.7858286  98.3260455  75.2763905
 104.9689436  98.1044290  75.3707783 103.2957046  99.5699871  74.9995861
 102.2915576  99.6666850  75.0489601 104.0619390 100.7070825  74.6625048
 105.1035780 100.4099971  74.5407357 103.5817677 101.3608478  73.3568186
 102.5846696 101.7667202  73.5275879 104.2668850 102.1725425  73.1121436
 103.5345420 100.3562398  72.1842494 102.8178554  99.5860023  72.4691975
 103.1529306 100.9066046  71.3242649 104.8567168  99.7071194  71.8224796
 105.2015451  99.1381115  72.6858581 104.6831419  99.0290654  70.9868877
 105.8979043 100.6602159  71.4436106 105.5303720 101.5893503  71.2962041
 107.2130277 100.4747548  71.3488171 107.6152627  99.2822375  71.4696821
 106.9477627  98.5409730  71.6280196 108.6021433  99.0766243  71.4073155
 108.0293139 101.4395966  71.0655643 107.6707333 102.3706360  70.9084479
 109.0205968 101.2564060  71.0031298 103.9808248 101.7838834  75.7586670
 102.8622669 101.9570155  76.2974605 105.0959267 102.4013563  76.0053972
 105.9782816 102.0798755  75.6336456 105.1124858 103.5101183  77.0341175
 104.1010184 103.8461886  77.2623492 105.7416774 102.9639510  78.3061491
 104.9745417 102.3661510  78.7983249 106.5272338 102.3082280  77.9306115
 106.3306867 103.9382357  79.2950881 106.8112849 104.7314506  78.7224308
 105.2805105 104.5606197  80.2639814 104.7997871 103.7679990  80.8373542
 105.7781451 105.2506610  80.9453797 104.5280798 105.0991017  79.6877995
 107.2860544 103.1981499  80.1343590 108.0697515 102.7743554  79.5064128
 107.7314813 103.8757739  80.8627283 106.7656958 102.3952674  80.6565712
 105.7814011 104.7872086  76.3393934 106.8982795 104.6768118  75.8324503
 105.0961083 105.8904463  76.2156267 104.2383071 105.9307369  76.7472781
 105.5395615 107.1153907  75.4993241 106.5091566 106.9322825  75.0362302
 104.5423129 107.5148546  74.4061700 103.5617839 107.6244555  74.8694731
 104.8591687 108.4738724  73.9963075 104.4603593 106.4648046  73.2629095
 105.4286180 106.2723164  72.8008228 104.1582260 105.5959202  73.8475928
 103.4133921 106.7345572  72.1665837 102.7692939 107.8145709  72.1513603
 103.3999484 105.8980246  71.2425028 105.4853363 108.3376582  76.4578510
 104.7059870 108.3052254  77.4298854 106.3765459 109.2919006  76.1972288
 106.8867769 109.2503039  75.3265777 106.6740008 110.3854860  77.1246912
 105.8439343 110.5794807  77.8039959 107.9673083 110.2203246  77.9324236
 108.7803281 109.9881374  77.2445368 108.3006745 111.4880455  78.7004175
 107.4882669 111.7206354  79.3888914 109.2223419 111.3406775  79.2633675
 108.4309335 112.3136682  78.0007897 107.9079893 108.9428024  78.8465150
 107.1971127 109.1734334  79.6399660 107.5078893 108.1442455  78.2217540
 109.2396570 108.4888399  79.4677657 109.6401646 109.2867600  80.0930792
 109.0729920 107.5999959  80.0762708 109.9509424 108.2575742  78.6748665
 106.7716061 111.7065646  76.2833390 107.5276348 111.7910092  75.2759787
 106.0791855 112.7238348  76.7136380 105.6503194 112.6514965  77.6251973
 105.8917183 113.9892366  75.9407970 106.7160315 114.0973951  75.2358795
 104.5759888 114.0043338  75.1604324 103.9576213 113.8264798  76.0402555
 104.3881906 115.0091629  74.7820801 104.2450318 113.0245579  74.1261850
 104.3007051 113.3993152  72.7624980 104.6063682 114.4063919  72.4788324
 103.9575120 112.4600799  71.7679083 104.0205421 112.7436718  70.7173348
 103.5163962 111.1681956  72.1246687 103.2349893 110.2166990  71.1888850
 103.3694465 110.5239175  70.2893642 103.3727226 110.8203975  73.4922459
 103.0536414 109.8143983  73.7647403 103.6391269 111.7638217  74.4898258
 103.3900530 111.5443189  75.5280361 105.8614873 115.2617855  76.8394151
 105.6978671 115.0791575  78.0462877 106.2062797 116.4358407  76.3271551
 106.4603378 116.4554640  75.3498277 106.0707488 117.7499094  77.0579697
 105.4502702 117.7762877  77.9537429 107.4591792 118.2778902  77.4105191
 107.4152816 119.3403661  77.6499293 107.9235408 117.5344908  78.5792426
 107.9681433 116.4719062  78.3404421 108.9161476 117.8846937  78.8624212
 107.2332930 117.6914149  79.4081180 108.5874512 118.4063237  76.3529407
 108.2671458 119.0813742  75.5593329 109.4859810 118.8027389  76.8258031
 108.8028822 117.4252004  75.9297536 105.5263152 118.7776962  76.0033217
 105.7627359 118.6593281  74.7520031 104.8356168 119.8286906  76.5051798
 104.6000974 119.7651156  77.4852759 104.2204183 120.9375795  75.6937680
 103.9477084 120.5348554  74.7182980 102.9101359 121.4194684  76.4236427
 103.1364443 122.0263593  77.3003224 102.1449646 122.3075900  75.3472121
 101.9178916 121.7012182  74.4703700 101.2171780 122.6832557  75.7787070
 102.7750311 123.1474181  75.0542843 101.9244147 120.3043863  76.8462283
 102.4215962 119.6209000  77.5345298 101.0601487 120.7501553  77.3386041
 101.5960452 119.7553766  75.9636963 105.2941092 122.0021710  75.3422741
 105.9770598 122.5859207  76.2243743 105.4318762 122.3227318  74.0524610
 104.8504105 121.8543229  73.3723213 106.4951451 123.2567391  73.5560631
 106.8051530 123.7721937  74.4650740 107.7474475 122.5309312  72.9373948
 108.3609613 123.3288014  72.5189401 108.5899288 121.6756431  73.8506257
 107.9771686 120.8772195  74.2691282 109.4142594 121.2416841  73.2847126
 108.9880151 122.2891005  74.6588942 107.3323421 121.5689905  72.0280992
 108.0997534 121.1298270  71.6541800 105.9908208 124.3039349  72.5544675
 104.8453756 124.2235645  72.1108077 106.7769088 125.2646327  72.0754013
 107.7256406 125.3801555  72.4019925 106.2066998 126.3095195  71.1659299
 105.4399019 126.8150344  71.7529349 107.2933352 127.3320026  70.7921576
 108.0638224 126.8427129  70.1963009 106.8476610 128.1418502  70.2145577
 107.7396476 127.7370433  71.7003682 105.4618551 125.6977163  69.9058441
 104.3644637 126.1247818  69.4746965 106.0164592 124.7029392  69.2518250
 106.9556302 124.4620466  69.5347171 105.4758626 124.0908624  68.0108350
 104.8577746 124.8104704  67.4739636 106.6483577 123.6583828  67.0888395
 107.4092698 123.1424182  67.6744098 106.2795485 122.9940358  66.3073520
 107.2563297 124.9058963  66.4510111 107.8848118 124.5794922  65.6224150
 106.4015434 125.4591634  66.0619930 108.0598625 125.8007179  67.3716763
 108.7033879 125.3446135  68.3669440 108.1716355 127.0311934  67.1936373
 104.4341296 123.0705363  68.3227274 103.9768418 122.3987936  67.4024890
 104.0577748 122.8317300  69.5963830 104.4947796 123.4014700  70.3066804
 103.0919243 121.8378007  70.0124005 102.3033234 122.3304073  70.5812120
 102.6626127 121.3719287  69.1254088 103.7296375 120.7584001  70.8804473
 104.6971630 120.9700388  71.5832562 103.1675022 119.5097022  70.8680584
 102.5817724 119.2369386  70.0917724 103.4350198 118.5381357  71.8951055
 103.5331442 118.9783622  72.8874116 102.1824734 117.6436643  71.8754918
 101.3474215 118.2913609  72.1424686 102.0460622 117.2764999  70.8582984
 102.2363623 116.4870853  72.8188362 103.2628702 116.1304806  72.9037803
 101.7301007 116.9445050  74.2149646 100.7034263 117.3008365  74.1309027
 101.7669450 116.1044435  74.9085350 102.3643104 117.7495480  74.5861576
 101.4182750 115.2820613  72.3973861 101.7765035 114.9177933  71.4345358
 101.5197025 114.4943026  73.1438779 100.3696711 115.5665814  72.3103384
 104.6670322 117.7895511  71.3966184 104.6022757 116.9518042  70.4718154
 105.7540820 117.9894572  72.0774432 105.7485307 118.6784837  72.8158950
 107.0375501 117.3372853  71.7362517 107.1361257 117.1653416  70.6644227
 108.1493807 118.3229891  72.1847498 107.8949605 119.3084800  71.7946506
 108.1459359 118.3521218  73.2743550 109.5592953 117.9173123  71.6834164
 109.8255345 116.9811255  72.1741015 109.4915865 117.7565401  70.6074658
 110.6027793 118.9400793  71.9672085 110.4323282 119.3301793  72.9706364
 111.5765982 118.4519598  71.9282783 110.6005176 120.1001590  70.9873213
 109.7766073 120.0562238  70.4047917 111.4904866 120.9992442  70.7289668
 112.5730194 121.0470123  71.4326748 112.7161666 120.3819524  72.1792030
 113.2709774 121.7491878  71.2329153 111.2180264 121.9470702  69.8410094
 110.3210317 121.9572018  69.3768996 111.9089107 122.6539469  69.6333972
 107.0850013 115.9176216  72.3788437 106.8659453 115.7873292  73.5843537
 107.5090542 114.8702946  71.6580273 107.7491578 114.8476451  70.2264050
 108.6262947 115.4747633  70.0668621 106.8773388 115.3217271  69.7755427
 107.9463441 113.4688364  69.7516322 108.9822725 113.2824256  69.4684319
 107.2926177 113.2332479  68.9118458 107.5464627 112.6513171  71.0127689
 108.2849130 111.8496584  71.0012207 106.5459404 112.2222182  71.0668887
 107.7911093 113.5733023  72.2284129 107.1726587 113.3902876  73.1071180
 109.2844023 113.5909585  72.6431447 110.2063420 113.8310760  71.8484801
 109.4790081 113.1713664  73.9056426 108.6546344 113.1037775  74.4852451
 110.7907020 112.9689723  74.5344039 111.6953734 113.3754620  74.0822591
 110.7188613 113.4414961  76.0112553 109.8433718 112.9648667  76.4522107
 111.9531608 113.1127267  76.8488116 112.8290411 113.5894257  76.4087063
 111.8119173 113.4808295  77.8650060 112.1005881 112.0329754  76.8712611
 110.2186417 114.9365591  76.0641435 109.2285597 115.0051325  75.6134359
 110.1686728 115.2670311  77.1016361 110.9125458 115.5720809  75.5139526
 111.4189543 111.5443076  74.4064642 112.5203195 111.2918192  73.9556934
 110.6820386 110.5014012  74.8324378 109.8775893 110.7230770  75.4014900
 111.1200117 109.0783875  74.7512429 111.6495411 108.8863258  73.8180708
 112.0771296 108.8027105  75.9259588 112.8964854 109.5058294  75.7763622
 111.5084134 109.0910837  76.8099853 112.6357796 107.4127094  76.1184375
 113.0393970 107.3352803  77.1279912 111.8280236 106.6914394  75.9943335
 113.7312081 107.1215001  75.1133010 113.4153134 107.4301727  74.1167917
 114.6409848 107.6557020  75.3872246 113.9975532 105.6471217  75.1180742
 114.4418455 105.3636984  76.0722105 113.0588148 105.1103234  74.9812641
 114.9379036 105.2982793  74.0069792 115.8079796 105.7952544  74.1337983
 115.1139889 104.3037774  74.0147234 114.5262194 105.5604344  73.1227338
 109.9335166 108.1441342  74.5198164 108.9488405 108.2948397  75.2460738
 110.0640559 107.0999316  73.6857526 110.8551057 107.1610564  73.0607700
 109.1138328 105.9244445  73.5320872 108.3730924 105.8860204  74.3307902
 108.4016072 106.1511350  72.2263368 107.8034927 107.0578847  72.3166872
 109.1518564 106.2874881  71.4474696 107.4828291 104.9623716  71.8547059
 108.0184507 104.0301924  72.0342949 106.7036865 105.0838976  72.6072133
 106.8511661 104.9250286  70.4738090 106.6571550 106.0080476  69.8827196
 106.6637323 103.8445723  69.9514626 109.9111358 104.5923598  73.6300121
 110.9013537 104.3340543  72.9540094 109.3766103 103.6236341  74.4571470
 108.5613057 103.9739586  74.9394855 109.8763610 102.2852384  74.8124992
 110.6169987 102.0189595  74.0584100 110.5361123 102.2228995  76.1875174
 111.1167256 101.3007523  76.2126571 111.4526331 103.4172302  76.5301670
 110.8725828 104.3397501  76.5056789 111.8729311 103.2792586  77.5263668
 112.2603454 103.4770475  75.8006985 109.5023176 102.2270349  77.2646531
 108.8497707 101.3620456  77.1460027 109.9908435 102.1821735  78.2380131
 108.9105014 103.1399095  77.1974632 108.7525876 101.2655569  74.6493516
 107.5713004 101.6088598  74.6123579 109.0590133  99.9676503  74.7552943
 110.0326235  99.7062067  74.6934099 108.0355420  98.8751216  74.9614214
 107.0703874  99.3301814  75.1838995 107.9567572  98.2855337  74.0480330
 108.4237579  97.9658422  76.1006213 109.6006409  97.9031632  76.4273300
 107.5107764  97.1277309  76.5885528 106.6674932  97.1452405  76.0329755
 107.5606021  96.2242742  77.7605423 108.5817871  96.0990182  78.1205302
 106.7165374  96.8735014  78.8834728 105.7273086  97.0645398  78.4675042
 106.6372454  96.1401070  79.6859350 107.2804108  98.1407481  79.4238371
 108.2255961  97.9086926  79.9146280 107.4621844  98.8146498  78.5866292
 106.1528400  98.9665933  80.6354207 106.1015724  97.9637257  82.1343378
 107.1049201  97.8828291  82.5524861 105.4413024  98.4329910  82.8636761
 105.7274763  96.9686131  81.8937047 106.9814644  94.8302716  77.4281324
 106.1459418  94.6026365  76.5522098 107.3899741  93.9092193  78.2501831
 108.1390304  94.0623594  78.9101545 106.7890587  92.5745502  78.1786836
 106.4779100  92.3395773  77.1608067 107.8452469  91.5571176  78.6141861
 107.9532057  91.7748983  79.6767376 107.4061360  90.5673036  78.4894868
 109.1966823  91.5920835  77.9558969 109.2924156  91.8017341  76.5740725
 108.4080996  92.0168100  75.9742166 110.5533375  91.7309808  75.9640816
 110.6154782  91.7546117  74.8761101 111.7609693  91.5845030  76.7573707
 112.9938143  91.6899553  76.1373176 112.9263774  91.8583444  75.1946103
 111.6099434  91.3847701  78.1283616 112.4926641  91.2539093  78.7542850
 110.3440722  91.3519681  78.6977965 110.2294855  91.1323702  79.7592798
 105.5454140  92.3689095  78.9868102 105.4584742  91.5387152  79.9481322
 104.5683913  93.2921239  78.7468397 104.7003306  93.9511565  77.9929383
 103.3840290  93.3699880  79.5006746 102.9926827  92.3545127  79.5619711
 103.6756987  93.7070658  80.4953638 102.3363363  94.2541505  78.9861158
 102.6043412  95.4161230  78.5996639 101.1401864  93.7608778  79.2641546
 101.0549098  92.7705051  79.4430095  99.9240532  94.5528757  79.1775672
  99.9015897  95.2311960  78.3246451  98.8126353  93.4384000  78.9688850
  98.9686145  92.9642364  77.9998966  98.9108879  92.6926516  79.7577487
  97.4143554  94.0484257  79.0172149  97.2351234  94.2824203  80.0666067
  97.4807874  94.9739715  78.4453286  96.2354490  93.1806909  78.4684515
  96.2376080  92.2580515  79.0488228  95.3219006  93.7378218  78.6761386
  96.3000872  92.8428317  76.9681362  97.3231142  92.5381062  76.7475494
  95.6262221  92.0038169  76.7947600  95.9357011  93.9253720  76.1222584
  96.5602662  94.7027762  76.2824482  96.0002928  93.6349411  75.1570756
  94.9876258  94.2076109  76.3262035  99.6730127  95.5239339  80.3066774
  99.3212673  95.1743280  81.4401587 100.1344999  96.7664355  80.0242094
 100.4445907  97.0085493  79.0939815 100.2557677  97.7660050  81.0732781
 100.9328959  97.3911521  81.8407949 100.7898068  99.0961542  80.5259552
 100.1583512  99.4250144  79.7005976 100.7793397 100.1413436  81.6141995
 101.4109913  99.8133783  82.4397633 101.1598083 101.0828559  81.2180947
  99.7596482 100.2838906  81.9719827 102.2412391  98.9162229  80.0003679
 102.8771637  98.8700333  80.8844309 102.2586280  97.9531352  79.4902118
 102.7602112 100.0041076  79.0546910 102.7435546 100.9674784  79.5643371
 103.7818184  99.7693647  78.7558372 102.1250171 100.0505819  78.1701185
  98.8956118  97.9811037  81.7673109  97.9836013  98.4991981  81.1257620
  98.8618599  97.6954369  83.0644898  99.7432823  97.3630539  83.4287912
  97.6766944  97.6256031  83.9340385  96.8764816  97.7987926  83.2144802
  97.5808282  96.1975048  84.4302099  98.3702209  96.0115850  85.1584907
  96.6097481  96.0397794  84.8994926  97.6934396  95.5121259  83.5901661
  97.4738219  98.6898224  85.0884041  96.3820933  98.7923663  85.6840084
  98.5202744  99.5215690  85.2498345  99.2362599  99.4289163  84.5435204
  98.7044280 100.5162487  86.2893390  97.7263177 100.9572407  86.4814991
  99.2804006  99.9573441  87.6462264 100.2050180  99.4269176  87.4185651
  99.5621006 101.0543229  88.6793593  98.6377966 101.5849245  88.9078874
  99.9564850 100.6037393  89.5901478 100.2926014 101.7553975  88.2756706
  98.3527122  99.0054772  88.3512601  98.1519220  98.1491684  87.7074274
  98.8168443  98.6630734  89.2761605  97.4163379  99.5136189  88.5816857
  99.6811981 101.4692940  85.7103790 100.7330127 101.1248421  85.1934914
  99.4117008 102.7877688  85.8607803  98.4561933 103.1079771  85.9283930
 100.4740996 103.7895955  85.7677319 101.4330738 103.3788233  86.0835388
 100.5817377 104.2097556  84.3104486 100.5933876 103.3350585  83.6601652
  99.7471788 104.8549004  84.0358588 101.8895040 104.9767465  84.1532448
 101.7068486 105.9899748  84.5111641 102.6209333 104.4903226  84.7986169
 102.5459530 105.0506718  82.4514414 101.2545682 105.9566662  81.6087264
 101.1390836 106.9381132  82.0686437 101.5204887 106.0771354  80.5585482
 100.3159694 105.4076967  81.6846599 100.2189807 104.9270283  86.7877878
  99.1980973 105.5445532  86.6777333 101.1453509 105.1470425  87.7282521
 102.0059033 104.6270327  87.6326559 101.0008065 105.9878657  88.8290174
 100.2658073 106.7558531  88.5880388 100.5282099 105.2292348  90.1077517
  99.6090709 104.7433232  89.7803794 101.3050667 104.4779493  90.2497509
 100.2714082 105.9731543  91.4562607 100.0491332 105.2849326  92.2717640
 101.2197167 106.4735984  91.6521327  99.1784708 106.9958822  91.3534720
  98.0591352 106.6999309  91.8639088  99.4358989 108.1285636  90.8718825
 102.3366450 106.7530342  89.1865781 103.4124047 106.2578654  88.9623236
 102.3168153 107.9664701  89.7114163 101.4330880 108.4545298  89.7418010
 103.5603659 108.6898921  90.2188643 104.4704170 108.1407674  89.9772692
 103.6049372 110.0580881  89.5036642 102.5753299 110.3926770  89.6303862
 104.2760645 110.7471783  90.0163462 103.9430838 110.0250973  88.0439240
 103.3872848 109.2302954  87.5464522 103.5555827 111.3735079  87.4379392
 104.1113594 112.1688175  87.9346221 103.7919338 111.3756130  86.3738741
 102.4866843 111.5391866  87.5725019 105.3781628 109.6360092  87.6652755
 105.5933712 108.6339279  88.0362443 105.4853911 109.6521721  86.5806824
 106.0766575 110.3451256  88.1095255 103.5801376 108.8690993  91.8068979
 102.5622553 109.1171782  92.3914452 104.7938448 108.8339691  92.3731501
 105.5386952 108.4785073  91.7909609 105.1004585 109.1518114  93.7991590
 104.4112677 109.9124840  94.1658911 104.9522793 107.8907710  94.6726155
 105.1520993 108.3092988  95.6590260 103.9833152 107.3916145  94.6797744
 106.0127932 106.7935032  94.4351212 105.9244936 105.9950703  93.2656773
 105.1390354 106.2376091  92.5499048 106.7825462 104.9487483  93.0170951
 106.7316903 104.4122457  92.0696357 107.7278588 104.5714650  93.9898512
 108.4090248 103.7360137  93.8281913 107.7803837 105.2899344  95.1756357
 108.4981903 104.9945546  95.9408838 106.9201635 106.3914073  95.3996481
 106.9665719 106.9362184  96.3425834 106.4272064 109.8158262  94.1515909
 107.3283707 109.5731167  93.3449466 106.5635142 110.5599065  95.2608932
 105.7181862 110.8211021  95.7480243 107.8676832 111.1299549  95.7416781
 108.7138763 110.6698197  95.2314506 107.8576284 112.6365764  95.4182489
 107.5932045 112.7547404  94.3674318 107.0972951 113.1103109  96.0391908
 109.2723162 113.3251074  95.6914562 109.5723927 113.1903950  96.7306422
 110.0369974 112.9082086  95.0360479 109.1010525 114.8798074  95.3856100
 108.3207698 115.2905386  96.0263577 110.0416976 115.3932450  95.5847784
 108.7406354 115.1007482  94.0323747 108.3106788 114.3181924  93.5603120
 108.8919622 116.2419441  93.3624875 109.6333866 117.1944118  93.8053646
 110.1190831 117.0852701  94.6841632 109.7265972 118.0472462  93.2723684
 108.3420587 116.4672628  92.2180122 107.7644042 115.7577053  91.7902933
 108.4916314 117.3522225  91.7547918 108.1422405 110.8098544  97.2307863
 107.7313380 111.6007677  98.0950324 108.9072307 109.7454836  97.5696057
 109.4440569 108.7716895  96.6687696 110.3359524 109.1811193  96.1944385
 108.6989482 108.5453478  95.9060892 109.7480336 107.5843767  97.5451174
 110.5031197 106.9493157  97.0818233 108.8452064 107.0012303  97.7266244
 110.2623728 108.2083736  98.8385427 111.3293520 108.4250170  98.7863906
 110.0569309 107.6081052  99.7248672 109.4827527 109.4918827  98.8965688
 108.6638184 109.3976000  99.6096997 110.4189674 110.6144000  99.3425866
 111.1839398 111.1675133  98.4902605 110.4285432 110.8831388 100.6861676
 109.7477120 110.5148823 101.3349782 111.3838803 111.9010464 101.1748487
 111.2533014 112.8211819 100.6052883 111.1644899 112.2079069 102.6549698
 111.4058746 111.3200025 103.2393143 111.8236457 113.0251641 102.9477226
 109.6743059 112.6182809 102.9197133 109.3876766 113.3425897 102.1572691
 109.0595598 111.7237482 102.8197102 109.4595984 113.2423018 104.3383180
 109.9786976 112.6014805 105.0510473 109.9270892 114.2269085 104.3282376
 107.9966875 113.3785196 104.7490908 107.8661455 114.0045712 105.6317679
 107.3682594 113.7542517 103.9416240 107.6229115 112.0410804 105.0572807
 108.2048221 111.6928774 105.8057688 106.6551410 112.0199089 105.3455029
 107.7433949 111.4608862 104.2393825 112.8525481 111.5808204 100.8790664
 113.2268150 110.4581269 100.8771576 113.6028765 112.5647849 100.3303086
 113.1971588 113.4879154 100.2726664 114.9723271 112.3684551  99.8138916
 115.6100940 113.1569721 100.2133830 115.3363001 111.3994688 100.1554888
 115.0280913 112.4109947  98.2587772 116.0218193 112.7533295  97.6167300
 113.9126102 112.2318208  97.5692434 113.1286093 111.8175018  98.0527532
 113.7609690 112.5515637  96.1192830 114.7068273 112.4311333  95.5911280
 112.7470361 111.5829496  95.5279389 111.8293000 111.8268807  96.0630625
 112.6622508 111.9136265  94.4927751 112.9706694 110.0689119  95.5629255
 112.7390466 109.7724796  96.5859502 112.2347834 109.6370863  94.8846206
 114.3851058 109.5572274  95.1844169 114.9304982 108.7576070  96.0116112
 114.9510948 109.9110150  94.1596151 113.3268352 114.0026896  95.8125656
 112.3642684 114.5663687  96.3491576 113.9958266 114.6476771  94.8612151
 114.9181886 114.3343950  94.5943779 113.5050531 115.9206167  94.3104022
 112.7558769 116.3722103  94.9607079 114.7131254 116.8744193  94.2137582
 114.3989353 117.8538261  93.8530004 115.1932301 116.9828810  95.1862990
 115.6098744 116.3175598  93.3157778 116.3764068 116.8895155  93.2327448
 112.7094020 115.7922783  93.0377677 112.3148840 116.8224429  92.5128024
 112.3929056 114.6001791  92.5211416 112.8444567 113.7826355  92.9056197
 111.5587863 114.4366423  91.2964994 110.7556172 115.1712770  91.3542094
 112.2960288 114.6179685  89.9572610 111.5980051 114.4841794  89.1308455
 112.7301954 115.6165253  89.9074229 113.4229442 113.5597276  89.8573521
 114.1357903 113.7863985  90.6501772 112.9607731 112.5917102  90.0508518
 114.1480861 113.5168889  88.5210572 113.4197578 113.2121882  87.7695292
 114.4880500 114.5301501  88.3069877 115.3667624 112.5419733  88.4894260
 115.7088804 112.4793813  87.4564022 116.1519772 112.9797528  89.1057750
 115.0518347 111.1972829  88.9819696 114.3245578 110.7912812  88.4107160
 115.8788223 110.6193576  88.9351299 114.7352074 111.2550142  89.9393166
 110.8209164 113.1046180  91.4331308 111.3316779 112.1832187  92.0566130
 109.6144612 112.9998072  90.9344578 109.1880004 113.8778040  90.6749349
 108.7521699 111.7710279  90.9645258 108.6363834 111.4356215  91.9951543
 107.3615479 112.0503868  90.3808510 107.3907778 112.1306124  89.2942008
 106.9161818 111.0961836  90.6623566 106.5190355 113.1971756  90.9556538
 105.3748127 113.2932846  90.5188871 106.8914054 113.8980796  91.9769247
 109.3976198 110.4965712  90.4504543 110.1171867 110.5016860  89.4559522
 109.0833370 109.4029955  91.1077461 108.7656401 109.5672195  92.0523087
 109.1875192 108.0303010  90.6452564 109.8590128 107.9781324  89.7882418
 109.7425674 107.1329342  91.7580158 108.8931195 107.0863729  92.4394624
 109.9488673 106.1367072  91.3667713 110.9882454 107.6570983  92.5199687
 110.8265811 108.6806272  92.8581315 111.2019274 106.7389327  93.7431027
 111.3641291 105.7152416  93.4056919 112.0722689 107.0779725  94.3049375
 110.3204227 106.7745844  94.3832423 112.2264146 107.8031909  91.7302275
 112.0571325 108.5066524  90.9150067 113.0250528 108.1762423  92.3714067
 112.5128254 106.8347300  91.3201647 107.9160365 107.3851063  90.1506642
 106.8391717 107.7095372  90.6131400 108.0915038 106.4393805  89.2903364
 109.0540552 106.1529228  89.1829293 107.1122450 105.8433145  88.4475135
 106.1417366 106.3140111  88.6045406 107.5267873 106.0356848  86.9410610
 107.5483335 107.1170845  86.8061175 108.5337554 105.6352712  86.8236552
 106.6031431 105.4090401  85.8924568 106.6340663 104.3240410  85.9920627
 105.1827608 105.8932315  86.0902396 105.1509572 106.9781748  85.9903136
 104.5360484 105.4405399  85.3386186 104.8369648 105.6101559  87.0844195
 107.0822657 105.7422060  84.4583299 108.0900666 105.3536149  84.3119273
 106.4082600 105.2847620  83.7340630 107.0862492 106.8231208  84.3179505
 106.7679911 104.4114391  88.6405112 107.7274226 103.6247162  88.5535664
 105.5910062 104.0673825  89.1254250 104.9865332 104.8195028  89.4237986
 105.1466914 102.7095660  89.3315411 106.0138602 102.0559041  89.2375001
 104.4895880 102.4597663  90.6970682 105.2690217 102.6283352  91.4401475
 103.6761044 103.1672671  90.8576515 103.9291529 101.0927951  90.9649194
 104.8672537 100.0484999  91.1511915 105.9261069 100.2516269  90.9909757
 104.4422962  98.7436252  91.5434647 105.1472204  97.9543373  91.8046298
 103.0795709  98.4971914  91.5857044 102.7183518  97.5132345  91.8847854
 102.1482388  99.5260692  91.2393590 101.0874638  99.2820809  91.1816862
 102.5860139 100.8440692  90.9735865 101.8576725 101.6320738  90.7820992
 104.2076845 102.2445898  88.2746125 103.1630872 102.8902003  88.0907823
 104.4913454 101.0768750  87.7741001 105.3402940 100.6851345  88.1561013
 103.8012130 100.3399039  86.7446342 102.7719419 100.6955056  86.6972263
 104.4548708 100.4932140  85.3762978 105.4880973 100.1504566  85.4316223
 103.6959799  99.6614104  84.3362473 102.6627186 100.0039161  84.2800189
 104.1700867  99.7770389  83.3615918 103.7147091  98.6109301  84.6264878
 104.4447449 101.9840785  84.9584085 103.4090373 102.3197306  85.0108321
 105.0386060 102.5230264  85.6966250 105.0034137 102.2608430  83.5488640
 104.4097348 101.7225612  82.8100150 104.9568607 103.3301188  83.3425113
 106.0393035 101.9258546  83.4958073 103.7520055  98.8427759  87.1862999
 104.7554935  98.2408382  87.4953128 102.6100519  98.1982870  87.0941598
 101.8455837  98.8384241  86.9331870 102.3165199  96.7809589  87.1620588
 103.2377311  96.2082122  87.2689715 101.4266494  96.5038422  88.3712552
 102.0522520  96.7108102  89.2395207 100.6285065  97.2440038  88.3144327
 100.8314489  95.1385859  88.5003966 101.3913955  94.4248556  87.8961205
 100.9037827  94.7296658  89.9652820 100.3436387  95.4427171  90.5701749
 100.4749846  93.7349680  90.0869754 101.9445813  94.7181603  90.2888652
  99.3613011  94.9640314  88.0758047  99.2525242  95.2283626  87.0239510
  99.0610718  93.9264545  88.2220840  98.7283740  95.6135663  88.6804588
 101.5566804  96.4355466  85.8520423 100.8137161  97.2499735  85.2879299
 101.6690939  95.1650369  85.4567798 102.1683923  94.5345348  86.0677361
 101.1194571  94.6282918  84.1928027 100.5771418  95.4135165  83.6661002
 102.2906353  94.1166804  83.2675781 101.8843025  93.8371828  82.2955313
 103.3680608  95.2564926  83.0795128 103.7752079  95.5362118  84.0511547
 104.1727318  94.8945329  82.4395215 102.9007372  96.1263393  82.6179114
 102.9104747  92.9843075  83.8842698 103.6246607  92.6672518  83.3265831
 100.1695301  93.4638206  84.5008392  99.8888401  93.1726883  85.6300814
  99.4742584  92.8526326  83.5461075  99.7605282  93.0325359  82.5943808
  98.3099359  91.9971255  83.7697474  97.7397371  92.4610656  84.5745655
  97.4606149  91.9993418  82.5087756  98.0146908  91.5296557  81.6960672
  96.5402876  91.4438068  82.6889946  97.2170800  93.0261535  82.2359246
  98.5955228  90.5569433  84.1568704  97.6994089  89.9080027  84.6721684
  99.8435037  90.0535370  83.9697908 100.4433084  90.6010142  83.3692890
 100.3754046  88.8122572  84.5374914  99.5993548  88.0822780  84.7676570
 101.2791779  88.2381816  83.3992273 100.9736319  88.6326060  82.4301193
 102.3256557  88.4852672  83.5779248 101.1049478  86.7118218  83.4085253
 101.5854431  86.2917845  84.2921506 100.0439167  86.4624287  83.4193887
 101.7722245  86.1115450  82.1125720 101.2020606  86.3921074  81.2269667
 102.7970607  86.4690524  82.0125795 101.7754434  84.6071059  82.2533856
 102.3877320  84.3573700  83.1198931 100.7480734  84.2894187  82.4313881
 102.3076852  83.9112069  81.0545456 103.2598064  84.2051198  80.8896815
 102.2850528  82.9130290  81.2069552 101.7402095  84.1421459  80.2515900
 101.1714054  88.9941699  85.8045871 101.8234713  88.0213371  86.2518403
 101.1009183  90.1729350  86.4422339 100.7391546  90.8037542  85.7413106
 101.5280897  90.7345704  87.7308829 101.1493929  91.7493125  87.8533010
 100.9664489  89.8654976  88.8534515 101.5289801  88.9321729  88.8771751
 101.2099263  90.4583753  89.7351061  99.4616656  89.5559729  88.8444656
  98.4961308  90.6072440  89.0933300  98.8999682  91.5803001  89.3729308
  97.1377705  90.4303559  88.9937305  96.4533303  91.2522768  89.2037054
  96.6443593  89.2139049  88.5526633  95.2833707  89.2063486  88.4617132
  94.8857350  90.0420396  88.7168723  97.4583454  88.0981661  88.3047368
  97.0803551  87.1313396  87.9723660  98.8743634  88.2861580  88.5150173
  99.5556536  87.4399965  88.4258290 103.0223972  91.0365600  87.9111419
 103.4776946  91.3763746  88.9867405 103.7878712  91.0085064  86.7832329
 103.4385930  90.5903343  85.9328000 105.1111401  91.6476776  86.7530558
 105.7634089  91.2299953  87.5199887 105.7334395  91.3847926  85.3895387
 105.1416362  91.9461221  84.6665053 106.7578828  91.7570959  85.3870265
 105.7475890  89.8687915  84.9600840 105.0096622  89.4256643  84.1419909
 106.6007629  89.0963943  85.5793085 106.6526433  88.1156085  85.3437933
 107.2042536  89.4838598  86.2904838 104.9160515  93.1721940  86.9030135
 104.0569656  93.8432347  86.3411730 105.7794148  93.7708467  87.7510818
 106.5312561  93.2298327  88.1537452 105.6756572  95.1783230  88.1055250
 105.2278643  95.8122000  87.3401619 104.7799177  95.2458958  89.4041680
 105.2204379  94.6232190  90.1828307 104.7224098  96.2768768  89.7532686
 103.7777064  94.8843020  89.1741205 107.0321565  95.7063935  88.3713485
 108.0835169  95.0325023  88.5016020 107.0956184  97.0723221  88.3989317
 106.2574306  97.6327265  88.3398783 108.4212171  97.7795542  88.5124913
 109.0892184  97.2192076  89.1666207 109.0958333  97.8992136  87.0810569
 109.8688764  98.6672613  87.1056812 109.5426980  96.9433020  86.8078445
 107.9873152  98.3448029  85.7158632 108.9209708  98.3317755  84.7687540
 108.1973528  99.1888206  89.0965694 107.1304089  99.8344491  89.0050247
 109.2451039  99.7346576  89.6534047 109.9765315  99.0631774  89.8384109
 109.4800441 101.1269016  90.0091810 108.6801952 101.8354256  89.7939262
 109.8878826 101.2467188  91.4951950 110.5630233 100.4122274  91.6846934
 110.5790317 102.5900404  91.9341221 109.9042685 103.4250005  91.7453445
 110.8148422 102.5473797  92.9974537 111.4975412 102.7298137  91.3641195
 108.7264457 100.8653718  92.4750954 108.0307322 101.7019992  92.5394235
 108.2071661  99.9910346  92.0826890 109.2765897 100.5487502  93.8737059
 109.7956403 101.4228321  94.2669835 108.4530354 100.2865315  94.5378586
 109.9720764  99.7118684  93.8102484 110.6103286 101.6706026  89.1502630
 111.7042102 101.0309328  89.0888244 110.2713504 102.6208619  88.2709906
 109.3059420 102.9060041  88.3533308 111.0795116 103.2166208  87.2165999
 111.9638070 102.6211207  86.9896625 110.1583227 103.2499177  85.9473216
 109.3162924 103.8425001  86.3049951 110.6585341 103.7818140  85.1380164
 109.6630051 101.9340749  85.4460411 109.3677525 101.3120144  86.2910072
 108.4661620 102.1527974  84.5359817 108.7607712 102.7744336  83.6904802
 108.1059862 101.1909336  84.1710266 107.6718877 102.6501617  85.0926302
 110.8017554 101.1449402  84.7727774 111.5990977 100.9692108  85.4949020
 110.4196591 100.1890742  84.4144146 111.1934560 101.7173360  83.9319250
 111.5836690 104.5730861  87.6224462 110.9223122 105.2577958  88.3281096
 112.6160777 105.0119445  86.9512790 113.0891113 104.3309805  86.3745411
 113.2094403 106.3269483  87.0884613 112.4352650 107.0676875  87.2886043
 114.2000627 106.3322436  88.2473963 113.6230943 106.2119965  89.1643191
 114.8546431 105.4707913  88.1150159 115.0547954 107.6199588  88.3409665
 115.6618845 107.7496186  87.4450134 114.2659996 108.3720573  88.3567209
 115.9718778 107.7862091  89.6315768 116.1875714 106.7895735  90.3216954
 116.5117190 108.8745936  89.7722489 113.8270376 106.9006188  85.7934039
 114.4394748 106.1654722  85.1077406 113.6155142 108.1692211  85.4477409
 112.7422075 108.5968226  85.7208555 114.4361714 108.8487247  84.4558055
 114.5537076 108.2153796  83.5765112 113.7770274 110.1658797  84.0266659
 112.8496377 109.7701277  83.6126274 113.5488940 110.8165319  84.8708856
 114.5064001 110.9570535  82.9633660 115.3214011 112.0370588  83.4238395
 115.4989230 112.1301820  84.4952467 115.8686107 112.9330726  82.5654620
 116.5877345 113.6692908  82.9245520 115.6696003 112.7539435  81.1604105
 116.1479505 113.6651721  80.2437243 116.6101613 114.4007788  80.6521892
 114.7876454 111.7572863  80.7004605 114.5161849 111.7527159  79.6448144
 114.2541558 110.7731712  81.5754189 113.6866593 109.9348102  81.1714404
 115.9271862 108.9516707  84.7076034 116.4169391 109.2251544  85.7784034
 116.6853054 108.6329662  83.6327784 116.2732268 108.1647164  82.8384028
 118.1126770 108.9005773  83.6100677 118.3177263 109.6373382  84.3867513
 119.0182315 107.6725120  83.8436929 118.7131992 107.2227249  84.7885453
 118.8274213 106.9724623  83.0302915 120.4506656 107.9870204  83.8919823
 120.6914755 108.3918969  82.9090345 120.5496288 108.7718890  84.6418420
 121.4222426 106.8309234  84.2250389 122.3363871 107.2579078  84.6374987
 120.9519735 106.1906313  84.9713448 121.7603126 106.0052880  82.9874849
 120.8325555 105.5873006  82.5967753 122.1982170 106.6729922  82.2455212
 122.7091806 104.9078529  83.2845822 122.3034229 104.2887892  83.9717652
 122.9021527 104.3913442  82.4383668 123.5690862 105.2949832  83.6462332
 118.5765571 109.5517499  82.2603705 118.1219363 109.1660363  81.2055763
 119.3580832 110.6152320  82.3729483 119.3675805 111.0418230  83.2883877
 120.0312051 111.3191212  81.2672427 120.0332032 110.6716286  80.3904026
 119.3464378 112.6307780  80.9024631 119.7884405 113.0272115  79.9883661
 118.2831915 112.4512809  80.7431269 119.5288266 113.6443988  82.0396668
 118.8160837 113.2800006  82.7794724 120.5281456 113.6582940  82.4747190
 119.1466461 115.0644036  81.6552941 118.1003650 115.3250703  81.0752299
 120.0708010 115.9761097  81.8324325 119.8779634 116.9388893  81.5958516
 120.9717307 115.7118856  82.2047395 121.4909491 111.3991354  81.5985721
 121.8181576 111.6077392  82.7737746 122.4110263 111.1191205  80.6269108
 122.0580799 111.1628828  79.6815997 123.8450302 110.7885612  80.8285796
 124.2210002 111.4290594  81.6263941 124.1306537 109.3001721  81.2069222
 123.8759090 108.6561966  80.3651978 125.1874525 109.1827999  81.4467140
 123.3379284 108.9335337  82.3467738 123.5143146 108.0187223  82.5783075
 124.8027947 110.9890951  79.5960706 124.6615934 110.1893852  78.6510589
 125.6072366 112.0808271  79.4826931 125.6838466 112.6823366  80.2904161
 126.3585851 112.4351130  78.2821341 126.6674178 113.4736366  78.4012577
 127.2400971 111.7942466  78.2640690 125.6310894 112.2920538  76.9965323
 126.1207368 111.6432429  76.0946543 124.4487850 112.8639060  76.9189163
 124.0690903 113.0140428  77.8427075 123.5705009 112.9770369  75.7998602
 122.8034615 113.7074384  76.0572773 124.2495485 113.4167990  74.4749132
 125.0867744 112.7353029  74.3241979 123.5092117 113.2611210  73.6902057
 124.7384497 114.8218053  74.4236589 124.9676211 115.0646945  73.3860722
 123.9109923 115.4425253  74.7673450 125.9690992 115.0864284  75.2926799
 126.0498114 115.9448722  76.2370546 126.9693496 114.3616922  75.0481487
 122.5129459 111.9158214  75.5724394 121.5069260 112.1293645  74.8917153
 122.7081280 110.7424994  76.2017123 123.5917197 110.7165144  76.6902713
 121.9526242 109.5776647  76.1442390 121.4514696 109.4941573  75.1798896
 122.9111041 108.3325037  76.3252559 123.3532589 108.3308977  77.3215469
 122.3646155 107.4023729  76.1693487 123.9217201 108.4443198  75.3679866
 124.5239088 107.7012044  75.4501324 120.7459967 109.6204590  77.1335719
 120.9020559 109.9415288  78.3012691 119.6030005 109.0771520  76.6628990
 119.6192728 108.9084973  75.6672132 118.3365343 108.8826909  77.3816489
 118.4101923 109.3927685  78.3421147 117.1141580 109.4799809  76.5567229
 117.0535092 108.9718238  75.5943309 115.8296331 109.2847461  77.3067503
 115.8893541 109.7930463  78.2691250 115.0039281 109.6990393  76.7282408
 115.6610048 108.2201017  77.4686021 117.4992778 111.0390203  76.4310697
 118.4035795 111.0509001  75.8226307 116.6772823 111.4809904  75.8679665
 117.7356134 111.8520740  77.7169765 118.5578290 111.4109480  78.2804204
 117.9850327 112.8806652  77.4564205 116.8315318 111.8410362  78.3257576
 118.1028048 107.3954258  77.8529007 118.3487616 106.4648950  77.1207070
 117.7199811 107.1649859  79.1276322 117.5603374 107.9670770  79.7203068
 117.5418022 105.8430033  79.6969751 117.2298792 105.1577106  78.9088272
 118.7819899 105.3260939  80.3078761 119.1480442 106.2217713  80.8097381
 118.5790479 104.5525274  81.0484903 119.8524482 104.8189312  79.3131625
 119.5644218 103.8277345  78.5793691 120.9849229 105.3487753  79.4144508
 116.4211790 105.8740921  80.8027523 116.0684262 106.8518228  81.4348070
 115.8180055 104.7438627  80.9951927 116.0644520 104.0264524  80.3283451
 114.7294217 104.4625337  81.9588199 114.5705745 105.1311576  82.8048748
 113.3052425 104.1664749  81.2265031 113.4262921 103.3175631  80.5536019
 112.1848785 103.8404594  82.2870536 112.0629239 104.6891496  82.9600712
 111.2432007 103.6463680  81.7735633 112.4729261 102.9601738  82.8617057
 112.9625316 105.1781734  80.0840420 113.8531443 105.2837676  79.4645586
 112.1585799 104.7407843  79.4920523 112.5179920 106.5919976  80.6070983
 113.3216659 107.0302436  81.1988319 112.2964649 107.2404216  79.7594124
 111.6271022 106.4872597  81.2263278 115.1903750 103.3604614  82.9107414
 115.1037214 102.2021137  82.4967707 115.6702652 103.7280029  84.1212156
 115.5694561 104.6827773  84.4348123 116.3845590 102.7613478  85.0107532
 116.7352770 101.8300684  84.5659895 117.5859253 103.5202308  85.6366453
 117.2393604 104.4980736  85.9710352 118.1701841 102.7668244  86.8065985
 118.5174132 101.7889904  86.4728722 119.0085906 103.3282848  87.2188331
 117.4071147 102.6382941  87.5742600 118.6054182 103.9045516  84.5888034
 118.0161788 104.5156268  83.9050747 119.2864724 104.5433180  85.1511576
 119.4071987 102.8844716  83.7941125 118.7267963 102.2455946  83.2310951
 120.0729236 103.4027086  83.1039385 119.9970885 102.2732839  84.4771788
 115.4740626 102.2299713  86.0691965 114.6170138 102.9919264  86.5349042
 115.4707284 100.9377674  86.3243045 116.1437689 100.3762833  85.8224566
 114.5042882 100.2542537  87.1949458 113.6328209 100.8803938  87.3862379
 114.0485715  98.9953147  86.4483824 114.9259036  98.3799734  86.2490237
 113.0000582  98.1613347  87.2845726 112.1221898  98.7759086  87.4839358
 112.7036607  97.2779265  86.7190307 113.4496220  97.8537476  88.2287035
 113.4475930  99.2521239  85.2631433 113.1883455  98.4252455  84.8500292
 115.1138356 100.0129956  88.4901611 116.0028268  99.1558433  88.5998577
 114.7145831 100.7637908  89.5412301 114.0676442 101.5206492  89.3717175
 115.2409017 100.5793257  90.9260920 116.3110607 100.7863374  90.9238331
 114.5576708 101.5155657  91.9543698 113.4775172 101.3959771  91.8703108
 114.8779256 101.2262924  92.9552983 114.9318754 102.9872576  91.7015424
 115.9895233 102.9920804  91.4379927 114.3425070 103.3086106  90.8427763
 114.6979975 103.9273217  92.8486195 113.6281785 103.9266716  93.0573917
 115.2359319 103.5307256  93.7096872 115.1287003 105.3015008  92.6211731
 115.3442992 105.5405686  91.6638523 115.1529902 106.2548192  93.5267492
 114.6691743 106.0895254  94.7295950 114.2586392 105.2036841  94.9881409
 114.7080942 106.8484067  95.3949402 115.7940100 107.2851083  93.1409474
 116.2144620 107.3000104  92.2227436 115.8789567 108.0825125  93.7549745
 115.0877680  99.1246674  91.3486088 116.0771474  98.4641581  91.7726535
 113.8291416  98.6236073  91.2808947 113.1327325  99.2335081  90.8769954
 113.3986910  97.3376222  91.8046176 114.1463492  96.5510595  91.7025122
 113.1483507  97.5938159  93.3244121 112.3951679  98.3727809  93.4428569
 112.7976567  96.6754466  93.7952752 114.0772216  97.9123177  93.7975449
 112.1790707  96.8375363  91.0269728 111.4426349  97.6130386  90.3967677
 112.0535280  95.5060008  91.1347746 112.6430807  94.9928560  91.7744694
 111.1449580  94.7422239  90.2523646 110.1879638  95.2527954  90.1447633
 111.7902418  94.6308709  88.8869067 111.0526107  94.5061318  88.0941648
 112.2952999  95.5890807  88.7650449 112.8719551  93.5245094  88.6691327
 114.2368443  93.6437730  88.9846808 114.7661175  92.4347480  88.5812512
 115.8170625  92.2851268  88.8286920 113.8874445  91.6393991  87.9456476
 114.0221601  90.7485732  87.4891601 112.6707641  92.3153763  88.0376349
 111.7638248  91.8620510  87.6375619 110.8290640  93.4320646  90.8981260
 111.6262791  92.8220054  91.5952671 109.6773106  92.9774873  90.5501451
 109.0412963  93.6044564  90.0784513 109.2343361  91.5879153  90.8030563
 109.9067107  90.9117823  90.2749885 109.2962136  91.3975233  91.8745140
 107.8075424  91.3326986  90.3359906 107.0053917  92.2728973  90.3247827
 107.4456869  90.0442252  90.0804249 108.1399695  89.3308974  89.9094437
 106.0174839  89.6634669  90.0132133 105.4047491  90.3427016  89.4205114
 106.0923803  88.3023817  89.2843694 106.7540303  88.2051260  88.4236372
 106.4848463  87.7118703  90.1122382 104.7198458  87.7597544  88.9070651
 103.7566221  87.8497267  89.6415847 104.4875968  87.4112387  87.6712956
 103.5800482  87.0506384  87.4135695 105.2164588  87.5037010  86.9782503
 105.4321105  89.5974511  91.4925134 106.1410356  89.2633225  92.4864511
 104.1481975  89.8710455  91.6807544 103.6642382  90.1626389  90.8435830
 103.4222503  89.9017025  92.9452095 103.9256496  89.2932448  93.6965200
 103.3555826  91.3755486  93.4591969 102.8019442  91.3730696  94.3981206
 104.7263976  91.9933312  93.6813765 105.2804944  91.9965824  92.7427247
 104.6107659  93.0168366  94.0379806 105.2724050  91.4102422  94.4229860
 102.5989911  92.3291322  92.4578870 101.5773179  91.9751792  92.3200349
 102.5808920  93.3410794  92.8625288 103.1148038  92.3315165  91.4976618
 102.0292358  89.2138333  92.7330335 101.0553810  89.3640877  93.5455214
 101.8890446  88.2653427  91.8514905 102.5810435  88.2041176  91.1183545
 100.7216370  87.3440665  91.7984268  99.8036984  87.8684870  91.5329628
 101.0298964  86.3226714  90.7123304 100.0838950  85.8229852  90.5037774
 101.3327951  86.9041020  89.8415314 102.1211916  85.2564835  91.0298015
 102.9810775  85.6481293  91.5732264 101.5334413  84.6197257  91.6910059
 102.6182770  84.4248241  89.8778033 102.0198296  84.3282991  88.7980512
 103.8715671  83.8945211  89.8918291 104.1901781  83.3386967  89.1110297
 104.4774405  84.0591711  90.6829732 100.2727064  86.6251432  93.1095837
 101.1380288  86.5251506  94.0225200  99.1116412  85.9717848  93.2326785
  98.3967358  86.2303833  92.5677452  98.7701578  84.9560349  94.2877005
  99.6553855  84.7794362  94.8986702  97.6070215  85.4127228  95.2171370
  96.8909845  85.8653069  94.5311648  97.1182482  84.6164005  95.7784493
  98.1279504  86.4812632  96.1921511  99.1612673  86.2739801  96.9223291
  97.4962003  87.5553318  96.4200865  98.3934357  83.5559561  93.6227729
  97.9624209  83.4975802  92.4658133  98.4525124  82.5009940  94.4586694
  98.7623793  82.6955969  95.4000575  98.2128278  81.1196757  94.0851415
  98.9585986  80.8223170  93.3479149  98.2956337  80.1604472  95.2812518
  97.5888336  80.5251047  96.0266092  97.9732846  79.1826307  94.9233887
  99.7423492  80.0349293  95.9381419 100.0186857  81.0271893  96.2947355
  99.6503907  79.3570274  96.7867259 100.8365710  79.5095090  94.9736104
 101.6253639  79.0647070  95.5802865 100.3832914  78.7409191  94.3475858
 101.4166735  80.5073745  94.1269921 100.9219078  80.7231851  93.2733340
 102.5645802  81.1805939  94.3986458 103.3189476  81.0534919  95.4408223
 103.0701937  80.3926028  96.1629353 104.1534788  81.6156852  95.5279779
 103.0014027  82.0789336  93.5007299 102.4769631  82.2360888  92.6519865
 103.8523271  82.5932030  93.6783626  96.8749082  80.9015773  93.3405173
  96.7226172  79.9024421  92.6118099  95.8987228  81.7838164  93.5710586
  96.0744391  82.5414953  94.2153765  94.5711432  81.6374972  93.0358904
  94.5953170  81.6137300  91.9464181  93.7905907  80.4638217  93.5434501
  94.4214022  79.5762736  93.4940989  93.3404786  80.6879812  94.9839728
  92.7092004  81.5751569  95.0340487  92.7760882  79.8212101  95.3278799
  94.2141303  80.8279447  95.6205591  92.4904031  79.8874980  92.7543297
  92.1475191  79.0021015  93.2896842  91.7176190  80.6553457  92.7905803
  92.7737772  79.5274654  91.3176691  93.5461897  78.7592814  91.2806276
  91.8639766  79.1499761  90.8509100  93.1162920  80.4125258  90.7815240
  93.8457090  82.9683814  93.2836755  94.3478168  83.8034765  94.0582425
  92.7602733  83.2339832  92.5376366  92.4333770  82.5410268  91.8795715
  92.0154489  84.5126960  92.6404764  91.4112579  84.4830396  93.5472139
  92.7397854  85.3239302  92.7135171  91.1219481  84.7624927  91.4686005
  91.5429657  84.4520791  90.3779417  90.0003894  85.4217699  91.6191880
  89.7278359  85.6786557  92.5571771  89.0765870  85.7737807  90.4871126
  89.0842565  85.0258009  89.6942907  87.6134511  85.8090100  91.1446065
  87.5540486  84.9917156  91.8633557  87.5083720  86.7599014  91.6669703
  86.5221753  85.6698453  90.1454272  86.5220227  86.5964623  89.5714221
  86.8126795  84.8422364  89.4983007  85.0830925  85.4076372  90.7156146
  84.4366190  85.0942687  89.8958761  85.1429752  84.6097674  91.4558289
  84.4767223  86.6346953  91.3712917  84.3669597  86.6172160  92.3751572
  84.0488785  87.7354810  90.6888588  83.9118292  87.7797303  89.4296870
  84.1252282  86.9647336  88.8726041  83.5898760  88.6297767  88.9893839
  83.7982304  88.7678650  91.2923360  83.9089508  88.8023015  92.2956581
  83.4815662  89.5816745  90.7848554  89.4586722  87.1219412  89.8211365
  89.8562837  87.9921553  90.5698731  89.2882716  87.3637596  88.5390267
  88.8919111  86.3707003  87.6005548  88.0289746  85.8539804  88.0206042
  89.7208843  85.6700987  87.5002554  88.5611648  87.0971146  86.2593684
  87.4806246  87.1414884  86.1231229  89.0097014  86.5536909  85.4277393
  89.1641028  88.4919325  86.3865008  88.5256783  89.2751719  85.9777841
  90.1402763  88.5304369  85.9030733  89.3264789  88.6904569  87.9456066
  90.3088711  89.1035975  88.1743396  88.2496898  89.6499553  88.4260076
  87.0722229  89.2710495  88.1798631  88.4465412  90.8652735  88.8624903
  89.4008857  91.1618035  88.7162171  87.4922729  91.8362986  89.4164426
  86.9575770  91.4052695  90.2628547  88.2581962  93.0736353  89.8994379
  88.7363973  93.5406561  89.0384417  87.5449057  93.7700137  90.3403162
  89.2478054  92.7335521  90.8650554  89.7074454  93.5282590  91.1457185
  86.5989995  92.3119068  88.3042836  87.0993148  92.8173425  87.3068282
  85.2726025  92.3805608  88.4216828  84.8327306  91.7004666  89.0250765
  84.4114287  93.2420350  87.5979802  84.3958330  92.8390806  86.5853185
  82.9481976  93.3411361  88.1160668  83.0133161  93.5106995  89.1908259
  82.5107822  94.2167766  87.6364612  82.0465421  92.0884860  87.8385545
  80.9858956  92.2678524  88.0145016  82.2253008  91.9911494  86.7677277
  82.4760458  90.7788740  88.5561702  82.8837153  89.8242606  87.8077895
  82.5820675  90.7745824  89.8023162  84.9589666  94.6852443  87.2750436
  84.8181330  95.0031117  86.0905368  85.6023344  95.4288458  88.2152956
  85.3811467  95.2235393  89.1791548  86.2536024  96.7198199  87.9050670
  85.9393945  97.0091998  86.9022550  85.8566682  97.8373014  88.8865823
  86.0848380  98.7931340  88.4149651  84.3717881  97.7948557  89.2617080
  84.1429465  96.8394340  89.7338314  84.1485197  98.6051876  89.9556911
  83.7660023  97.9097034  88.3628564  86.5480069  97.7099771  90.0692307
  86.2888489  98.4135768  90.6687179  87.7391248  96.5609382  87.4960463
  88.4975156  97.5245276  87.5510723  88.2838806  95.4009760  87.1964152
  87.6023963  94.6578749  87.1374297  89.6971136  95.0728795  86.9491926
  89.7122678  93.9918461  86.8104977  89.9362348  95.5631304  86.0054901
  90.7626961  95.4604194  88.0020895  90.5207508  95.6692057  89.2169660
  92.0435465  95.4487912  87.6200462  92.2149896  95.2729623  86.6403570
  93.2271170  95.5892224  88.5369206  93.1672411  95.1233822  89.5205399
  94.4991285  95.0604387  87.7845247  94.4813411  95.5103471  86.7918685
  95.8686831  95.3794849  88.4781021  95.8874024  94.9294791  89.4706972
  96.6833363  94.9718758  87.8795240  95.9887359  96.4592056  88.5669256
  94.3816115  93.5271433  87.3968535  94.5564455  92.9445263  88.3013375
  93.3648622  93.3536504  87.0444039  95.3851660  93.0958351  86.3050885
  96.4022175  93.2686097  86.6570189  95.2519484  92.0363181  86.0865114
  95.2106355  93.6777359  85.4000856  93.3818123  97.0232338  89.0074499
  93.0762079  97.9311889  88.2609237  93.7525145  97.2984558  90.2467875
  93.8834612  96.4902787  90.8382282  93.9838265  98.6372114  90.8284483
  94.1394546  99.5361570  90.2319789  92.8263602  98.8777226  91.8334395
  92.6281940  97.9224870  92.3196034  93.1115882  99.9470670  92.9019120
  93.3094056 100.9027542  92.4164938  92.2467976 100.0455418  93.5580679
  93.9809500  99.6516757  93.4893244  91.4211034  98.9782879  91.2387791
  91.3860464  99.9125590  90.6784139  91.3126639  98.1389357  90.5518815
  90.2821709  98.9527175  92.2577374  90.3896808  99.7921013  92.9447427
  89.3271484  99.0293107  91.7379636  90.3162999  98.0184783  92.8182123
  95.3624925  98.5819506  91.5178686  95.6393748  97.6013037  92.2312744
  96.1896354  99.6347006  91.3013112  96.0885584 100.2130891  90.4795147
  97.2492247  99.9606175  92.2508462  97.0661121  99.4392482  93.1903902
  98.2099380  99.6464925  91.8428574  97.2895516 101.4567840  92.5151799
  97.1475955 102.3398069  91.6080592  97.4946129 101.7481011  93.7683029
  97.7300809 100.9038957  94.2702705  97.3230800 102.9947667  94.5381777
  97.4803119 103.9327307  94.0056359  95.9552103 103.0507166  95.3015441
  96.0207361 103.8046789  96.0859851  94.8079878 103.4085356  94.3415347
  94.7415378 102.6547250  93.5570256  93.8686254 103.4415809  94.8934469
  94.9996483 104.3832341  93.8928385  95.6879766 101.8863811  96.1896701
  95.1500183 101.1507626  95.5917009  96.6577347 101.4805962  96.4777799
  94.8564038 102.2210929  97.4800463  93.8862656 102.6265210  97.1927144
  94.7112448 101.3129388  98.0650969  95.3939815 102.9563569  98.0787925
  98.5185502 103.2020910  95.4442023  99.1758238 102.1539926  95.8072357
  98.9304715 104.4446755  95.6689032  98.4646096 105.2332496  95.2432003
 100.1386281 104.7054891  96.5141006 100.4248096 103.8850183  97.1721485
 101.3571626 105.0826288  95.5830488 101.1836792 106.0106405  95.0382569
 102.5411971 105.2732018  96.5626575 102.7155928 104.3454015  97.1075183
 103.4376897 105.5390146  96.0025278 102.3049389 106.0695236  97.2684570
 101.5497790 104.0446066  94.4570120 101.5106033 103.0751513  94.9537235
 100.6776038 104.1578803  93.8131338 102.8096161 104.1323461  93.6202132
 103.6822651 104.0186877  94.2633813 102.8050448 103.3401525  92.8715427
 102.8492667 105.1014184  93.1227931  99.8652049 105.8186649  97.5365122
  99.5974366 107.0197089  97.1661035 100.0706448 105.4890823  98.8166996
 100.3434618 104.5266937  98.9562645  99.8727664 106.3113094  99.9691144
  98.8212622 106.4977101 100.1875015 100.4828845 105.4594462 101.1344259
  99.8317193 104.6222182 101.3856880 101.4489464 105.0803838 100.8010552
 100.6843201 106.3606369 102.3978862  99.7937210 107.1490460 102.7963438
 101.7176832 106.2476897 103.0007781 100.5267361 107.7103088  99.7394663
 101.6910854 107.7189890  99.3634285  99.9381795 108.8685054 100.1203585
  98.5097467 109.0867941 100.5119842  98.4111161 108.8471928 101.5707398
  97.8926458 108.4050830  99.9267017  98.2050781 110.5474514 100.2124720
  97.3843561 110.9525599 100.8044193  98.0234041 110.7464643  99.1563045
  99.5360693 111.1198170 100.6487574  99.7109517 111.2214647 101.7198237
  99.6364061 112.0942218 100.1706701 100.5560983 110.1254223 100.0408200
 100.6650949 110.2945059  98.9695457 101.9028855 110.3751552 100.7377617
 102.6394393 111.1583777 100.2562712 102.2191617 109.6883130 101.8552504
 101.4312688 109.2381842 102.2987685 103.4794749 109.6552374 102.5212305
 103.9911443 110.6011133 102.3434314 103.3508172 109.4463113 104.0256986
 102.9857655 108.4288646 104.1658367 104.3570944 109.5304789 104.4360910
 102.4272290 110.4197973 104.7440487 101.4909303 110.2473384 104.2132912
 102.3134603 110.1223615 105.7864919 102.7815922 111.8851214 104.6751799
 103.7804657 112.3273454 104.0922231 102.0840840 112.6490102 105.3294454
 104.5032851 108.6406073 101.9223613 105.6197286 108.4982044 102.4098841
 104.1949268 107.8926475 100.9045935 103.2586642 107.9790625 100.5357521
 105.0655538 106.8281480 100.3636290 104.4750502 106.1764251  99.7196866
 106.2082623 107.3934740  99.5590341 106.9289987 107.9415861 100.1658383
 106.7296713 106.6402338  98.9683888 105.5457644 108.5762759  98.3838784
 106.7147017 108.8995286  97.8379923 105.5615868 105.8400789 101.4049021
 106.6292658 105.2152705 101.3510507 104.7448079 105.4446370 102.4038325
 103.9791730 106.0638211 102.6285846 104.9683422 104.2599906 103.2683944
 106.0281593 104.2137953 103.5188996 104.1616037 104.2929655 104.5644314
 103.1333495 104.1451770 104.2343541 104.5001680 103.4084033 105.1038979
 104.2305932 105.5158546 105.4921563 105.1580305 105.4612771 106.0622283
 104.2365466 106.4141208 104.8747550 103.0634088 105.5662490 106.4383329
 102.6782406 104.5646732 106.6296190 103.3511056 106.0306023 107.3815752
 101.9796661 106.3849001 105.8121379 101.7353144 106.0707260 104.8838673
 101.2951605 107.4395519 106.3441667 101.4595868 108.0286933 107.4926642
 102.1789979 107.7060218 108.1238781 100.8670296 108.8058847 107.7475154
 100.3515369 107.9716246 105.5962448 100.1670861 107.5948732 104.6774759
  99.8163813 108.7541355 105.9446466 104.7374195 102.9961933 102.4984197
 105.2438852 101.9749709 102.9317076 103.8935284 103.0341692 101.4381586
 103.4164938 103.8883076 101.1871906 103.5009418 101.7579197 100.7271051
 104.3990951 101.2855295 100.3292770 102.7867375 100.7509659 101.6708939
 102.4021161  99.9470972 101.0432310 103.5469336 100.3539280 102.3436218
 101.6509659 101.3443871 102.4851341 102.0655843 102.1153840 103.1345617
 100.9383596 101.7960156 101.7949704 100.7689144 100.0667500 103.5319516
 102.2652435  99.4990460 104.4299701 102.7035470 100.3365877 104.9726605
 101.9907749  98.7139690 105.1345422 102.9914360  99.1089064 103.7168524
 102.6759912 102.0286413  99.3864216 101.8502244 102.8845673  99.2964775
 102.9575297 101.2120421  98.3549295 103.8939167 100.8335242  98.3532236
 102.0460596 100.8312259  97.2561942 101.4830568 101.6657751  96.8382771
 102.8631179 100.1510853  96.1378479 103.3422636  99.2392326  96.4942808
 101.8213128  99.7906467  95.0088054 101.3420583 100.7021105  94.6515247
 102.3360665  99.3029351  94.1809969 101.0651531  99.1175655  95.4128890
 104.0494570 100.9568291  95.6119170 103.6469080 101.7866965  95.0310769
 104.5869178 101.3461872  96.4765762 104.9995815 100.1492848  94.7479536
 104.4629092  99.7599584  93.8827903 105.8165732 100.7873820  94.4111220
 105.4029174  99.3194472  95.3282894 100.9995674  99.8503986  97.8550538
 101.4555533  98.8924117  98.5340876  99.7199704 100.0831658  97.7277437
  99.5016505 101.0330718  97.4629528  98.6203517  99.1511152  97.9206669
  99.0272629  98.2482084  98.3759489  97.9097549  99.6141090  98.6053480
  97.9060290  98.7797494  96.6520828  97.8551923  99.5609781  95.6688293
  97.4474425  97.5552099  96.4628464  97.3351612  97.0847575  97.3495069
  97.0308757  96.8345444  95.2198367  96.8103575  97.5226486  94.4037586
  98.2485126  95.9458001  94.8083760  98.3893268  95.1534671  95.5435488
  97.7589717  95.5375281  93.9242020  99.5949203  96.5185111  94.4200960
 100.0309786  97.0523274  95.2644858 100.5224279  95.3524813  94.0142655
 100.0872297  94.8184382  93.1695766 101.4986618  95.7458175  93.7307962
 100.6370143  94.6689613  94.8555566  99.5830018  97.2751977  93.1125462
  98.8851244  98.1096577  93.1814162 100.5829672  97.6548815  92.9027588
  99.2723020  96.6077724  92.3087378  95.8215871  95.8489288  95.4217777
  95.8416432  95.0906852  96.3656072  94.8415322  95.9907211  94.5953702
  94.7574010  96.8482672  94.0684584  93.8302130  94.9252827  94.3729912
  93.9399616  94.1752569  95.1562637  92.4073078  95.4435002  94.3951129
  92.2983666  96.0110121  95.3193214  92.3089059  96.1157886  93.5427952
  91.3007669  94.3507103  94.3240968  91.5289167  93.7373236  93.4524287
  91.4029273  93.7495383  95.2275664  89.8402181  94.8821660  94.2167785
  89.1354637  94.1741004  94.6527410  89.7396578  95.8469213  94.7140051
  89.5275363  95.0457673  92.8333517  90.0728417  94.4739798  92.2042249
  88.6372729  95.9055652  92.3097174  87.7161831  96.5023028  92.9966284
  87.6387445  96.3297772  93.9887666  87.0794450  97.1375128  92.5370934
  88.6126585  96.1514874  91.0598960  89.2717199  95.6951820  90.4454666
  87.9342037  96.8015721  90.6895076  93.9856173  94.2397412  93.0232367
  93.7392035  94.8574609  91.9626629  94.5980870  93.1029013  92.9843913
  94.8437551  92.7888558  93.9123579  94.9865731  92.2420669  91.8143372
  95.1355616  92.8278966  90.9073062  96.3564412  91.5681943  92.2096979
  96.2156683  90.9710802  93.1106623  96.6070455  90.9128171  91.3755647
  97.4850263  92.5591377  92.4309916  97.3572227  93.1136361  93.3606682
  98.7991059  91.6735519  92.5199895  98.9278403  91.1190728  91.5904309
  99.6627299  92.3190367  92.6800016  98.7105059  90.9734830  93.3507446
  97.6940097  93.5868253  91.2644338  96.7844296  94.1716208  91.1274024
  98.5203937  94.2535990  91.5106120  97.9226268  93.0503746  90.3435355
  93.9353857  91.1749137  91.4975676  93.7251902  90.7490168  90.3231968
  93.2295517  90.5783869  92.4816623  93.5659670  90.7942814  93.4091932
  92.0216895  89.7184528  92.3515428  91.7284676  89.5563447  91.3143152
  92.4428750  88.3879192  92.9504020  92.5689310  88.5684950  94.0179232
  91.6329066  87.6749894  92.7961864  93.7359869  87.8199273  92.3750894
  93.7259486  87.1988730  91.1305923  92.8040544  87.2125504  90.5491944
  94.8197566  86.5910936  90.6413489  94.7394122  86.0265749  89.7123897
  96.0171778  86.6519677  91.3046729  97.1369346  86.0716752  90.8543670
  97.0118149  85.6108734  90.0215366  96.1162705  87.3952531  92.5449424
  97.0789030  87.5655208  93.0270709  94.9095978  87.9135092  93.1409574
  94.9389557  88.3506453  94.1390306  90.7915480  90.2163523  93.1469162
  90.9825273  91.0191051  94.0961574  89.6062934  89.8327001  92.7960539
  89.4964401  89.2397775  91.9858228  88.4013451  90.2423012  93.5270248
  88.2356435  91.3137534  93.4146306  87.1794419  89.4927185  92.9600033
  87.1416012  89.7956206  91.9136201  87.3153913  88.4129204  93.0204497
  85.8390609  89.8904136  93.6672841  84.9803331  88.9826985  93.8320411
  85.5956807  91.0760898  93.9784692  88.4347298  89.9711688  95.0795201
  88.8285349  88.9216785  95.6045549  88.1170006  91.0240573  95.8619266
  87.9727209  91.8350636  95.2775026  87.9625087  91.1708696  97.2731220
  87.3414889  92.0587854  97.3916085  87.3991945  90.2902866  97.5819103
  89.1894174  91.3056917  98.1540056  88.9781387  91.2090233  99.3790332
  90.3748931  91.3706443  97.5129545  90.4277275  91.5863252  96.5276679
  91.5917078  91.0949083  98.2131363  91.4136396  90.9019849  99.2710453
  92.1782187  89.8451883  97.5845341  92.0622354  90.0471240  96.5197012
  93.2385457  89.7743467  97.8269966  91.4765952  88.5055119  97.9363250
  90.4118975  88.6363539  97.7429342  92.0037465  87.2922031  97.1259051
  93.0683553  87.1604380  97.3191531  91.4663947  86.3927487  97.4264637
  91.8473931  87.4697408  96.0618871  91.4343407  88.0069373  99.3675860
  90.9200393  88.7372680  99.9922544  90.9013394  87.0569336  99.4063637
  92.4512234  87.8676753  99.7345391  92.6142594  92.2687740  98.1543777
  92.7516084  92.8439098  97.0740888  93.2475588  92.7118631  99.1978573
  93.1206994  92.2292892 100.0759966  94.0599465  93.9084426  99.1841234
  94.1690125  94.2357855  98.1501745  93.4408255  95.1089978 100.0370745
  92.4502457  95.4029681  99.6900407  93.3711137  94.7344012 101.0583079
  94.2547408  96.3464459 100.0939410  94.5401451  97.1078563  98.9051972
  94.1447132  96.7633631  97.9496565  95.3108972  98.2718211  98.9635241
  95.6048889  98.7707845  98.0401038  95.7215123  98.8189488 100.2496406
  96.2699934  99.7567061 100.3384070  95.3733559  98.0650421 101.4423673
  95.6543330  98.4515819 102.4220300  94.6761795  96.8399904 101.3394535
  94.4568907  96.2606958 102.2363538  95.5087496  93.5499351  99.6939576
  95.7052158  93.2397503 100.8660145  96.5090205  93.7899180  98.8740501
  96.3102745  93.9117431  97.8913202  97.9045662  93.7424408  99.2967879
  97.9968097  93.4654401 100.3469598  98.6135867  92.6281852  98.4136631
  99.3768418  92.2509935  99.0943004  97.8228239  91.8854952  98.3078057
  99.2355857  92.9002210  97.0582474  98.4333358  93.1063869  96.3497338
  99.8760652  93.7777693  97.1465487 100.0633054  91.7129096  96.5599697
 100.4895127  91.9830986  95.5938205 100.8671308  91.5405241  97.2756843
  99.2208174  90.4217950  96.4093774  98.5728288  90.3422445  97.2822366
  98.6101758  90.5243128  95.5123233 100.0780251  89.1694370  96.2986374
 100.6436223  89.0740236  97.1299591  99.4811529  88.3603260  96.2028096
 100.6782366  89.2427612  95.4896449  98.6079242  95.0648792  99.2772165
  98.1405408  95.9764906  98.5928530  99.7358374  95.1257035 100.0481492
  99.8056219  94.4553530 100.8003857 100.7548195  96.2144725  99.9734592
 100.7109471  96.8332821  99.0772176 100.5291217  97.1299834 101.2258750
 101.3730681  97.8198017 101.2279883  99.2095669  97.9304582 101.3131471
  98.3651236  97.2412457 101.3115498  99.1988844  98.5152158 102.2329540
  99.1329212  98.6001485 100.4565597 100.6518318  96.3684478 102.5373896
 101.6493080  95.9358750 102.6150033 100.4863765  97.0507510 103.3711681
  99.9078440  95.5723866 102.5668796 102.1789880  95.8165907  99.7713968
 102.6727536  94.9129249 100.4178282 102.9148384  96.5368338  98.9500636
 102.4088469  97.2286821  98.4158184 104.3649337  96.4925638  98.8244703
 104.7958177  95.5651369  99.2017203 104.7243327  96.6548385  97.2613921
 104.3112010  97.5650710  96.8267666 106.2758163  96.7441299  97.2719120
 106.6897147  95.8339907  97.7060035 106.6406641  96.8576794  96.2510823
 106.5867939  97.6034342  97.8660400 104.1724555  95.5020382  96.3948882
 104.6977422  94.5817153  96.6501932 103.1085612  95.3810920  96.5988500
 104.3806703  95.8179055  94.8680538 105.4444336  95.9385335  94.6632211
 103.9868097  94.9964628  94.2695516 103.8552541  96.7379120  94.6118784
 104.8473276  97.7556883  99.5696908 104.7458390  98.8828564  99.0530960
 105.3227242  97.5894068 100.7979056 105.1498780  96.3506905 101.6403754
 105.2969297  95.4805844 101.0005384 104.1329511  96.3448268 102.0327072
 106.2056530  96.4510000 102.7514830 107.1120095  95.9031962 102.4935528
 105.8200619  96.0866191 103.7036634 106.4646694  97.9825387 102.8073805
 107.5317624  98.0801441 103.0070922 105.9003950  98.4563538 103.6106197
 106.1199211  98.6493074 101.4563786 105.4903440  99.5179971 101.6490162
 107.2807699  99.0531615 100.5274987 107.8987394  98.2334796  99.8595321
 107.4958685 100.3896184 100.5341589 106.9411589 100.9894371 101.1279721
 108.4323978 101.0222738  99.5743000 108.5602240 100.4313136  98.6673680
 107.7642099 102.3880541  99.1922644 107.3408543 102.7758511 100.1188078
 108.5601572 103.0504147  98.8519022 106.6739361 102.3142263  98.1269558
 105.9820089 101.5033209  98.3544857 105.9228637 103.6338705  98.1230360
 106.6140919 104.4452588  97.8951076 105.1375472 103.6033218  97.3677576
 105.4770253 103.8016903  99.1034263 107.3469606 102.0357739  96.7247524
 107.8893903 101.0910889  96.7626951 106.5764037 101.9810674  95.9557592
 108.0400249 102.8428053  96.4871371 109.9177030 101.1173337 100.1356430
 110.5916661 102.0741562  99.6733991 110.3559252 100.3190422 101.0675024
 109.6795386  99.7116855 101.5076368 111.7618999 100.3004133 101.5758499
 111.9738115 101.1985266 102.1560095 111.9419622  99.0597234 102.4967973
 112.0711604  98.2413769 101.7884781 112.8498006  99.1735204 103.0892327
 110.8006143  98.7602860 103.3945986 110.0728590  99.6699972 103.7982230
 110.6756699  97.5589165 103.7755202 112.8582272 100.3072175 100.4987055
 112.8162235  99.4772707  99.5877757 113.7608920 101.2746380 100.6385332
 113.7440043 102.0347842 101.3033579 114.8052615 101.2697025  99.6200450
 114.3522343 101.2955172  98.6289854 115.6867233 102.4510192  99.7685233
 116.2656227 102.3475494 100.6862753 116.3638999 102.4967698  98.9156231
 114.8584902 103.7348879  99.8307500 114.2938990 103.8813838  98.9099479
 114.1728202 103.7175864 100.6778978 115.8576787 104.8848947 100.0057261
 115.3812863 105.8201519 100.2997384 116.6577907 104.6490352 100.7073603
 116.4337106 105.0517824  98.6813086 116.4246759 104.2400211  98.0804247
 116.9156976 106.1272445  98.2325862 116.7769284 107.2858779  98.7444981
 116.2371480 107.3994496  99.5905705 117.2073817 108.0851003  98.3017193
 117.6426106 106.1104255  97.1711892 117.8244758 105.2351426  96.7011838
 118.0279470 106.9725835  96.8130019 115.7153241 100.0550390  99.4540466
 116.3095176  99.9400652  98.3848903 115.7035458  99.0571582 100.3708831
 115.3615260  99.3967187 101.2584756 116.2405365  97.6725652 100.3055739
 116.9660215  97.5694352  99.4986445 116.9414106  97.3826207 101.6324920
 117.5208870  96.4686160 101.5024851 117.6126937  98.2063565 101.8752640
 115.9200349  97.1884044 102.7893921 114.6584897  97.3292435 102.6805579
 116.3847878  96.9018581 103.8766349 115.1634497  96.6201788  99.8725453
 115.4854196  95.4623324 100.0052185 113.9290032  97.0176744  99.4532935
 113.5902182  97.9316611  99.7177787 112.9728920  96.0596967  98.8731530
 113.2449932  95.0353064  99.1274849 111.6579176  96.3413824  99.4242215
 111.8593905  96.3195070 100.4952160 111.2257394  97.3054144  99.1559597
 110.6735223  95.2736153  99.1039258 110.9554674  94.2516968  98.4510930
 109.4210531  95.4527166  99.3534805 108.7564021  94.7245499  99.1341359
 109.1107099  96.3203062  99.7670941 113.1990207  96.0112979  97.3755635
 112.4468023  96.5585922  96.5791507 114.2297729  95.3034980  96.9736004
 114.7991477  94.9881137  97.7458985 114.7091700  95.0666793  95.6226329
 114.7418981  96.0097490  95.0770621 116.1174999  94.4594046  95.6365721
 116.0327964  93.4193478  95.9515427 116.5119603  94.5000402  94.6212643
 117.0868009  95.2202632  96.6038185 116.9692629  96.2794389  96.3748373
 116.7205662  95.0241062  97.6115371 118.5852789  94.8362968  96.5154067
 118.6008958  93.7471697  96.5561160 118.9039914  95.1670236  95.5269020
 119.5555124  95.4104633  97.5932252 119.5728049  96.4970626  97.5089434
 119.1912437  95.1289442  98.5812306 120.9075430  94.8856203  97.4046887
 121.2454340  95.1467391  96.4894039 121.5190216  95.2688964  98.1112957
 120.8918116  93.8787976  97.4831728 113.7174231  94.2861827  94.8348594
 113.6529420  94.4597256  93.6107454 112.9480918  93.3594373  95.4592337
 112.9747699  93.3766316  96.4687345 112.1565498  92.2638145  94.7816571
 112.3167834  92.2622490  93.7035003 112.6611051  90.9242736  95.3569720
 112.4041214  90.8860450  96.4155546 112.1572633  90.1128493  94.8317730
 114.1436896  90.7772650  95.1976559 114.4001817  90.7609452  94.1383890
 114.5997645  91.6483919  95.6680100 114.6661990  89.5020888  95.8693028
 115.6765153  89.5042288  96.5689043 113.9766040  88.4694760  95.6864843
 110.6426413  92.4186368  94.9075104 109.9401777  91.4474613  94.7700004
 110.1478057  93.5911887  95.3638433 110.8420767  94.2458384  95.6947827
 108.7077072  93.9292943  95.5575957 108.6290542  94.9104612  96.0258099
 107.9484236  93.9603117  94.2217857 108.0672169  93.0024880  93.7152671
 106.8967253  94.1154358  94.4625497 108.4409724  95.1046358  93.2890091
 109.4465761  94.8753335  92.9364719 107.4665074  95.2426661  92.0495901
 106.4607347  95.4724404  92.4013340 107.8157540  96.0450600  91.3997504
 107.4509481  94.3056958  91.4928631 108.5111289  96.5719386  93.8474637
 109.1905972  96.6050097  94.6991259 108.8742167  97.2411517  93.0674495
 107.5173014  96.8887972  94.1637017 108.0259486  93.0134790  96.6086321
 106.8857084  92.4872459  96.3814563 108.7368143  92.6806944  97.7227548
 109.6233971  93.1347697  97.8897452 108.2492003  91.6594185  98.7349594
 107.8221248  90.7930798  98.2298228 109.4595647  91.1861251  99.5997544
 109.8952012  92.0642995 100.0763358 109.0806843  90.5085218 100.3648710
 110.5409832  90.4646967  98.7626038 110.0622206  89.6725216  98.1869774
 110.9908436  91.1870034  98.0814277 111.6067964  89.8722275  99.6385372
 112.4054912  89.5352123  98.9777753 111.9763836  90.6779429 100.2728301
 111.1564381  88.7387816 100.4894442 112.0016053  88.3757746 101.0742681
 110.3733532  89.0886692 101.1620926 110.6422031  87.6653749  99.6687302
 111.3678007  87.3407275  99.0456637 110.3408118  86.9041395 100.2601555
 109.8587750  88.0014225  99.1270555 107.1953829  92.4622051  99.5719943
 107.4153491  93.6083079  99.9198151 106.0879745  91.7556562  99.7425940
 106.1284871  90.7660541  99.5447411 104.7712746  92.3567060 100.0454295
 104.8544512  93.4109037 100.3097172 103.9574323  92.2389170  98.7570536
 103.8577235  91.1882778  98.4844447 102.9679030  92.6692565  98.9111310
 104.4654567  92.7750952  97.9554780 104.2101304  91.7116924 101.3043038
 104.8619654  90.8820798 101.9051700 102.9420964  92.1127624 101.5485075
 102.5442764  92.8904077 101.0414508 102.1020082  91.4199095 102.5283502
 102.3668589  90.3638323 102.5798698 102.3214185  92.0454032 103.9032108
 102.0906496  93.1067109 103.9952490 101.6296716  91.4690890 104.5175789
 103.6672137  91.8527136 104.4868065 103.9618330  90.6309448 105.1249754
 103.1954955  89.8559072 105.1369479 105.2167164  90.3965023 105.7413084
 105.3684898  89.5401816 106.3984084 106.2740052  91.2884716 105.4940191
 107.2964906  91.0872739 105.8136172 105.9702083  92.4903501 104.7991921
 106.7626767  93.2305734 104.6889046 104.7020323  92.7387723 104.2646997
 104.5273930  93.6352529 103.6697849 100.6416524  91.6342514 102.0709450
 100.2733464  92.7399216 101.5588570  99.7703762  90.6375156 102.2883124
 100.1684717  89.8637975 102.8011278  98.3498303  90.5462638 101.8673715
  98.1750977  91.3120140 101.1115975  97.9532140  89.1971755 101.2923226
  98.1318685  88.3548483 101.9606540  96.8810249  89.3143770 101.1349243
  98.6131618  88.9026570  99.9503677  99.6673250  89.4447059  99.6494890
  98.0911376  87.9308617  99.1895992  98.5083287  87.7144827  98.2956017
  97.2828687  87.4192122  99.5136622  97.5432526  90.8321539 103.1476641
  97.6947456  90.1349298 104.1628166  96.6868001  91.8740564 103.1335166
  96.5911859  92.2926335 102.2193226  95.9732941  92.4787433 104.2464168
  96.1506240  92.1484474 105.2699195  96.1849637  93.9978896 104.1549043
  95.7555197  94.3594465 103.2205837  95.5138596  94.7047775 105.3303028
  95.9431350  94.3440535 106.2650229  95.6745648  95.7797392 105.2482550
  94.4441416  94.4958568 105.3178643  97.6945166  94.4266125 103.8475073
  97.9988109  94.0308786 102.8785386  97.7726777  95.5137474 103.8361915
  98.6036675  93.8632425 104.9345312  98.5263912  92.7760474 104.9461477
  99.6351055  94.1515154 104.7317168  98.3002561  94.2589147 105.9038015
  94.4993555  92.0994974 104.2456503  93.7932402  92.3935524 103.2883761
  94.0537925  91.3004858 105.2638763  94.6283865  91.2653639 106.0937604
  92.8884220  90.4789045 105.2127601  92.8436640  89.9425539 104.2649078
  92.9382717  89.4518845 106.3568011  93.2790227  89.9468229 107.2662097
  91.9390091  89.0469277 106.5167520  93.9143971  88.2959301 105.9994968
  93.5592378  87.8412674 105.0747024  94.8972601  88.7367682 105.8329314
  94.0138422  87.2248678 107.0889799  93.0474567  86.7264118 107.1647404
  94.7720664  86.5023492 106.7870490  94.3650135  87.7483409 108.3819453
  93.5824873  88.0627961 108.9377061  95.6014243  87.9034031 108.8735153
  96.6523045  87.6172247 108.1339501  96.5252565  87.2789267 107.1908100
  97.5806863  87.7372992 108.5131452  95.7610371  88.2711910 110.0757203
  94.9547986  88.4459286 110.6584263  96.6937120  88.3877984 110.4453404
  91.5468521  91.3339991 105.2838763  91.2845056  91.9750441 106.2715917
  90.6188645  91.1218600 104.3440157  90.9981291  90.8032970 103.4638025
  89.1760827  91.4621272 104.4063066  89.0751202  92.3681181 105.0038735
  88.5109980  91.6991107 103.0362693  88.8570770  90.8535794 102.4417902
  87.4270878  91.6500151 103.1403284  88.8947377  92.9958348 102.3433757
  88.8708712  93.7331162 103.1458390  90.2429221  93.1147413 101.5686202
  90.2673333  92.3780314 100.7656497  90.3325569  94.1153805 101.1457873
  91.0725304  92.9340389 102.2521384  87.8214674  93.4193263 101.3675177
  86.8832853  93.5703667 101.9014657  88.1169890  94.3498657 100.8828893
  87.6888675  92.6436485 100.6133027  88.3943032  90.4519629 105.2606120
  88.6657889  89.2765807 105.1935808  87.3752408  90.7947097 106.0564591
  87.1750532  91.7558407 106.2936329  86.5209465  89.7810334 106.5717907
  87.0641405  88.8528212 106.7491647  85.9720637  90.2947401 107.9162159
  86.8202094  90.6220609 108.5175554  85.3254376  91.1468583 107.7067659
  85.1681508  89.2129485 108.6981014  84.9501034  89.6087643 109.6900117
  84.2342247  89.0369923 108.1643218  85.9242536  87.9131918 108.8304275
  87.0726352  88.0358712 109.3280161  85.5377749  86.7725432 108.5069757
  85.2819715  89.4571801 105.6364865  84.7122865  88.3462766 105.6615770
  84.8983774  90.4014525 104.8217865  85.4512580  91.2448831 104.8769879
  83.8121296  90.3655159 103.9024301  83.3852113  89.3644456 103.8416179
  82.7342130  91.3266306 104.4034494  82.4063814  90.9550790 105.3743125
  83.2114278  92.2985122 104.5291959  81.5432182  91.4665824 103.4913974
  80.9161902  92.2890467 103.8356199  81.9441966  91.7038621 102.5059970
  80.7113667  90.1961679 103.4073737  80.2093838  89.6621666 104.4301120
  80.4942399  89.6949024 102.2401813  84.4736517  90.8161276 102.5513269
  85.0360570  91.8710637 102.4715403  84.6684453  89.8421517 101.6309289
  84.1739069  88.9638181 101.6946561  85.6256979  90.0150243 100.5574595
  86.4906324  90.5702814 100.9203327  86.1017637  88.6511635 100.0352659
  85.1981106  88.2866531  99.5467556  86.8779638  88.8139353  99.2875234
  86.5812815  87.6212733 101.0477771  85.7144345  87.2049759 101.5609765
  87.3240914  86.5409316 100.3875741  88.1914026  86.9564246  99.8745091
  87.6554606  85.8185353 101.1335224  86.6777689  86.0444859  99.6637583
  87.3659268  88.1798391 102.1283589  86.7678039  88.9110665 102.6721005
  87.6698071  87.3828918 102.8070584  88.2518559  88.6667640 101.7207649
  84.8619562  90.8399681  99.5106012  84.3290835  90.3452756  98.5148768
  84.8968480  92.1636215  99.7629900  85.3764689  92.4641439 100.5995003
  84.1943493  93.1844004  98.9510442  84.2716268  92.9339221  97.8930328
  82.7156218  93.2412554  99.3326898  82.2280902  92.4697244  99.9286362
  82.7847082  94.1600284  99.9150844  81.7697479  93.5431390  98.1361156
  81.7177611  94.8139096  97.5551944  80.5890090  94.6999570  96.8224281
  80.2900662  95.5999135  96.2850173  80.0295933  93.4923552  96.8841790
  79.2336642  93.1535193  96.3628471  80.7393197  92.7584224  97.8066334
  80.3943938  91.7654346  98.0949087  84.8013070  94.5419404  99.0269497
  84.9618329  95.0701717 100.1479015  85.1768751  95.0105551  97.8492601
  85.1074607  94.3866892  97.0580127  85.8336975  96.3456459  97.6476218
  85.2409468  97.1615935  98.0611134  87.2483134  96.3722620  98.3078054
  87.1009887  96.3237983  99.3867151  88.1676558  95.2228011  97.8643877
  88.3158311  95.2708813  96.7855766  89.1305862  95.3123874  98.3672194
  87.7093531  94.2689258  98.1255049  87.9095176  97.6960323  98.0104873
  87.3018122  98.5053265  98.4152578  88.8979881  97.7201812  98.4692273
  88.0069468  97.8199706  96.9319477  85.8186810  96.6926265  96.1371818
  86.5942607  96.4837407  95.3181087  84.7856469  97.4837335  95.8107050
  84.1937926  97.8270005  96.5536556  84.4809123  97.8841966  94.4446951
  84.5219573  97.1059501  93.6826276  83.0947843  98.5743274  94.4032613
  83.0784364  99.3610347  95.1575323  82.8128081  99.1747871  93.0418780
  82.8285322  98.3885589  92.2870941  81.8320563  99.6503501  93.0500221
  83.5745940  99.9182495  92.8072608  81.9956290  97.5834216  94.9543923
  82.0346433  96.6730683  94.3561988  82.2445712  97.3484941  95.9892528
  80.5727328  98.1804976  94.8903551  80.3228859  98.4152652  93.8556762
  79.8568379  97.4575333  95.2814002  80.5328146  99.0906928  95.4887288
  85.5555561  98.8886479  93.9410688  86.0481351  98.7278662  92.8327958
  86.0087049  99.7480323  94.8523365  85.5988649  99.7548151  95.7754207
  87.0141563 100.7384484  94.5418719  87.7325248 100.2868272  93.8577051
  86.4506304 102.0259688  93.8891792  85.8766781 101.6414091  93.0460945
  85.7861519 102.5641931  94.5651104  87.5044108 102.9494016  93.3910060
  87.3661025 104.1586224  93.2409226  88.5850601 102.4392216  92.9996563
  87.7916174 101.0706064  95.8434150  87.3199035 100.8135780  96.9568220
  89.0011888 101.5997389  95.7464368  89.4011194 101.7609014  94.8331014
  89.8448926 101.9068442  96.9625792  89.2134111 102.3847842  97.7115142
  90.4221450 100.5973114  97.5631851  89.5685236  99.9882367  97.8606037
  91.3586901  99.7567792  96.5813175  92.2128347 100.3650797  96.2838137
  91.7115933  98.8613632  97.0929718  90.7921149  99.4690823  95.6956965
  91.3228733 100.7848638  98.7822149  90.7599090 101.2704450  99.5793247
  91.6753558  99.8128243  99.1271713  92.1771169 101.4053722  98.5114049
  91.0230610 102.9024901  96.7269643  91.6585997 102.9326535  95.6775003
  91.2749166 103.7270693  97.7367999  90.7959115 103.4800853  98.5909968
  92.1459320 104.8747522  97.7494083  92.9494139 104.7224056  97.0287790
  91.3781921 106.1916560  97.3738117  90.5436708 106.2622330  98.0714450
  92.0754489 107.0088978  97.5583349  90.8464705 106.2850108  95.9223186
  90.2712105 105.3679376  95.7952217  90.1684819 107.1381454  95.9467068
  91.7979452 106.4379294  94.7805964  92.5360871 107.2051744  95.0142215
  92.3052661 105.4917289  94.5923688  91.0129750 106.8493126  93.5391796
  90.4998036 107.7896170  93.7406325  91.7077000 106.9854496  92.7103714
  90.0282657 105.8209762  93.1873543  89.3841613 105.6949811  93.9550486
  89.5189237 106.1101083  92.3645096  90.5036119 104.9496962  93.0002283
  92.7806256 105.1753845  99.1078421  92.1396929 104.9453945 100.1191319
  93.9472656 105.8035957  99.1571147  94.4492820 105.9772312  98.2980865
  94.5937918 106.1935790 100.4467708  94.2870620 105.5020212 101.2314770
  96.1426371 106.1558890 100.3293111  96.4019646 106.5608834  99.3511352
  96.6322261 106.7428411 101.1064146  96.7471566 104.7496680 100.3957823
  96.7152732 104.0445587 101.6105141  96.2229795 104.5064291 102.4663310
  97.2900027 102.7923976 101.7358841  97.1993045 102.2604695 102.6829465
  97.9675885 102.2184015 100.6879209  98.4535244 101.2474929 100.7843717
  98.0259583 102.9244756  99.4520576  98.5712821 102.4923769  98.6130029
  97.3919192 104.1602417  99.3104220  97.3995202 104.6694094  98.3466843
  94.1188578 107.5547497 100.8944494  93.7616331 108.3725725 100.0374627
  94.0806683 107.8597247 102.1839803  94.2597991 107.0839411 102.8054070
  93.7576677 109.1980051 102.7890574  93.3048333 109.8323376 102.0270453
  92.7514135 109.0732568 104.0078812  93.2982850 108.2964622 104.5423163
  92.7144063 109.9759050 104.6177638  91.2985860 108.5811515 103.7187901
  91.3593526 107.7421615 103.0256061  90.5651948 108.1408206 104.9900301
  90.5036237 108.9794687 105.6835554  89.5595836 107.8078883 104.7331197
  91.1099234 107.3214212 105.4590243  90.4696149 109.5752260 102.8169521
  90.9704839 109.6992853 101.8568276  89.4698535 109.1722084 102.6552260
  90.3949227 110.5420086 103.3147989  94.9686297 109.9976468 103.2932587
  95.9460272 109.4822374 103.8414141  94.9160566 111.3081288 103.0292471
  94.0631504 111.6563608 102.6152605  96.0080275 112.2747664 103.3104877
  96.9727441 111.8409884 103.0473192  95.7928520 113.5769113 102.4561838
  94.8904802 114.1450535 102.6821012  96.6602981 114.0969947 102.8625710
  95.9443414 113.4415065 100.9345129  94.8877680 113.1668626 100.0431069
  93.8915683 113.0755261 100.4759386  95.0702386 113.0105960  98.6496543
  94.2588337 112.6257777  98.0318852  96.3636837 113.2413630  98.0729010
  96.6377046 113.0561816  96.7437094  95.8759762 112.7570790  96.2418059
  97.3676870 113.8159449  98.9508685  98.3070759 114.2002569  98.5534352
  97.1144721 113.8719963 100.3274052  97.8671458 114.2767751 101.0039675
  96.0182160 112.6692827 104.8006075  95.0254004 112.5440018 105.5058117
  97.0701360 113.3171617 105.3576739  97.8746497 113.5636659 104.7990212
  97.0736751 113.6810833 106.7901245  98.0727468 114.0769214 106.9725171
  96.3437089 114.4863268 106.8727779  96.7615061 112.6183343 107.8394242
  96.2173571 112.9637965 108.8949941  97.1839589 111.3356765 107.6349234
  97.5572458 111.1272988 106.7198634  97.1169677 110.2281413 108.6449290
  96.5743089 110.5585340 109.5306272  96.3860746 109.0268609 108.0438454
  96.8212832 108.6808327 107.1063182  96.2945437 108.1873630 108.7330228
  94.6475952 109.5562277 107.6414996  94.2531662 108.3818751 107.1575368
  98.5286164 109.8453545 109.0439567  99.5216851 109.9780345 108.3124811
  98.6962546 109.4138047 110.2874872  97.8477576 109.3177763 110.8268671
  99.9766848 109.0867429 110.9364857 100.7698761 109.7931598 110.6916962
  99.6625869 109.1971409 112.4696070  99.3494757 110.2199782 112.6790456
  98.8451914 108.5133884 112.6986203 100.8932221 108.8435510 113.3461571
 100.4195532 109.0243122 114.3110737 101.1956358 107.7983981 113.2805558
 102.0953218 109.6884339 113.2463761 102.7168955 109.9891614 112.2675737
 102.7013951 110.0009756 114.3280409 103.5286325 110.5792431 114.2908061
 102.3499868 109.6680875 115.2144940 100.3422073 107.6725197 110.4702991
 101.4856419 107.3100534 110.4305795  99.3023685 106.8538841 109.9650615
  98.3588509 107.2114393 110.0100971  99.5026554 105.4474198 109.5297291
 100.5634676 105.3500730 109.2988608  99.1406826 104.4275700 110.6876946
  98.0795100 104.5068081 110.9237754  99.3649286 103.4120236 110.3613827
  99.7283153 104.6615018 111.5754237  98.7477889 105.1734639 108.1837790
  97.8408407 105.9419735 107.8886180  99.1537654 104.2051794 107.2712817
  99.9915914 103.0484666 107.6581834  99.3883709 102.3451566 108.2322743
 100.8232630 103.3971851 108.2704062 100.4601955 102.4628160 106.3050173
 100.4651915 101.3741768 106.3592286 101.4653262 102.8194979 106.0800911
  99.4559083 102.9662686 105.2643399  98.8606031 102.0571806 105.1790768
  99.7931670 103.2732888 104.2743425  98.6411165 104.0486976 105.8816913
  98.6263665 104.9817644 105.3184265  97.2124589 103.5887090 106.1378592
  96.9117953 102.6593413 106.9125191  96.1928893 104.1965641 105.4965356
  96.5129572 104.7070293 104.6859302  94.7450185 104.1665399 105.7773108
  94.5456669 103.2122896 106.2649218  94.3927935 105.3141227 106.7675443
  94.5783497 106.2763701 106.2903136  92.9209471 105.2154679 107.1571497
  92.7347090 104.2536068 107.6348924  92.6735244 106.0190478 107.8507926
  92.3016079 105.3031669 106.2644972  95.0804184 105.1892213 107.9815190
  94.8370226 105.9131921 108.5630902  94.0083630 104.4389680 104.4355986
  94.2750793 105.4205172 103.6644978  93.1330896 103.5021327 104.1176017
  93.0566787 102.7002876 104.7269499  92.3553229 103.5242076 102.9400302
  92.6060011 104.2869024 102.2027675  92.3293291 102.1390211 102.2585814
  91.5520818 102.1149679 101.4947695  93.6493160 101.8980002 101.6277744
  94.4270744 101.9214460 102.3910848  93.6475028 100.9224887 101.1414877
  93.8451410 102.6726278 100.8863541  91.7988836 100.9854318 103.1758984
  92.5537338 100.7706220 103.9323100  90.8839073 101.3236740 103.6622214
  91.5051853  99.6999810 102.3595195  92.4198610  99.3608534 101.8732473
  91.1389420  98.9204290 103.0275493  90.7500356  99.9139064 101.6031567
  90.9158860 104.0037317 103.1840855  90.4090037 103.8747143 104.3239951
  90.3336938 104.6637487 102.1960228  90.9722688 105.1617811 101.5924625
  88.9105231 104.8586214 102.0011213  88.3460982 104.4403757 102.8345446
  88.6301450 106.3563914 101.9252643  87.5589719 106.5577340 101.9374529
  89.1087737 106.8888609 102.7471467  89.2594136 107.0999298 100.4167363
  88.8521942 108.3360673 100.6906611  88.4793038 103.9936656 100.7872945
  89.2895017 103.7040446  99.9165454  87.2017033 103.6613422 100.6540984
  86.5040946 104.1094132 101.2308772  86.7772409 102.6242785  99.7522174
  87.1006120 102.8576681  98.7377916  87.4081081 101.2438840 100.1768628
  86.8791328 100.6185176  99.4576957  88.4827706 101.1366687 100.0295350
  87.1074446 100.6937719 101.5184929  88.0345342 100.9099537 102.5804512
  88.8688654 101.6032015 102.4736864  87.8516696 100.1939966 103.8054801
  88.5187912 100.3977361 104.6430598  86.8300736  99.2399625 103.9376565
  86.6670993  98.6757397 104.8559113  85.9696729  99.0174715 102.7838570
  85.2207046  98.2301624 102.8692441  86.0728980  99.7725786 101.5851119
  85.3592920  99.6123468 100.7769088  85.2349611 102.5355481  99.7043750
  84.5078495 103.1279547 100.4573293  84.7599866 101.8046687  98.6766423
  85.3965324 101.6599970  97.9059421  83.3832674 101.3668559  98.5242767
  82.8110064 101.7247655  99.3801489  82.6799317 101.8128716  97.2469240
  83.0824993 101.2478412  96.4062224  81.1363356 101.5650537  97.3510170
  80.7329465 102.1301637  98.1912723  80.6527368 101.8898592  96.4297494
  80.9479535 100.5024899  97.5045494  82.9550271 103.2694412  96.9953916
  84.0286792 103.4236485  96.8877192  82.4500663 103.5825823  96.0815771
  82.5860578 103.8595667  97.8342685  83.2422326  99.8876493  98.7196812
  83.9657956  99.1304236  98.0847483  82.2199555  99.3922694  99.4181920
  81.7245328 100.1026451  99.9378286  81.7900886  97.9508304  99.5844142
  82.0182262  97.3636850  98.6948566  82.5951756  97.3588926 100.7967560
  82.6393564  96.3520301 100.3815751  83.6048162  97.7042996 101.0190616
  81.7594213  97.3437357 102.0946400  81.6272506  98.5311663 102.7968627
  82.0535909  99.4363955 102.3645508  80.9666359  98.5881799 104.0316868
  80.6768400  99.5445795 104.4669108  80.6834075  97.3924328 104.7119270
  80.2235934  97.4255652 105.9846297  80.1276446  98.3177939 106.3256890
  80.8756894  96.1409709 104.0585575  80.6126726  95.1919488 104.5257615
  81.4220508  96.1588344 102.7749009  81.6076934  95.2225840 102.2485244
  80.2843253  97.8400197  99.7568058  79.5648392  98.8168068  99.6885643
  79.7763294  96.6138584  99.9764729  80.3788658  95.8153253  99.8372095
  78.3599533  96.3777071 100.1980137  77.9075128  97.2371306 100.6927742
  77.6555230  96.1602501  98.8498103  78.0013404  96.9586528  98.1932566
  78.0098172  95.2010444  98.4723185  76.1243881  96.1590763  98.8889313
  75.8637317  95.2083354  99.3539590  75.7288111  96.9776151  99.4902757
  75.4942569  96.2159213  97.5274581  75.9968920  96.6655751  96.5102038
  74.2417423  95.8392579  97.3508033  73.8297691  95.8824279  96.4296540
  73.7010064  95.5095818  98.1375813  78.1166093  95.2797138 101.2752771
  78.9215260  94.3093398 101.3844023  77.0479267  95.4070040 102.0819064
  76.5776541  96.2929079 102.2007222  76.6547172  94.2826570 102.9556438
  76.9970125  93.3365697 102.5362967  77.3121145  94.4724753 104.3661047
  76.8237508  93.6082426 104.8163291  78.3870031  94.2979421 104.3186429
  77.0248116  95.7577476 105.2448181  77.9723788  96.2327203 105.9176467
  75.8242054  96.1593679 105.4272870  75.1341132  94.2224624 102.8636327
  74.5389596  95.0804357 102.2268793  74.4382875  93.2418902 103.5622068
  75.0141815  92.0703310 104.2128872  75.2155790  92.3437827 105.2486302
  75.9539271  91.8499394 103.7065230  74.0318449  90.9576846 104.0959474
  74.1612535  90.2349995 104.9016017  74.1273205  90.4512571 103.1354700
  72.6939785  91.6736264 104.2016007  72.4113151  91.9610848 105.2143041
  71.8716892  91.1305840 103.7357199  73.0330671  92.9432840 103.3661354
  72.8633456  92.5905484 102.3488496  72.2492270  94.1993137 103.5957397
  71.1794283  94.3558639 103.0602364  72.6241097  95.0872893 104.5753224
  73.3417776  94.8117906 105.2304198  71.9571042  96.3706321 104.7782310
  70.8811793  96.2358820 104.8892582  72.5116399  97.0069176 106.0737155
  72.6127957  96.1732521 106.7686029  73.5011149  97.3726055 105.7992861
  71.7040882  98.1541384 106.7531201  72.2054658  98.5811880 107.6216534
  71.6439481  98.9036407 105.9639867  70.2714550  97.7503598 107.1598657
  69.8745939  96.5741148 107.2199476  69.5391084  98.7455587 107.5756465
  68.5854114  98.5806608 107.8643889  69.9288743  99.6767926 107.6070713
  71.9967136  97.4258957 103.6429301  71.2014482  98.3078383 103.6614010
  73.0246995  97.4463938 102.8235568  73.6861131  96.6959249 102.9629411
  73.2894357  98.4065933 101.7790235  72.7382362  98.0705279 100.9007649
  72.8821275  99.3580959 102.1208455  74.7816877  98.6044309 101.3942532
  75.5708729  97.9950657 102.0293537  75.0301819  99.3579715 100.3003815
  74.1525110  99.5651564  99.8455545  76.2774817  99.8243066  99.6610242
  77.0292528  99.0530853  99.8288253  76.1931690 100.1180810  98.1123597
  75.6572706  99.2918148  97.6452446  75.6268136 101.0397184  97.9784714
  77.5826180 100.2677593  97.4542375  77.9477706 101.2205487  97.8375869
  78.1630212  99.4547596  97.8904318  77.7333551 100.2399306  95.9103664
  77.0979520 100.9987486  95.4536859  78.7709507 100.4173758  95.6275095
  77.3319651  98.9361078  95.4128433  77.0977637  98.2224107  96.0880363
  77.2847069  98.6314429  94.1387919  77.7656581  99.3718690  93.2358803
  78.2114275 100.2430627  93.4857026  77.7022133  99.0892691  92.2683000
  76.7083904  97.5597926  93.7881042  76.2964283  96.9592185  94.4878885
  76.6634713  97.3108007  92.8103087  76.7714357 101.0823308 100.4159583
  76.0605468 102.0703267 100.4879112  77.9981833 101.0721847 100.8403135
  78.6341071 100.4230737 100.3994563  78.5139338 101.9501418 101.8459903
  77.8685450 102.8176677 101.9837268  78.5629742 101.1618945 103.1611482
  79.3457088 100.4264442 103.3469938  78.7274026 102.0343963 103.7934487
  77.2208211 100.5150194 103.6321541  75.8801635 101.0120963 103.5259387
  75.0480449 100.2428672 104.2562676  73.9726134 100.4197990 104.2717977
  75.8261573  99.2850917 104.9027983  75.5030537  98.5636132 105.5314260
  77.1705596  99.4899243 104.5292316  77.9559369  98.8662415 104.9562015
  79.9237073 102.3796201 101.5164908  80.7518883 101.5224460 101.1835950
  80.2829026 103.6727994 101.6720676  79.5474391 104.2806650 101.3408693
  81.6616991 104.2720299 101.9108336  82.3911363 103.7498417 101.2916891
  81.8180574 105.7755085 101.6866705  81.4704614 106.0087862 100.6802621
  81.0357829 106.5723623 102.6809800  81.3831507 106.3399506 103.6876683
  81.1750305 107.6356223 102.4855603  79.9780703 106.3232509 102.5956022
  83.3404207 106.0354079 101.7457589  83.8383899 105.4595827 100.9656601
  83.5344924 107.0970503 101.5929479  83.7235784 105.7331458 102.7204017
  82.3177983 103.6654055 103.2087672  81.6517729 103.8500719 104.2298286
  83.5724792 103.2034720 103.2125622  84.0904495 103.1203563 102.3494875
  84.1766045 102.6532981 104.4514783  83.8034350 103.2141736 105.3083694
  83.8281390 101.1432157 104.6528987  82.7493005 101.0394951 104.5369301
  84.3331286 100.5843861 103.8649933  84.2572424 100.5834342 106.0434856
  85.3186086 100.3360680 106.0231714  84.0748965 101.3368266 106.8098092
  83.4371089  99.3105322 106.3661983  82.3848843  99.5935935 106.3944590
  83.5996903  98.5985766 105.5570098  83.8281266  98.6653829 107.6999447
  84.6653877  97.9885902 107.5295162  84.1312124  99.4501146 108.3930785
  82.6909060  97.9087208 108.2770944  82.4101847  97.1812452 107.6351641
  82.9728819  97.4938232 109.1537070  81.9151220  98.5357523 108.4354919
  85.7498508 102.9757639 104.4303585  86.3015707 103.1883177 103.3677358
  86.3516073 102.9611748 105.6681413  85.7878379 102.8272588 106.4953837
  87.8071571 103.2294850 105.8410156  88.3031060 103.0778618 104.8822955
  88.1099447 104.6406023 106.3278397  89.1917006 104.6825880 106.4548899
  87.6744464 105.7497140 105.4649322  86.5926660 105.7086594 105.3377894
  87.9499142 106.6985976 105.9251892  88.1576396 105.6647903 104.4915808
  87.4584238 104.7837589 107.5664961  87.6218424 105.6635265 107.9142079
  88.4603869 102.2296353 106.7730303  87.8579217 101.6517816 107.6646036
  89.7435362 102.0090604 106.6149780  90.1495105 102.4766402 105.8170724
  90.6117366 101.2332259 107.4683870  90.2840699 101.2812962 108.5068585
  90.5553012  99.8340207 107.0224245  90.7065643 100.0005325 105.9558915
  91.4456213  99.3702394 107.4470857  89.3405369  98.9022886 107.2306575
  88.5497781  99.0199717 108.4037019  88.8362627  99.7376194 109.1724723
  87.4211204  98.2316826 108.5765405  86.7213009  98.4471448 109.3839626
  87.0890369  97.3067486 107.6007404  86.0574494  96.4477303 107.8067420
  85.6316958  96.5702054 108.6584071  87.9063699  97.0809869 106.4742883
  87.6833171  96.3232476 105.7231697  89.0723906  97.8993439 106.3406150
  89.7665217  97.7287747 105.5177005  92.0650090 101.6331887 107.3919996
  92.5885595 101.9549494 106.3499276  92.7538996 101.3947795 108.5379716
  92.1761815 101.1969817 109.3424697  94.2157560 101.4793357 108.7295730
  94.6784859 102.1399766 107.9964060  94.4546944 102.0775352 110.1682668
  94.0878803 103.1033800 110.1337867  93.8329328 101.4924830 110.8459293
  95.8830780 102.0699297 110.6624253  96.1162343 101.0079139 110.5858658
  96.5569705 102.6365729 110.0198652  96.0601489 102.5347667 112.1378732
  95.6505339 103.6802802 112.5110174  96.7809446 101.7465494 112.8705074
  94.8296096 100.0775743 108.5061235  94.3541620  99.0963217 109.0172222
  95.9383866  99.9845402 107.8089519  96.2228569 100.8145813 107.3087441
  96.6729150  98.7664118 107.5839135  95.9048865  98.0006609 107.4750237
  97.5547715  98.7747318 106.2966525  98.3241344  99.5414939 106.3875132
  98.2239126  97.3919067 106.1217387  97.4551230  96.6246324 106.0303402
  98.8401314  97.3969934 105.2226564  98.8488870  97.1778394 106.9887358
  96.5930846  98.9717834 105.1398301  96.0642325  99.9168670 105.2632580
  97.1495054  98.9870884 104.2026742  95.8736275  98.1531635 105.1212851
  97.5092279  98.3334117 108.8373985  98.5110464  98.9575201 109.1628234
  97.0874515  97.2492674 109.5325479  96.1733213  96.9577672 109.2171228
  97.6582544  96.5822336 110.6396066  98.1840471  97.3136113 111.2533882
  96.6018425  95.8637322 111.5201961  95.8117472  96.5828971 111.7361832
  96.1928270  95.0403166 110.9347107  97.1158773  95.3745412 112.7061427
  96.4173844  94.9433538 113.2039226  98.7599136  95.6304081 110.1737867
  98.5410668  94.4117435 110.1924622  99.9021145  96.0777519 109.6645661
 100.0759565  97.0263136 109.9647477 100.7638058  95.5135740 108.7316800
 100.1744127  95.1158034 107.9055484 101.7318615  96.4875796 108.1938628
 101.0779075  97.2730725 107.8151222 102.3191728  96.8745797 109.0265670
 102.6891885  96.0166299 107.0580572 103.1427723  95.0796887 107.3813277
 101.9796691  95.8040307 105.6991066 101.5262049  96.7407192 105.3749404
 102.7070303  95.4768348 104.9561468 101.2053648  95.0445973 105.8077998
 103.8771995  96.9028804 106.7916892 104.4866987  96.9748429 107.6924842
 104.4731427  96.4793007 105.9832751 103.5328809  97.8968917 106.5062333
 101.5068818  94.2432725 109.1654223 101.6040150  93.2802660 108.3653619
 101.9779553  94.2580037 110.3811989 101.9700240  95.1482022 110.8582554
 102.5485850  93.1113560 111.0704759 103.4098260  92.7305810 110.5215010
 103.0033332  93.5283266 112.4583046 103.4886921  94.5005876 112.3732481
 102.1178063  93.6186734 113.0874147 103.9921904  92.5089887 113.0977113
 103.5116338  91.5359472 113.1994777 104.8817803  92.4109967 112.4755141
 104.3942220  93.0298496 114.4881416 105.2529327  92.4608347 114.8444236
 104.6649516  94.0825648 114.4069272 103.2973894  92.8972439 115.4706990
 102.4927909  92.4361941 115.0705069 103.2372801  93.2822141 116.6932499
 104.2648976  93.8950342 117.2234600 105.0926842  94.0590083 116.6684989
 104.2253914  94.2011490 118.1851422 102.1555983  93.0356116 117.3697857
 101.3873688  92.5504254 116.9287439 102.0881692  93.3302851 118.3334867
 101.6191076  91.9158748 111.2100303 101.9548851  90.7498365 110.9763700
 100.4398993  92.1541149 111.7060165 100.1976492  93.0794623 112.0302794
  99.4325015  91.0986942 111.8057404  99.8882003  90.1605610 112.1225113
  98.3869946  91.5125402 112.8489042  98.2259443  92.5856204 112.7456527
  97.4629838  90.9829922 112.6167770  98.8162588  91.1905696 114.3114558
  98.1051850  91.8029605 114.8659396  98.6779015  90.1427668 114.5780371
 100.2647500  91.6285368 114.6673620 101.1378460  90.7513877 114.6938512
 100.3815594  92.8277505 115.0564009  98.6981317  90.8369385 110.4797913
  97.8658764  89.8862077 110.3937219  98.9397816  91.6063175 109.4177206
  99.4381875  92.4632599 109.6109582  98.2903212  91.4575926 108.1053532
  98.4222347  92.3567606 107.5035269  98.9575394  90.2498402 107.3558955
  98.6096131  89.3640784 107.8873771  98.5236886  90.2668248 106.3561029
 100.5019894  90.2129658 107.2474920 100.7195345  89.9369868 106.2156924
 100.8355976  91.2348787 107.4277743 101.2465880  89.2493807 108.2079958
 102.1148912  89.7466509 108.6402815 100.5792899  88.9251155 109.0065350
 101.7118558  88.0148340 107.3895519 102.1997977  88.3240101 106.4652017
 102.3963449  87.3987283 107.9726364 100.5641135  87.2762956 107.0858765
  99.9299045  87.8468736 106.5452107 100.8213456  86.4592111 106.5508021
 100.1120585  86.9893453 107.9422671  96.7564765  91.5254396 107.9855567
  96.1376850  90.7838624 107.2702712  96.1237974  92.4605639 108.7762208
  96.7094487  92.9575058 109.4320871  94.6553307  92.6384338 108.8705963
  94.2057732  92.3767890 107.9127136  94.0414437  91.7730773 109.9438442
  92.9700223  91.8173170 109.7484007  94.4087102  90.7700116 109.7268771
  94.3056824  92.1058383 111.4145273  95.3939272  92.1580210 111.3813445
  93.9066400  93.0628698 111.7506150  93.8921105  91.0424523 112.3544926
  93.1958699  91.3870641 113.2969058  94.4355544  89.9016621 112.2501503
  94.3318793  94.1411342 108.9612156  95.2388139  94.9884959 108.8250693
  93.0092763  94.5554569 109.0503173  92.2569084  93.8826453 109.0872835
  92.6702522  95.9768324 109.0867079  93.4850515  96.5921526 108.7051553
  91.4744611  96.1641511 108.2031756  90.8342229  95.3075721 108.4140475
  90.9181351  97.0848879 108.3788037  91.7901044  96.1191569 106.6856728
  92.6063084  97.1619709 106.1553040  93.1025345  97.9176384 106.7642590
  92.7453225  97.1778313 104.8267346  93.2642448  98.0273905 104.3828094
  92.2466888  96.1421184 104.0000387  92.5466762  96.0450669 102.9566363
  91.3261503  95.2090552 104.5683820  90.7651218  94.5481374 103.9076741
  91.1433058  95.1379002 105.9276986  90.5236434  94.3488183 106.3536894
  92.3530611  96.4066710 110.5226430  92.0761927  95.7000320 111.4752909
  92.4043603  97.7235895 110.6964797  92.7619650  98.2624338 109.9206801
  92.0208286  98.4495835 111.9475557  91.4864602  97.7718391 112.6132975
  93.2477365  98.9722308 112.6707222  94.0225624  99.0079229 111.9049088
  93.0996778  99.9699904 113.0838256  93.7075293  98.0518786 113.7817237
  92.9337615  97.6253606 114.6237901  94.9474603  97.7639593 113.9358267
  95.2303819  97.1476051 114.6842667  95.6353223  98.1548912 113.3080377
  91.0623941  99.6224231 111.6135172  90.9031711  99.9683492 110.4311403
  90.4763286 100.3559431 112.5633317  90.5104931  99.9697164 113.4959415
  89.6945423 101.6033495 112.3444158  88.8144615 101.4023918 111.7335369
  89.2235903 102.1576599 113.7357037  88.7935371 101.3199806 114.2847455
  90.1128639 102.5139922 114.2556267  88.2232171 103.2609078 113.6488335
  88.5550883 103.9816113 112.9014723  87.2617106 102.8440814 113.3490618
  88.0789660 103.9462069 114.9736572  87.1316120 104.4851658 114.9856099
  88.0759944 103.1898161 115.7584906  89.2531612 104.9504155 115.2219648
  89.3324421 105.0347254 116.3058038  90.1411362 104.4538698 114.8307589
  89.1455056 106.2663560 114.6447406  88.3229850 106.7268009 115.0074388
  89.9656175 106.8060842 114.8818272  89.0724618 106.1884772 113.6404007
  90.4938979 102.6066793 111.5253150  91.6424126 102.7204641 111.9106991
  89.9346646 103.3658429 110.5725912  89.0282988 103.0669339 110.2420556
  90.5196722 104.5603853 109.9911072  91.6071015 104.4948913 110.0272648
  90.1966713 104.6637683 108.9552106  90.0625047 105.8089450 110.7892528
  89.9794008 105.8073259 112.0039924  89.8107789 106.9288336 110.1174749
  90.0103756 107.2157263 108.7185904  89.1856088 106.7435460 108.1848247
  90.9476257 106.7371738 108.4346032  90.0457370 108.6998731 108.5251198
  89.1370365 109.0277291 108.0202704  90.9132410 108.9728008 107.9242465
  90.1456218 109.2792280 109.9016690  89.6603263 110.2341067 110.1036445
  91.2047001 109.3509496 110.1492750  89.5033603 108.2004338 110.7148088
  90.0095973 108.1841388 111.6799807  88.0302934 108.5793705 110.9170405
  87.7152561 109.3222982 111.8673579  87.1387991 108.1564105 109.9445346
  87.4429262 107.7819782 109.0571753  85.6944756 108.3907002 110.1477950
  85.4723936 108.5677622 111.2001390  85.2949382 109.6384627 109.3449522
  84.2211687 109.6683602 109.1599538  85.5734474 110.4642992 109.9995717
  85.9751242 109.8950103 108.0062516  86.8976380 110.8458513 107.7827707
  87.1060968 111.5234633 108.6107119  87.3809169 110.7495477 106.5373040
  88.1851901 111.2743015 106.2244502  86.7017993 109.8254367 105.7986910
  86.6769178 109.3844908 104.4557935  87.2737002 110.0053528 103.7876020
  85.9520530 108.2590498 104.0410591  85.9591913 107.8685071 103.0234514
  85.1758656 107.6105360 105.0129176  84.5474105 106.7576701 104.7564735
  85.1866527 108.0429147 106.3469858  84.5793338 107.4293442 107.0124147
  85.8998530 109.1977582 106.7891872  84.7457428 107.2268783 109.8575438
  85.1183149 106.3061967 109.0478867  83.5985939 107.2430203 110.4776492
  83.4229044 108.0361787 111.0777594  82.5646842 106.1424905 110.4239186
  82.9762049 105.1986748 110.7816361  81.3636734 106.5611991 111.3679871
  81.7961922 107.0702456 112.2293223  80.7441928 107.2606030 110.8065800
  80.5169631 105.4077907 111.8397365  80.2500400 104.8191274 110.9620529
  81.1313360 104.8045101 112.5080931  79.2131357 105.8510586 112.5871540
  78.6401296 106.4163127 111.8521365  78.6887495 104.9246886 112.8215833
  79.3747051 106.7064828 113.8952361  79.8599225 106.1044318 114.6634803
  79.9863205 107.5829147 113.6810095  78.0516041 107.1371249 114.3730722
  77.4848566 106.3251482 114.5720464  78.1596698 107.6864841 115.2136828
  77.6019981 107.6953706 113.6615139  82.1010373 105.8683871 108.9739628
  81.9189858 106.7910859 108.1557756  81.7130184 104.6183764 108.6848995
  82.0721960 103.9089057 109.3075889  81.0187353 104.1905564 107.4776124
  81.5708511 104.5327709 106.6023088  80.8900667 102.5566304 107.4103879
  80.4400242 102.3065565 106.4496465  81.9004989 102.1502043 107.4544860
  80.0287906 101.9411536 108.5664351  80.6008872 102.0790920 109.4839204
  79.0620332 102.4350875 108.6639619  79.8010422 100.4892744 108.3635081
  80.5475199  99.6310126 108.7170708  78.7398486 100.0924904 107.6914317
  78.5763109  99.1061728 107.5481336  78.0946636 100.7764236 107.3225510
  79.7131660 104.9060577 107.2167051  78.8618391 105.1605406 108.0529909
  79.4339524 105.2159092 105.9233603  80.1694220 105.0186440 105.2598317
  78.2335668 105.9675833 105.4475532  77.4608900 105.8882939 106.2122643
  78.4967982 107.4502649 105.1698023  78.9633029 107.8638426 106.0639086
  79.1999097 107.4985777 104.3382976  77.2527261 108.2557796 104.8287160
  77.4556940 109.2289384 104.3816514  76.8105780 107.5979023 104.0805170
  76.2868901 108.4235481 105.9891334  75.3495160 107.6087413 105.9735246
  76.5662032 109.1879245 106.9286077  77.5225394 105.2535482 104.2219207
  78.2063673 104.8677252 103.2753179  76.2462561 105.0882255 104.2377449
  75.7782899 105.3681325 105.0878973  75.4614807 104.4796093 103.1951755
  75.9115880 103.5364404 102.8854417  74.0401426 104.1985668 103.7173692
  74.0617901 103.6219836 104.6421299  73.6207544 105.1851223 103.9146552
  73.1683778 103.4993877 102.7435398  72.2901809 104.0761183 102.0919196
  73.4025382 102.2157332 102.5030672  72.8238462 101.7148042 101.8440638
  74.1584015 101.7454265 102.9801239  75.4360667 105.3383559 101.9562452
  75.2182219 106.5726721 102.0260031  75.7096800 104.7516247 100.8202596
  76.0284270 103.7944380 100.8681491  75.7054872 105.4256560  99.5001633
  75.3246588 106.4455122  99.5545886  77.1894901 105.4679431  98.9425432
  77.1352010 105.9355648  97.9594451  78.1897077 106.2143373  99.8019846
  78.2448931 105.7469824 100.7851605  79.1713226 106.1819319  99.3292449
  77.8734094 107.2517619  99.9106454  77.8192878 104.1018194  98.7060652
  77.2253571 103.5483379  97.9787368  78.8326257 104.2293173  98.3252893
  77.8513260 103.5485432  99.6446598  74.7211310 104.7950891  98.5222675
  74.1853585 103.6754480  98.7820207  74.4648761 105.4968523  97.3494180
  74.9281087 106.3805051  97.1923427  73.5413743 105.0129360  96.3359505
  72.5061547 105.1373266  96.6536714  73.7694168 105.8497796  95.0596827
  73.6592495 106.8937400  95.3531261  74.7987766 105.6661334  94.7517988
  72.7954361 105.5358783  93.8547974  72.9824090 104.5358299  93.4635877
  71.7710694 105.5959901  94.2224367  72.9985683 106.5658829  92.7400701
  73.0454465 106.0763478  91.6004597  73.0763278 107.7896638  92.9988494
  73.8340192 103.5063981  96.0853023  75.0118252 103.0106720  96.1052940
  72.7755645 102.6923603  95.8329745  71.8473154 103.0842099  95.7629256
  72.9287009 101.2533549  95.6924978  73.3526405 100.7906334  96.5837122
  71.4366996 100.7518970  95.5231520  71.0015632 101.1996269  94.6296788
  71.4264740  99.6662202  95.4267073  70.8533235 101.0440884  96.3963048
  73.8345118 100.8206912  94.4873867  74.1795453  99.6915375  94.4036325
  74.1506891 101.7394300  93.5782189  73.8355963 102.6810003  93.7633170
  74.9225568 101.4985349  92.3815963  75.1336765 100.4346782  92.2732609
  74.1488657 101.9503411  91.2013085  74.0494923 103.0293289  91.3196708
  74.7852336 101.7366363  90.3425500  72.7597796 101.3294982  90.9767208
  72.3353738 101.6882238  91.9144289  72.1885404 101.7346188  90.1414589
  72.6983303  99.7713398  90.9410371  73.6957746  99.1875265  90.4872289
  71.5559564  99.2771917  91.1244536  76.2490051 102.1989702  92.2398952
  76.9199561 101.9706246  91.2386294  76.5765260 103.0152575  93.2309956
  75.8575958 103.1851613  93.9197418  77.8779576 103.7745289  93.3513278
  77.9341974 104.5268602  92.5646043  77.8844474 104.4842402  94.7085738
  77.8377452 103.7434270  95.5067685  78.7989450 105.0687752  94.8091391
  77.0212773 105.1463138  94.7770949  79.0684320 102.8680845  93.1493400
  79.1897757 101.7033960  93.5658799  80.0739324 103.3951802  92.4360763
  80.0798404 104.3735199  92.1852458  81.2190833 102.5169532  91.9466402
  81.2361061 101.6038704  92.5416942  81.0863410 102.1336477  90.4606286
  81.1292262 103.0509146  89.8733625  81.9329096 101.4975136  90.2022588
  79.8701089 101.4443818  90.1771361  79.8351226 101.2283724  89.2424085
  82.6123225 103.1575251  92.1171398  83.6002812 102.5064097  91.7290542
  82.7774758 104.3649945  92.5495460  81.9782756 104.8997344  92.8584661
  84.1179251 105.0045698  92.6065105  84.8534664 104.2262929  92.8098899
  84.5198586 105.7344665  91.3178226  83.7479095 106.4848706  91.1472721
  85.4652044 106.2301261  91.5386008  84.6754854 104.8822895  90.0801330
  85.5602718 104.2646994  90.2345236  83.7929969 104.2448052  90.0260039
  84.8496284 105.7964639  88.5169963  83.0909389 106.0480831  88.3144800
  82.7034308 106.6095056  89.1646220  82.9065648 106.6063132  87.3966096
  82.5892253 105.0820292  88.2585820  84.2293160 106.0784010  93.7436963
  83.2293414 106.6950034  94.0230554  85.4223581 106.3116510  94.2801644
  86.1353329 105.7910438  93.7895175  85.7997808 107.0303412  95.4788477
  85.1736709 107.9173497  95.5752913  85.6104543 106.1468716  96.7481806
  84.5526103 105.8977811  96.8319607  86.4200921 104.8807211  96.6882526
  87.4781586 105.1290212  96.6049263  86.2541623 104.2994637  97.5952849
  86.1155340 104.2947949  95.8210522  86.0926324 107.0346841  97.9196426
  85.4874535 107.9402149  97.9629380  85.9929946 106.4865722  98.8565232
  87.1376841 107.3037256  97.7660704  87.1754450 107.6189198  95.3280424
  88.0471074 107.1259393  94.6691920  87.3681136 108.8744118  95.7560060
  86.5642474 109.1891215  96.2802732  88.4193111 109.8344380  95.4642964
  89.3939967 109.3786896  95.2899963  88.0201284 110.6974568  94.2266604
  87.0274397 111.1213465  94.3782751  89.0157862 111.8046681  94.0625789
  90.0087141 111.3815245  93.9104467  88.7445488 112.4130032  93.1997582
  89.0195781 112.4262398  94.9579745  87.8421442 109.9170275  92.9133536
  88.2468794 110.5298784  92.1079320  88.4209747 108.9970529  92.9952155
  86.4044706 109.5804386  92.6139666  85.8250638 110.4999962  92.5314957
  86.3475729 109.0302845  91.6747157  85.9991583 108.9671723  93.4187810
  88.7249936 110.5912813  96.8095698  87.7766151 111.1159273  97.3715804
  89.9525012 110.5233765  97.3102753  90.6242127 110.0447708  96.7273176
  90.3954719 111.0090861  98.6411457  89.5842935 111.0397360  99.3685722
  91.4385146 110.0928946  99.1370088  92.2618419 110.0586136  98.4235265
  91.8070082 110.4478604 100.0994599  91.0190079 109.0938227  99.2551976
  90.8634624 112.4425842  98.4851968  91.7639352 112.7629277  97.7211420
  90.1257917 113.3600714  99.1219269  89.3116818 113.0373033  99.6250622
  90.3703579 114.7982341  99.0502505  90.7389001 115.0320581  98.0514501
  89.0862624 115.5929518  99.2960360  88.7615132 115.3919080 100.3169270
  89.2665114 117.0517694  99.1138803  89.5908338 117.2536482  98.0930175
  88.3215104 117.5614233  99.3018331  90.0200292 117.4153272  99.8125492
  88.0098304 115.2019642  98.3385561  87.7867049 114.1414405  98.4552033
  87.1122754 115.7860629  98.5418375  88.3433951 115.3924852  97.3184888
  91.4825850 115.3504245  99.9918123  91.4034555 115.0910839 101.2231900
  92.4501176 116.1809562  99.5385467  92.7291362 116.6716710  98.1633836
  92.1469799 117.5801075  98.0086664  92.3990621 115.9053686  97.4620059
  94.2039630 116.9147901  98.0903823  94.4380835 117.6336606  97.3051996
  94.7391090 115.9841593  97.9015797  94.5399719 117.4620102  99.4569968
  94.4560419 118.5420767  99.5774593  95.5525006 117.1464728  99.7086344
  93.4837405 116.7234313 100.4111448  94.0251205 115.8694505 100.8182352
  92.9785191 117.5985757 101.5571551  92.0170416 118.3481681 101.3991098
  93.7041859 117.5991487 102.7138060  94.4734828 116.9451856 102.7385815
  93.5678692 118.5895932 103.8493673  92.5928538 118.5344612 104.3335209
  94.6959820 118.1651271 104.9153105  95.6444304 118.3379374 104.4067031
  94.5900122 118.8743386 105.7362182  94.6661604 116.7363485 105.4681092
  94.5294128 116.0759592 104.6117875  95.5999788 116.4878706 105.9724317
  93.4893221 116.5567529 106.4484234  92.6833484 115.5803748 106.4642092
  93.2448581 117.4664059 107.2896670  94.0100664 120.0692100 103.4185843
  94.9098786 120.1439946 102.5812533  93.3952332 121.1267115 104.0620161
  93.8496143 122.4621842 103.6310258  93.9334998 122.4760105 102.5443463
  94.8249872 122.6660248 104.0728352  92.7642216 123.4102865 104.1492436
  91.9819426 123.5422540 103.4017657  93.1920919 124.3804612 104.4018095
  92.2229155 122.6974042 105.4156873  91.1700793 122.9234892 105.5845676
  92.8043687 123.0073022 106.2840046  92.3977933 121.2217094 105.1809652
  92.8656444 120.8243258 106.0816871  91.1493094 120.4688037 104.8991461
  90.5899564 119.9187014 105.8490048  90.5756945 120.3900369 103.7172177
  91.0196340 120.7729881 102.8948033  89.2478879 119.7745603 103.5702509
  88.5652613 120.3111698 104.2291670  88.6646673 119.7929092 102.1293394
  89.6187894 119.4750944 101.7089300  87.8902999 119.0770026 101.8537803
  88.3027599 121.1152563 101.4449285  87.9237718 122.2115919 102.1838644
  87.9920552 122.1641145 103.2706869  87.4548006 123.3790451 101.5601593
  87.1857176 124.2635485 102.1375230  87.3309783 123.3913167 100.1058992
  87.0907287 124.2977655  99.5502638  87.5274916 122.2136495  99.4404284
  87.3261007 122.2224647  98.3692309  87.9648402 121.0310636 100.0641726
  88.0324142 120.1058855  99.4918272  89.0746276 118.2110064 104.0093705
  88.3577700 117.9460289 104.9589168  89.9127360 117.3137940 103.4219882
  90.5734531 117.5667606 102.7011830  89.8572811 115.9281446 103.8487044
  90.6859713 115.3868956 103.3921727  89.9535649 115.8909588 104.9338062
  88.5179489 115.2477115 103.4348878  87.6817246 115.6998758 102.6621457
  88.4960946 113.9901265 103.8745481  89.1951074 113.6366489 104.5121484
  87.4300276 113.0749282 103.4289909  87.4357959 112.2428836 104.1330985
  86.4972091 113.6295985 103.5304301  87.5308996 112.5117987 101.9761561
  88.6512730 112.4486807 101.4432420  86.4126263 112.1135489 101.3756671
  85.5433783 112.2337511 101.8757258  86.3657079 111.5510408 100.0471570
  87.2299061 111.8906813  99.4762761  86.3807709 110.0180388 100.0937108
  85.5162906 109.6625359 100.6544171  86.3423771 109.6228007  99.0786182
  87.2943642 109.6777849 100.5812289  85.0435148 111.9564928  99.2856958
  83.9524463 111.9042117  99.8288710  85.2382897 112.2823014  98.0255064
  86.2027144 112.4464881  97.7744547  84.2490032 112.3273301  96.9888976
  83.3965633 112.9197127  97.3213554  84.8920552 112.9995045  95.7343129
  85.7926908 112.4557282  95.4492459  83.8591986 112.9690447  94.5403634
  82.9584212 113.5130563  94.8245325  84.3040766 113.4373528  93.6623704
  83.6010894 111.9356688  94.3088183  85.2158849 114.4392542  96.1110624
  84.2727580 114.9801477  96.1888226  85.7063351 114.4233651  97.0843587
  86.1135028 115.1314929  95.1045374  85.6234924 115.1481820  94.1310329
  86.3062859 116.1533496  95.4312527  87.0570692 114.5913976  95.0265673
  83.9546402 110.8838848  96.6349529  84.8044911 110.0294963  96.5937840
  82.6812861 110.6105089  96.4332501  82.0488931 111.3156995  96.7837992
  82.1074929 109.3383859  95.9315747  82.7472230 108.7236485  95.2983744
  81.4795467 108.4567116  97.0425328  80.5491143 108.9122124  97.3815237
  81.1953637 107.0743088  96.5009790  82.1254552 106.6179579  96.1621954
  80.7544383 106.4596471  97.2857570  80.5009922 107.1470961  95.6639309
  82.1802132 108.4676803  98.4736485  82.4013924 107.4371636  98.7515256
  83.1108938 109.0291600  98.3919559  81.2979890 109.1013407  99.5383852
  80.3672495 108.5400910  99.6209837  81.8168450 109.0865866 100.4968579
  81.0767489 110.1320874  99.2614124  81.1386449 109.5883957  94.7223391
  80.5755041 110.6413223  94.6098265  80.9581597 108.6636146  93.8045298
  81.3338948 107.7487669  94.0094106  80.3194269 108.8896579  92.4540088
  79.7836104 109.8381186  92.4162987  81.3311445 108.8376362  91.3311618
  82.0439358 108.0531976  91.5854944  80.7300566 108.5552084  89.9263356
  80.0174640 109.3395320  89.6710925  81.5294895 108.5362619  89.1856273
  80.2209754 107.5914386  89.9354542  82.1720309 110.2271803  91.3248112
  81.4330909 110.9841703  91.0620670  82.4740697 110.3601676  92.3636502
  83.4129777 110.3734694  90.4024607  83.1116244 110.2410588  89.3633488
  83.8468763 111.3651082  90.5308495  84.1526027 109.6170541  90.6649308
  79.2075155 107.7986690  92.3682986  79.5142312 106.6151034  92.3583015
  77.9584565 108.2338920  92.1747460  77.8631289 109.2393828  92.1742190
  76.7551740 107.4214882  91.9702432  76.8372140 106.5163640  92.5720063
  75.8863684 107.9947413  92.2937506  76.5785881 107.0382849  90.5376987
  77.4744916 106.7291162  89.7291867  75.2783999 106.8621340  90.1751972
  74.5183358 106.7784827  90.8350489  74.9484564 106.8184514  88.6733120
  75.7695136 107.2003227  88.0665678  74.7278913 105.3521797  88.3262107
  75.6799534 104.8375502  88.4559549  74.0006070 104.9534610  89.0334454
  74.2116690 105.1314248  86.8693432  73.8704837 104.1204523  86.6465698
  73.3692867 105.8204246  86.8079145  75.2580544 105.5396329  85.8188197
  76.2125890 104.8422053  85.4616373  75.0688144 106.6560812  85.1191545
  75.7484236 106.9354572  84.4262030  74.2464822 107.2187147  85.2844260
  73.6607386 107.6238805  88.4218027  73.5424841 108.0865117  87.3059953
  72.9166329 107.9433554  89.4661477  73.0046314 107.4431196  90.3391424
  72.0144571 109.1096567  89.4161765  71.8100380 109.4336707  88.3957222
  70.6961536 108.6247672  90.0526692  70.9482010 108.3599866  91.0795395
  70.0362110 109.4922783  90.0532235  70.0141267 107.4895648  89.4063002
  69.7809517 107.7944069  88.3861033  70.6599015 106.6117388  89.3840404
  68.7273292 107.1527328  90.1404829  68.5187355 105.9654379  90.5410443
  67.8719718 108.0004019  90.3141867  72.4880907 110.2820840  90.2758447
  71.7304251 111.2567968  90.4189348  73.6521130 110.3004512  90.8774301
  74.2502715 109.5113414  90.6784037  74.0747777 111.2657620  91.9667632
  73.9160941 112.2888935  91.6259984  73.2316801 111.0364778  93.3017902
  73.2732096 111.9269201  93.9290757  72.1933379 110.8139533  93.0559682
  73.7998257 109.9345709  94.0037201  73.3050958 109.7805914  94.8118863
  75.6014660 111.3225641  92.2137500  76.3783504 110.5003369  91.7198654
  76.0234587 112.3780129  92.9652552  75.3761680 113.1475483  93.0597507
  77.3954165 112.5566529  93.4610793  77.9078793 111.6101133  93.6329626
  78.3414426 113.5297891  92.5707881  77.7701341 114.4368898  92.3736202
  79.7239554 113.9133418  93.2626361  80.2960634 113.0067235  93.4597051
  80.2937425 114.5651457  92.6003710  79.5294839 114.4310000  94.2019497
  78.5955592 113.0553505  91.1219507  79.0233376 112.0578737  91.2226807
  77.6057252 112.9818271  90.6714816  79.4981161 113.9088524  90.2313859
  80.4883319 113.9824518  90.6810033  79.5798592 113.4472316  89.2473516
  79.0707202 114.9064065  90.1298061  77.3986104 112.9318281  94.9545154
  76.5039996 113.6719336  95.4339957  78.3877690 112.4029830  95.6713544
  79.1192959 111.8568419  95.2392692  78.3886570 112.5343583  97.1320754
  77.6664655 113.3387399  97.2717492  77.8536093 111.2672209  97.8237364
  78.4717264 110.4475737  97.4573896  77.8559544 111.2627461  99.3941279
  77.2376267 112.0818928  99.7612371  77.4556300 110.3156583  99.7558794
  78.8762374 111.3875792  99.7568122  76.4588203 111.3483104  97.5178131
  76.0025601 110.5964915  97.9027745  79.7590553 112.8661703  97.6431608
  80.7054122 112.3565683  97.0997940  79.8639991 113.6002759  98.7074431
  79.0609891 114.1323248  99.0110847  81.0778699 113.7091575  99.4644191
  81.8362402 113.0311201  99.0729618  81.6079271 115.1612312  99.3550284
  82.0936563 115.0814836  98.3825024  80.7739528 115.8598543  99.2878512
  82.5947822 115.6580674 100.3663883  83.9562932 115.5372497 100.1472789
  84.3062475 115.0348998  99.2454607  84.9186173 116.0717934 101.1045799
  85.9680093 116.1646672 100.8248428  84.4793415 116.5423720 102.3577896
  85.3603426 116.9461485 103.3271516  86.2778835 116.8707696 103.0550552
  83.0182060 116.5104764 102.6440002  82.6408437 116.7994450 103.6249158
  82.1103209 116.0979868 101.6235077  81.0362973 116.1199212 101.8081488
  80.8171223 113.3417976 100.9540537  79.8245343 113.7630844 101.4870233
  81.8726070 112.7540729 101.6045902  82.6926725 112.5578040 101.0486491
  81.8708659 112.3267772 103.0560499  81.2124742 112.9583713 103.6524628
  81.3471576 110.8720106 103.1148794  80.3310816 110.8505461 102.7208896
  81.9754122 110.1956816 102.5352456  81.2803474 110.3090109 104.5091077
  80.5176071 110.9304719 105.5942840  80.8267412 110.1255182 106.6299455
  80.3827398 110.3933570 107.5887073  81.6362233 109.1252181 106.2919212
  82.0298474 108.4310203 106.9109926  81.8609269 109.1897209 104.9079152
  82.4197642 108.3979446 104.4090241  83.2247671 112.4281660 103.7558918
  84.2479781 112.2704510 103.1448122  83.2030037 112.7519914 105.0886875
  82.2741294 112.8220292 105.4790546  84.3338407 113.1686434 105.9134631
  85.1973928 112.5123437 105.8055392  84.7160778 114.5993962 105.3664428
  84.7886227 114.5591250 104.2796058  83.9515039 115.3216767 105.6525157
  86.0669095 115.0644871 105.9317766  86.8881280 114.3127699 106.4341414
  86.2743465 116.3385357 105.8441632  87.1374611 116.7316135 106.1914712
  85.5721877 116.9340248 105.4288724  83.9742459 112.9927134 107.4040258
  84.3911680 113.8031618 108.2354254  83.0775771 112.0878486 107.7562670
  82.6676516 111.5409874 107.0126251  82.6416148 111.8258551 109.1362490
  82.4859186 110.7484562 109.1916521  83.4875661 112.1030085 109.7652575
  81.4191863 112.5189249 109.6342286  80.2777864 112.2811915 109.1289692
  81.6087160 113.5397710 110.4942216  82.4961571 113.5907072 110.9737559
  80.5435913 114.4478996 110.9107078  79.5803151 113.9752034 110.7189884
  80.6306718 114.7999880 112.4132569  81.2316363 115.6818761 112.6351002
  79.5777495 115.0270577 112.5802719  81.0482748 113.6698854 113.3132069
  80.1631671 112.8721848 113.6981771  82.2660437 113.4303302 113.4942683
  80.4470296 115.6647810 109.9956594  80.0584799 116.7349025 110.4264519
  80.6117069 115.4133803 108.6708209  81.0318586 114.5126503 108.4912174
  80.4377425 116.3154027 107.5675740  79.4126630 116.6790172 107.6389584
  81.3580120 117.4940750 107.4652576  81.2019691 117.9539839 106.4894330
  81.0814847 118.2006900 108.2477714  82.8367164 117.1125412 107.6201133
  82.9157459 116.1460056 107.1224547  83.3681876 117.8650848 107.0376027
  83.4783531 117.0152290 109.0698759  83.1530497 117.9022530 109.6134428
  83.0542004 116.1269573 109.5380289  85.0630875 116.9255341 109.1041510
  85.3911546 116.6334434 110.1017259  85.4030731 116.1858429 108.3793297
  85.6255994 118.2260095 108.7700880  85.3110287 118.9114836 109.4418545
  86.6339411 118.1720957 108.7910749  85.3220726 118.4966590 107.8455776
  80.3776025 115.5593635 106.2452189  81.1450504 114.6077365 106.0176756
  79.4471121 115.9194841 105.4002351  79.0827660 116.8519924 105.5335754
  78.9560361 115.1536217 104.3069972  79.7783712 114.8354615 103.6661866
  78.2159930 113.8625069 104.8615779  79.0591501 113.2218229 105.1198595
  77.6297021 114.0691403 105.7569358  77.3348779 113.1542936 103.8264954
  76.1393586 113.7401263 103.3571653  75.8500880 114.6883850 103.8101857
  75.3304257 113.1604847 102.3539264  74.5416676 113.7501367 101.8867294
  75.6174561 111.8384215 101.8749134  74.8083405 111.2578466 101.0274727
  74.0549469 111.8047976 100.7932882  76.7106637 111.1736579 102.4255898
  76.8932928 110.1468622 102.1086709  77.5890490 111.8001555 103.3863214
  78.4448937 111.2522917 103.7806249  77.9357493 116.0708439 103.6118450
  77.2534266 116.8506014 104.1726729  77.9422936 116.0282808 102.3045228
  78.6209879 115.3574288 101.9737190  77.2006855 116.8484916 101.2909165
  76.2395975 117.1323058 101.7197039  77.9504075 118.1336515 100.8631421
  78.8182037 117.8325337 100.2763226  77.2131880 118.5983318 100.2084058
  78.3820820 119.1332807 101.9331083  77.6324988 119.0902481 102.7232818
  79.7869283 118.8754679 102.5388611  80.5371463 118.9188049 101.7493082
  80.0049941 119.6359386 103.2886826  79.8070498 117.8902700 103.0047803
  78.5134096 120.4736596 101.3080113  77.5540999 120.7742337 100.8867279
  78.8215696 121.1980955 102.0618889  79.2611047 120.4340338 100.5158745
  76.8686723 115.9904404 100.0938074  77.6635227 115.1632440  99.7261351
  75.7220571 116.1972388  99.4622816  74.9897021 116.7664153  99.8620237
  75.4852367 115.5779949  98.1646468  76.4363169 115.6108714  97.6331726
  75.1049462 114.0760086  98.4203408  74.1501721 114.0264597  98.9438399
  75.0235196 113.5539204  97.4669816  75.8768042 113.6036074  99.0279358
  74.3708383 116.1769400  97.2529566  73.5635119 117.0038484  97.7002861
  74.4662503 115.8483344  95.9363485  75.1514726 115.1275763  95.7600604
  73.7936533 116.4838248  94.7692567  72.8022555 116.8934247  94.9627959
  74.7314744 117.6268336  94.1389365  74.1194373 118.2529109  93.4896769
  75.3793882 118.4973135  95.2268747  75.9919975 117.8719631  95.8762955
  76.0052594 119.2576528  94.7596808  74.6011660 118.9806849  95.8174857
  75.7327897 117.0275949  93.1479998  76.2189036 116.1794718  93.6301630
  75.1785664 116.6804649  92.2759696  76.7432991 117.9932175  92.7289319
  77.2982809 118.3404768  93.6004283  77.4295969 117.5200533  92.0266425
  76.2579431 118.8414714  92.2462366  73.3862747 115.3721598  93.7731802
  74.1324712 114.4811719  93.4844790  72.2483785 115.6447932  93.1924061
  71.6287300 116.2883711  93.6635140  71.7284616 114.9022097  92.0031303
  72.5762807 114.5518503  91.4144452  70.9975680 113.6943662  92.5693376
  70.1405305 114.0288068  93.1539196  70.6540146 113.0607435  91.7516618
  71.6736573 113.1267811  93.2087511  70.9862692 115.8155685  91.0433490
  69.8188118 115.6416257  90.6995725  71.5400019 116.9118925  90.5561254
  73.0019334 117.2311324  90.6399467  73.5060289 116.2786717  90.4762190
  73.1598480 117.5529686  91.6693074  73.4075052 118.2723810  89.6492869
  73.7496702 117.8631077  88.6987515  74.1503240 118.9727218  90.0311829
  72.0280173 118.9549152  89.5060877  72.0133484 119.4287514  88.5245771
  71.8189738 119.7012940  90.2724552  70.9253603 117.7839009  89.5648016
  69.9361076 118.0592805  89.9303744  70.7939609 117.1176746  88.1835421
  71.7489175 116.5186193  87.7749720  69.7113574 117.2161612  87.4286428
  68.5235296 118.0112849  87.7100704  68.8577860 118.9638208  88.1212253
  67.9421001 117.4760923  88.4608084  67.7600872 118.1753176  86.3837816
  68.1674402 119.0000234  85.7989544  66.6990231 118.3477511  86.5640897
  67.9835927 116.8362974  85.6890765  67.9103005 116.8254829  84.6015976
  67.2958410 116.1008125  86.1064003  69.4487770 116.5054883  86.1266303
  69.3729160 115.4380426  86.3337611  70.5782498 116.7522965  85.0768613
  70.7952135 115.8607798  84.2052894  71.4174154 117.7688713  85.2120309
  71.3209508 118.4490017  85.9524474  72.4873880 117.9485340  84.2476445
  72.0793516 117.9509904  83.2369024  73.3123489 119.2538828  84.4786618
  72.6234773 120.0980481  84.5093409  74.1170758 119.1903527  85.8153830
  74.8065403 118.3466511  85.7852651  74.6801298 120.1145654  85.9453895
  73.4270759 119.0654313  86.6498852  74.2919931 119.5291035  83.2746686
  74.9162737 120.3875288  83.5226213  74.9223363 118.6515788  83.1307334
  73.5303639 119.8123481  82.0081981  72.9001009 120.6900793  82.1512234
  74.2323362 119.9983019  81.1953295  72.9061613 118.9541295  81.7593368
  73.4838425 116.7483322  84.2553277  74.0514380 116.5200596  83.2213412
  73.5893556 116.0279697  85.3431125  73.1022057 116.2681655  86.1946348
  74.4115906 114.7772336  85.3245694  75.0795680 114.6359043  84.4749040
  75.1909922 114.6015657  86.6151521  75.6086739 113.5957426  86.6594502
  76.3754869 115.6716020  86.6551603  75.9585307 116.6777481  86.6113633
  76.9415807 115.5533611  87.5790963  77.0360798 115.5151846  85.8023709
  74.3914676 114.5173610  87.9335254  74.0181607 115.5170228  88.1558291
  73.5501938 113.8450232  87.7652408  75.1864468 114.0308517  89.0636682
  76.0277036 114.7029819  89.2328657  74.5642720 113.9960718  89.9579769
  75.5597388 113.0309825  88.8422761  73.4982334 113.5234043  85.2033602
  73.9920544 112.4553941  85.0005820  72.1515460 113.5948444  85.2830561
  71.7271168 114.4402670  85.6369203  71.2731065 112.4430207  84.9782479
  71.7326246 111.5272402  85.3501195  69.8931094 112.6055998  85.6416536
  69.5714369 113.6432456  85.5526758  69.1741655 111.9585165  85.1391568
  69.9781324 112.2154085  87.1496576  69.9796949 111.1287220  87.2345742
  70.9033236 112.6132409  87.5666141  68.8147258 112.7711263  87.9013217
  68.6805402 113.8364587  87.7138117  67.8902116 112.2425635  87.6689551
  69.1696244 112.5537611  89.3720251  69.6253826 111.5717748  89.4988631
  69.8689488 113.3232815  89.6989545  67.9353334 112.6326916  90.1835747
  67.2873601 111.9194400  89.8810809  68.1628762 112.4898258  91.1571833
  67.5130902 113.5426958  90.0665193  71.1616346 112.2319859  83.4553532
  70.2558627 112.6709576  82.7611291  72.0399408 111.4049333  82.8903256
  72.5608910 110.8064785  83.5152753  72.2756667 111.2675901  81.4059566
  71.5012240 110.6341731  80.9733823  72.2386702 112.6481928  80.6996313
  72.4849903 112.4044926  79.6661731  71.1882813 112.9319284  80.7650324
  73.1394246 113.8503990  81.1855269  73.0407501 114.1701982  82.2228758
  74.1542741 113.4930105  81.0110104  72.8838794 115.0434928  80.2840200
  71.9407610 115.0960871  79.5656144  73.7107422 116.0755363  80.5223562
  73.6270444 116.9219277  79.9776382  74.4121798 116.0001755  81.2451338
  73.7098645 110.6662798  81.1712107  74.6931558 111.1732665  81.7457546
  73.8345005 109.6910436  80.2598308  72.9975972 109.5776509  79.7059046
  74.9749820 108.7074615  80.0522324  74.6432195 107.7598212  79.6279556
  75.9222060 109.4228904  79.0102751  75.3634819 109.5614196  78.0846746
  76.1982358 110.3959550  79.4165421  77.0799294 108.6812129  78.7493957
  77.6245100 109.1511397  78.1136280  75.5363215 108.3840840  81.4712394
  74.7477071 108.0195035  82.3335377  76.8440335 108.4326894  81.6243954
  77.3749585 108.6365613  80.7897372  77.5559003 108.0818075  82.8099778
  77.0296570 108.5501325  83.6417463  77.5099899 106.5813489  82.9925102
  76.4966875 106.2172853  82.8228746  78.4638636 105.9338838  81.9751632
  79.4775097 106.2971356  82.1444836  78.4420315 104.8506241  82.0942049
  78.1492295 106.1942419  80.9645596  78.0057024 106.2921962  84.2480555
  77.9870032 105.3427235  84.3885980  78.9521298 108.6855738  82.7911248
  79.6375049 108.8096838  81.7578278  79.4350494 108.9726312  83.9978405
  78.7554696 108.9300687  84.7438024  80.8570003 109.3396232  84.3454918
  81.2300425 110.0313837  83.5902394  81.0340210 109.9555940  85.7310032
  80.6332369 109.2452900  86.4541495  82.5190187 110.2847094  86.0923464
  82.9203725 110.9953630  85.3698596  82.5627922 110.7189438  87.0911583
  83.1107283 109.3696131  86.0683126  80.1752447 111.2534354  85.7825588
  80.7343070 112.0778015  85.3398731  79.2511568 111.1009720  85.2249603
  79.8352975 111.5943744  87.2719917  80.7589450 111.7474415  87.8301544
  79.2340947 112.5028175  87.3092140  79.2757964 110.7706104  87.7152425
  81.7045589 108.0401804  84.2947094  81.4015503 107.0968876  85.0724667
  82.7713447 107.9258327  83.4847793  82.9626908 108.7286540  82.9025732
  83.6333845 106.7410801  83.3448989  83.3400781 105.8966845  83.9686509
  83.7017297 106.2756704  81.8967384  84.5890252 105.6516858  81.7897374
  82.4592435 105.4781236  81.4646123  81.5715394 106.1016494  81.5709041
  82.5662517 105.1737030  80.4234697  82.3583318 104.5931176  82.0928502
  83.9749997 107.4536093  80.9251827  84.9261605 107.9215064  81.1790870
  84.0163443 107.0794476  79.9022491  83.1747928 108.1887859  81.0105364
  85.1137754 107.0107359  83.8732251  85.8582829 106.0605297  84.1073503
  85.5515056 108.2538217  84.1423179  84.9360766 109.0124178  83.8856501
  86.9378673 108.5902463  84.6177818  87.2180440 107.9540028  85.4573021
  87.9701114 108.3482603  83.4290320  89.0171789 108.4456821  83.7158381
  87.8265864 107.4102138  82.8927770  87.6563429 109.6550074  82.2389302
  88.5875854 109.2764685  81.3680720  87.0178371 110.0044608  85.2772083
  86.0139918 110.7331377  85.2138863  88.0902980 110.3975699  85.9926268
  88.8801140 109.7696526  85.9477933  88.1915681 111.5860747  86.8557478
  87.6988848 112.4413415  86.3932750  87.4960097 111.2827511  88.1952862
  87.5864553 112.0877842  88.9245602  86.4417454 111.0665077  88.0224692
  88.0787923 110.0749966  88.8230875  89.1834600 110.0254000  89.6436979
  89.2624946 108.7340449  90.0156676  90.0219260 108.4663562  90.7503143
  88.3365912 107.9749295  89.3738649  88.2409322 106.9733431  89.4620343
  87.5685174 108.7537418  88.6057718  86.7712006 108.3127291  88.0075286
  89.6694992 111.9993366  87.0612115  90.6440222 111.2678416  87.0761055
  89.7960705 113.3128672  87.3384678  88.9493381 113.8361340  87.5097439
  91.0648785 114.0207101  87.3846595  91.8575899 113.3939608  87.7931850
  91.4074713 114.3693352  86.0141692  91.6501230 113.4160204  85.5446905
  90.5458101 114.8112532  85.5138208  92.5745611 115.2896097  85.8574810
  92.6284445 116.2856218  85.2269182  93.6398200 114.8869127  86.4329361
  94.4801569 115.4447695  86.3806907  93.6375937 114.0122272  86.9379323
  91.0785306 115.2843323  88.2224534  90.1843144 116.0697030  87.9982051
  91.9998567 115.4610674  89.1772868  92.6457376 114.6978157  89.3200596
  92.1328447 116.6310415  90.0043580  91.1611125 116.9847348  90.3489399
  92.9779925 116.2350920  91.2338389  92.6270148 115.2716538  91.6035694
  94.0205943 116.1483670  90.9279625  92.8568416 117.2897520  92.3525367
  93.4371231 118.1724018  92.0836435  91.8103277 117.5677807  92.4774791
  93.3875453 116.7120479  93.6577878  93.2067122 117.4011013  94.4827750
  92.9127192 115.7549645  93.8737303  94.8542838 116.4980492  93.5281742
  95.2811304 116.8826676  92.6975299  95.6517980 116.0276355  94.4982092
  95.2050247 115.2294240  95.4099932  94.2349854 114.9483270  95.3995984
  95.8277975 114.8900930  96.1290956  96.9258599 116.2522418  94.3259065
  97.2414684 116.7489737  93.5050845  97.5902416 115.9282728  95.0141941
  92.8249896 117.7418021  89.1960961  93.8130697 117.4787449  88.5581308
  92.3370258 118.9672661  89.3715249  91.4792523 119.0659939  89.8955258
  92.9250569 120.1750299  88.7565290  93.7557079 120.0346030  88.0648654
  91.8617464 121.0411087  88.0749162  91.2037053 121.4202564  88.8567911
  92.4405369 122.2237536  87.2725232  93.0983658 121.8453452  86.4901108
  91.6262437 122.7894542  86.8197430  93.0067426 122.8736829  87.9396848
  90.7962159 120.3993447  87.2657816  90.2213221 119.7196032  87.8947098
  90.1352045 121.1657613  86.8610976  91.2483139 119.8405817  86.4463353
  93.7035124 120.9788624  89.7301954  94.7003132 121.5038301  89.2135348
  93.3133522 121.0702652  91.0141185  92.4896019 120.5426517  91.2654328
  93.8779740 121.9483750  91.9880688  94.7700424 122.3913167  91.5452192
  92.9325636 123.1094983  92.4861350  91.9726301 122.6793171  92.2005282
  92.9619089 123.2455705  93.5672100  93.1080722 124.4546057  91.8017786
  92.1799511 125.2842661  91.9624392  93.9881053 124.7738142  90.9729169
  94.4392882 121.1156181  93.1742401  93.6501107 120.4406504  93.8368649
  95.7451547 121.1822309  93.5099429  96.8088658 122.0574778  92.8801433
  96.7946285 123.0419758  93.3477556  96.6118029 122.1598007  91.8129998
  98.0615181 121.3152078  93.1546602  98.9267898 121.9780792  93.1523216
  98.2163163 120.5139932  92.4320302  97.8117283 120.7812296  94.4685130
  98.0842984 121.4842669  95.2556235  98.4357700 119.8908467  94.5452585
  96.3263100 120.3951306  94.6025844  96.1703127 119.3573722  94.3079310
  95.7992989 120.6060877  96.0291700  96.0955298 119.7917445  96.8827427
  94.9491651 121.6030661  96.3214843  94.9269924 122.4395135  95.7558312
  94.0941949 121.5503272  97.5330414  94.5597385 121.0227378  98.3655183
  93.9268712 123.0953174  97.9342419  93.5185822 123.3172461  98.9202171
  94.9905662 123.3329184  97.9201410  93.2286147 123.9574955  96.9200073
  92.3441307 123.5098710  96.2399967  93.4017935 125.2779372  96.9785446
  92.9414586 125.8748440  96.3063142  93.9925461 125.6754351  97.6948600
  92.7412548 120.8201204  97.4123671  92.1604459 120.5794883  98.4552301
  92.3569840 120.2410653  96.2522214  92.9100682 120.2917420  95.4086403
  91.1182579 119.5258119  96.2093711  91.2413486 118.7146686  95.4917399
  90.9543225 119.1092277  97.2031931  89.8870648 120.3695476  95.8083741
  88.8064499 119.8306200  95.7707258  90.0344692 121.6565028  95.5141221
  90.9527583 122.0702051  95.5895859  88.9121199 122.5216385  95.1587217
  88.0755810 122.3359370  95.8323809  89.3088909 123.9803539  95.2698138
  88.4860400 124.6000767  94.9135002  89.5130166 124.2140259  96.3147205
  90.4745198 124.2416412  94.4874941  90.7128906 125.1680819  94.5680345
  88.2750276 122.3315086  93.7835400  87.1676550 122.7656736  93.5262313
  89.0631103 121.7308606  92.8608370  89.9958731 121.4997041  93.1716739
  88.7049651 121.4615059  91.4394612  87.6236052 121.5244860  91.3178330
  89.3614309 122.4783895  90.5062869  90.4312562 122.4599187  90.7142098
  89.1841743 122.1379737  89.4860922  88.8264317 123.9320258  90.6684830
  87.7411839 123.8666520  90.7463561  89.2343666 124.3207879  91.6015184
  89.2109722 124.8998210  89.4830944  89.0259108 124.3781254  88.5441137
  88.5709622 125.7802212  89.5412509  90.6230489 125.3379010  89.5113682
  91.0768649 125.3183537  90.4134593  91.3334430 125.6785011  88.4591212
  90.9063036 125.7074383  87.2469312  89.9496188 125.4537817  87.0456541
  91.5294397 125.9836897  86.5016217  92.5304095 126.0819850  88.6174439
  92.9228616 126.1368866  89.5464580  93.0818665 126.3452663  87.8132817
  89.0347454 120.0533676  90.9173956  90.1744959 119.6334217  90.9716095
  88.0823325 119.3671032  90.3044195  87.1678118 119.7953945  90.3222502
  88.2351165 118.0438438  89.6121777  89.2848832 117.8298224  89.4114694
  87.6578867 116.9081602  90.5681162  86.6257920 117.1039881  90.8588586
  87.6932091 116.0279688  89.9261539  88.4988310 116.6609370  91.8157297
  88.3034338 117.3839367  93.0417771  87.6726161 118.2720906  93.0785348
  88.9654448 116.9110946  94.2485989  88.6372160 117.2712685  95.2236079
  89.9164091 115.8795287  94.1641377  90.7246036 115.7126819  95.2246441
  90.5487580 116.3372171  95.9321988  90.0699936 115.2099870  92.9569304
  90.7499444 114.3581872  92.9712333  89.4070362 115.5706861  91.7511366
  89.6062542 115.0176622  90.8332168  87.4842977 117.9770983  88.2574799
  86.2281727 118.1547945  88.2803505  88.1532793 117.8014985  87.1260642
  89.1471708 117.9801259  87.1067972  87.5097834 117.4062239  85.9069263
  86.7280679 118.1300093  85.6763730  88.4684842 117.3333405  84.7269917
  89.2616760 116.7416024  85.1839295  88.0717125 116.8018647  83.8620028
  89.0280918 118.6729096  84.2843135  88.9880404 119.3650149  85.1254359
  90.4901775 118.5289224  83.8053795  90.5309724 117.8372767  82.9639159
  90.8684370 119.5024484  83.4935019  91.1039261 118.1453297  84.6204069
  88.0053265 119.2890690  83.3008178  87.0483230 119.4201409  83.8058563
  88.3693642 120.2570241  82.9563752  87.8766003 118.6248207  82.4462402
  86.8879396 116.0590290  86.2094457  87.4912538 115.1567302  86.7770784
  85.7632345 115.8200219  85.5932598  85.2682613 116.6345608  85.2591531
  85.1584457 114.4734435  85.3503539  85.8158280 113.6678577  85.6774306
  83.8235049 114.4232439  86.2151203  83.2099227 115.1165489  85.6398428
  83.4243379 113.4141949  86.1122321  83.8064832 114.8217015  87.6587743
  84.1056073 115.8656638  87.7524138  82.3958783 114.6446057  88.2170080
  82.0962155 113.6007307  88.1241318  82.3813899 114.9341257  89.2677549
  81.7019115 115.2723956  87.6580892  84.8078049 114.0847946  88.4289646
  85.7997378 114.2895581  88.0261737  84.7678905 114.3986394  89.4720416
  84.6031388 113.0161843  88.3635215  84.8256490 114.2355477  83.8432646
  84.3912727 115.2016439  83.1660378  84.7922480 112.9501723  83.4732044
  84.7156143 112.2660580  84.2122675  84.8593422 112.4653460  82.0662681
  84.7019773 113.3062123  81.3907835  85.8430841 112.0327472  81.8840328
  83.7736604 111.3865292  81.7926621  83.5438232 110.4656785  82.5830404
  83.1136802 111.4497091  80.6346536  83.4915174 112.0886475  79.9497477
  81.7855054 110.8141117  80.3565952  81.5764975 110.0800202  81.1347498
  80.5648929 111.9069043  80.3262082  80.4943048 112.4034276  81.2939794
  80.9748179 112.6002006  79.5917685  79.1290036 111.4439890  79.8673613
  78.1831877 112.2177102  80.2051199  78.8707935 110.4807036  79.1143860
  81.8100800 109.8876999  79.1033968  82.3412807 110.3285268  78.0542036
  81.1371195 108.7534075  79.1336946  80.7637847 108.4845685  80.0328309
  81.0582315 107.7644584  78.0049695  82.0511977 107.4039895  77.7363069
  80.2047009 106.5623638  78.4657580  80.6279692 106.2293286  79.4134029
  79.1979773 106.9454203  78.6327170  80.1462277 105.3763068  77.4849407
  79.4728691 104.6729233  77.9747781  79.6562567 105.7956388  76.6061965
  81.6340506 104.5110281  76.9744756  80.9875692 103.5590924  75.5963239
  80.5892577 104.2366810  74.8411282  81.7874096 102.9602054  75.1607894
  80.1929941 102.9016367  75.9491747  80.6446753 108.3312122  76.6694432
  81.2355635 108.0228444  75.6742923  79.7534927 109.2975816  76.6481143
  79.2806253 109.4932538  77.5188658  79.3241145 110.0475530  75.4211329
  79.0621255 109.3549750  74.6212599  78.0717985 110.9064962  75.7656663
  77.3517247 110.2066004  76.1896225  78.4031101 111.5992566  76.5392396
  77.3688084 111.7416420  74.5530335  76.4835020 112.2898283  74.8752526
  78.1451654 112.4475139  74.2578828  77.0099980 110.8480073  73.3590430
  76.5601165 109.6681284  73.5050240  77.0163413 111.2163808  72.1601462
  80.3727244 110.8974997  74.7810933  80.3029816 111.3621999  73.5728125
  81.4747990 111.2341303  75.4910156  81.5319426 110.9326521  76.4532759
  82.6092177 112.0262902  74.9286326  83.5498726 111.7218230  75.3875088
  82.6708200 111.8885271  73.8491301  82.3557319 113.5638908  75.2400976
  82.1988925 114.3406532  74.3160004  82.4232882 113.9306911  76.5182934
  82.5570725 113.1877919  77.1893388  82.2290963 115.2807008  77.0156640
  82.8415751 115.9491851  76.4106039  80.7585796 115.7789633  76.9717558
  80.7853981 116.8171224  77.3028233  80.4615819 115.7399193  75.9237253
  79.7577557 115.0074954  77.8093392  80.1141204 113.9777262  77.8354273
  79.8078874 115.4342563  78.8110697  78.2864841 115.0337341  77.3083677
  77.8670880 116.0383333  77.3630145  78.2092582 114.6634447  76.2861048
  77.5056761 114.1463810  78.1931600  78.0300737 113.6127938  78.8716813
  76.2219890 113.9908769  78.1438859  75.5349780 114.7564212  77.3668611
  76.0029772 115.4595722  76.8130962  74.5319735 114.6494349  77.3155238
  75.5985247 113.0979991  78.8763056  76.1252755 112.5064533  79.5029692
  74.5948686 113.0065546  78.8098906  82.8112119 115.3533314  78.4776586
  82.9288123 114.3305963  79.2205744  83.2782295 116.5374888  78.8336288
  83.2043441 117.3456972  78.2324304  83.8585191 116.7234204  80.2140847
  83.9881438 115.7586785  80.7045637  85.2690708 117.4239490  80.0977335
  85.1082162 118.3447660  79.5370900  85.6559352 117.6649051  81.0878729
  86.2918680 116.5338214  79.3462631  85.9694290 116.3808108  78.3163497
  87.6570551 117.2514311  79.3559764  87.9803900 117.4043883  80.3856159
  88.3925262 116.6413747  78.8315586  87.5644279 118.2164031  78.8576295
  86.5116111 115.1403770  79.8384488  85.5734010 114.5871786  79.7956377
  87.2533909 114.6457445  79.2113901  86.8685834 115.1701679  80.8679061
  82.9618896 117.6890444  81.0227478  82.3004389 118.5957421  80.5351576
  82.9401964 117.4291599  82.3322906  83.4202994 116.5691821  82.5559838
  82.3904719 118.1862161  83.3937984  81.8716277 119.0593228  82.9980906
  81.3727419 117.3246991  84.1979403  81.9696262 116.4149839  84.1327742
  81.1292561 117.5249146  85.2413618  80.0963851 117.0421418  83.5132917
  78.8828369 117.4601904  84.0878316  78.9423666 118.1277578  84.9474302
  77.5935820 117.0419012  83.5854891  76.6998222 117.5119969  83.9957381
  77.4798743 116.0920645  82.6301300  76.5284641 115.6807140  82.2929220
  78.6753613 115.6385055  82.0679110  78.5890262 114.9240541  81.2492501
  79.9645451 116.0630049  82.5122412  80.8626514 115.6271195  82.0746239
  83.5277541 118.6334636  84.4181445  84.6546085 118.1092552  84.3551320
  83.2412823 119.6905379  85.2462616  82.4122996 120.2202653  85.0176225
  84.0683533 120.1316313  86.4274678  85.0032845 119.5731308  86.4730739
  84.3932223 121.6142847  86.2705094  84.6803037 121.8015180  85.2357982
  83.5022984 122.1945822  86.5105290  85.5102484 122.0184461  87.1781538
  85.5628602 123.0948681  87.0149097  85.0898057 121.8211531  88.1642600
  87.1489314 121.3337070  87.0937787  87.5212599 121.9641643  85.4476593
  87.4607055 123.0524695  85.4525583  88.5269682 121.6580371  85.1596705
  86.8016879 121.5639624  84.7334073  83.2407744 119.8477601  87.6779939
  82.1695336 120.4002176  87.8213251  83.7598780 118.9659810  88.5407952
  84.5016871 118.3373280  88.2676395  83.2228655 118.8622090  89.9166705
  82.1486458 119.0469528  89.9120957  83.4820303 117.4251230  90.4907730
  83.1075447 116.7010239  89.7672122  84.5450385 117.2529293  90.6594826
  82.7082803 117.2623515  91.8380065  83.0279142 118.0820066  92.4815129
  81.1909881 117.2740652  91.7179381  80.8705473 116.4543532  91.0749073
  80.7468649 117.1548845  92.7061947  80.8674354 118.2213590  91.2866046
  83.3139501 115.9100732  92.2540744  84.3950078 116.0100335  92.3511399
  82.8909407 115.6005646  93.2097777  83.0854719 115.1605223  91.4964002
  83.9449987 119.9623337  90.7023774  85.0601769 120.1943170  90.5630522
  83.2955896 120.6008305  91.7016709  82.4005775 120.2223322  91.9769738
  83.8006706 121.7576469  92.4135915  84.8688118 121.8830877  92.2362832
  83.0828126 122.9827440  91.9132338  82.0820960 122.9047280  92.3381797
  83.6032126 123.8281494  92.3633157  82.9783595 123.1964068  90.3849774
  82.9188179 122.1923333  89.9649869  81.8228014 124.0431733  89.8472758
  81.8819424 125.0475931  90.2664916  81.8876417 124.0991529  88.7606467
  80.8745045 123.5868128  90.1311218  84.2456151 123.8587366  89.9754980
  85.0895474 123.2160077  90.2260518  84.2320376 124.0370525  88.9002676
  84.3452692 124.8092175  90.4996680  83.5723190 121.6962436  93.8881905
  82.5158984 121.3020240  94.3085993  84.5018274 122.1553385  94.6800056
  85.4075844 122.3095939  94.2605906  84.3748678 122.2912744  96.1693654
  83.3362491 122.1717982  96.4777416  85.2222547 121.1885559  96.8482161
  86.2003565 121.2336847  96.3692803  85.3043256 121.5447280  97.8751075
  84.7209036 119.7419651  96.8486991  83.6478294 119.7324205  97.0398046
  85.0031501 119.0930012  95.4891904  86.0761397 119.1017605  95.2975781
  84.6441521 118.0638373  95.4957375  84.4901712 119.6512223  94.7060287
  85.4790398 118.9255000  97.9223286  85.3068067 119.3668752  98.9039716
  85.1187501 117.8967726  97.9187943  86.5464017 118.9368648  97.7016286
  84.6624979 123.7297106  96.6584086  85.7385936 124.2822250  96.3559686
  83.7225904 124.3602987  97.2989080  82.8375700 123.8960562  97.4449120
  83.8782383 125.7583545  97.7954428  84.7398910 126.2010576  97.2957751
  82.6548028 126.6469895  97.5417987  82.4605238 126.5408873  96.4745137
  81.8530719 126.1701588  98.1056781  82.7198888 128.1680809  97.9117485
  81.6915593 128.4922837  98.0715355  83.2936993 128.3175454  98.8263528
  83.3577988 129.0076618  96.7521090  83.0174806 130.1662536  96.5953364
  84.1322349 128.4124274  96.0435776  84.1718354 125.8466435  99.3137658
  83.2927111 125.5974877 100.1638122  85.3227103 126.4513545  99.7168113
  86.0349955 126.5775420  99.0119525  85.6658512 126.7242627 101.0946986
  85.3237702 125.8871852 101.7032880  87.1940531 126.9202148 101.3311021
  87.3095693 127.0742490 102.4039622  87.6601188 125.9764854 101.0478041
  87.8393454 128.0203306 100.6073951  87.9075811 127.7571754  99.5518412
  87.2339399 128.9198912 100.7186471  89.2968475 128.2887701 101.1813681
  89.2067060 128.4403526 102.2570056  89.8975773 127.3997557 100.9893352
  89.9983617 129.5522275 100.5265496  91.0618367 129.5011330 100.7600250
  89.8603561 129.4878516  99.4472399  89.4355216 130.8603313 101.0284355
  89.5636871 130.9203721 102.0284697  89.9162247 131.6275212 100.5807256
  88.4501814 130.9080624 100.8118126  84.7604967 127.8833646 101.6717928
  84.4545566 128.8709733 100.9702689  84.5293707 127.7166679 102.9902233
  84.5323878 126.7602048 103.3146746  84.0213377 128.7940149 103.9309309
  84.1334071 129.7464409 103.4128341  82.6234216 128.6612109 104.3743986
  82.1385375 128.5489073 103.4046695  82.6833655 127.6895877 104.8647609
  81.7929251 129.6398340 105.2602527  80.7449233 129.3405885 105.2445917
  82.1984686 129.4887540 106.2606569  81.9080653 131.1373794 104.8771592
  80.9298213 131.8769231 105.0189604  82.9920023 131.6328471 104.4901367
  85.0710646 128.9871262 105.0443268  85.6191723 127.9753603 105.5271174
  85.4588884 130.2025643 105.4012260  85.1348773 130.9912107 104.8597900
  86.4000925 130.4495138 106.4872494  86.9164643 129.5176857 106.7178047
  87.4412177 131.5118634 106.1423470  86.9444515 132.3172183 105.6013055
  87.8560826 131.9012905 107.0720425  88.5578197 130.9449876 105.2899118
  89.1441565 130.2734548 105.9170909  88.0352177 130.3662696 104.5282873
  89.4913292 131.9566577 104.6121304  89.5611443 133.1471884 105.0398751
  90.1932226 131.5091612 103.6653847  85.6114496 130.8458977 107.7987581
  85.0441064 131.9351690 107.8932706  85.5564250 129.9333007 108.7924869
  85.9790660 129.0517353 108.5388804  84.8021588 130.0102049 110.0652026
  83.7529631 130.1423976 109.8009819  84.9192455 128.8382528 110.9792092
  85.9642962 128.5890691 111.1632626  84.4197316 129.0315871 111.9285288
  84.2193510 127.6442414 110.2570296  83.2084121 127.9535729 109.9916667
  84.8144148 127.5329479 109.3505999  84.1461280 126.2839623 110.9661138
  84.8538506 125.9784839 111.8713119  83.1912848 125.4878029 110.5610539
  83.0842223 124.5767881 110.9837728  82.5652476 125.7875519 109.8273446
  85.1201117 131.3916449 110.7429279  86.1649038 132.0181079 110.4951567
  84.3521546 131.7423109 111.7554417  83.4237035 131.3501405 111.8208657
  84.7156237 132.8094671 112.6728231  84.6730981 133.7621313 112.1448822
  83.7732366 132.8756858 113.8790531  82.8712626 132.3511467 113.5637740
  84.2718319 132.3024622 114.6606652  83.3924927 134.2724998 114.4272045
  84.3345729 134.7674832 114.6629528  82.9050607 134.7936814 113.6032617
  82.3010897 134.3201329 115.9006737  82.3237827 136.1257511 116.1194138
  81.9252931 136.6055901 115.2255125  81.7114023 136.3957612 116.9797541
  83.3482734 136.4594459 116.2842401  86.1667444 132.8673933 113.1333569
  86.7764371 133.9561999 113.0001502  86.8016237 131.8327132 113.5446028
  86.2182313 131.0156884 113.6551610  88.2151473 131.7411415 113.9480153
  88.5664604 132.6895873 114.3543759  88.3324365 130.6777639 115.0264741
  89.3608853 130.7497734 115.3803200  87.6544753 131.0142214 115.8108624
  88.0206953 129.2409652 114.6734345  87.3857825 129.0164368 113.6401840
  88.4075086 128.2576680 115.4177946  89.2663802 131.4729377 112.8291444
  90.4155443 131.1111889 113.1482460  88.8649384 131.5012565 111.5216011
  87.9025194 131.6906125 111.2807827  89.8321382 131.2545295 110.4191982
  89.5505502 131.8728057 109.5668239  90.8270134 131.5396406 110.7613010
  89.8560883 129.8196253 109.9933795  90.6309806 129.4493615 109.1275552
  89.1355750 128.8935697 110.6484510  88.5126187 129.2375685 111.3651723
  89.1413541 127.4392399 110.3610969  90.1715201 127.0916471 110.2834027
  88.4299103 126.6427238 111.5040272  87.3535428 126.8145120 111.4993290
  88.7102733 125.1762834 111.2125582  89.7864988 125.0036176 111.2175498
  88.2399310 124.5571011 111.9764237  88.3055705 124.9158645 110.2345509
  88.9305065 126.9853697 112.7667648  88.4720300 126.4786331 113.4410182
  88.3466618 127.1639188 109.0902403  87.1611870 127.6111034 108.8894783
  88.9341137 126.3644431 108.1597372  89.8182558 125.9573967 108.4293767
  88.4054670 126.0652420 106.8050501  88.0976972 127.0571940 106.4742812
  89.5047294 125.5171056 105.8058116  89.9299461 124.5985243 106.2101609
  88.8803595 125.2315024 104.4446301  88.4553092 126.1497777 104.0394096
  89.6451422 124.8550572 103.7652944  88.0935832 124.4851835 104.5545977
  90.4706597 126.6449391 105.4885243  90.9426444 126.9894355 106.4086627
  91.2360603 126.2857514 104.8005957  89.9276389 127.4703847 105.0282322
  87.2932678 125.0149436 106.9662998  87.4930460 123.9761106 107.5579752
  86.1155434 125.2295077 106.4052149  85.9637453 126.1414707 105.9985454
  85.0907877 124.2702142 106.2944008  85.4147312 123.2632778 106.5575338
  83.9176621 124.7166101 107.3097982  84.4193748 125.0000221 108.2350346
  83.0168695 125.8484488 106.8567037  82.5144243 125.5655703 105.9317020
  82.2723980 126.0514270 107.6265486  83.6151314 126.7433804 106.6855874
  83.1107433 123.6186804 107.5735868  82.4094818 123.8746104 108.1771864
  84.5490750 124.3058642 104.8383975  84.8733326 125.1908526 104.0515802
  83.6593378 123.3483713 104.4695276  83.4643464 122.6455466 105.1681800
  83.0661933 123.1731257 103.0941272  83.6191418 123.7820016 102.3788530
  83.1339716 121.7263536 102.6523322  84.1737067 121.3995509 102.6681454
  82.5767182 121.2010748 103.4279938  82.5054966 121.4054040 101.2476218
  81.4263082 121.5191562 101.3501579  83.0041838 122.2925332 100.1117562
  84.0833028 122.1789620 100.0083019  82.5177164 122.0000503  99.1812166
  82.7684594 123.3335351 100.3327753  82.8889896 120.0222093 100.8024896
  82.5262441 119.2931487 101.5270486  82.4450771 119.8173311  99.8282884
  83.9741938 119.9514787 100.7288151  81.6705261 123.7237267 102.9473394
  80.7178241 123.2430101 103.5449082  81.4992694 124.8482325 102.2122810
  82.3409231 125.1703810 101.7562781  80.2610029 125.6056745 102.0020125
  79.7683970 125.7634360 102.9614654  80.5469008 127.0156187 101.3424234
  81.4924714 127.4128130 101.7115199  80.5941750 126.9150375 100.2581039
  79.3997829 127.9813282 101.7206663  78.5676554 127.7209836 101.0665369
  79.1399237 127.7407800 102.7515454  79.6885566 129.4707917 101.6050931
  78.7674123 129.9583232 101.9243193  80.4722283 129.6599512 102.3386984
  80.0980755 130.0053959 100.3052121  81.1557970 129.7841453 100.1624740
  79.5152767 129.5059850  99.5312396  79.8841226 131.4661595 100.2175552
  80.4244071 131.9291466 100.9343783  80.1778465 131.7955021  99.3090621
  78.9040105 131.6713544 100.3493670  79.3964431 124.8065675 101.0706038
  78.2590956 124.5475681 101.3406219  79.8796836 124.3139416  99.9362302
  80.8854645 124.2660449  99.8574266  79.0832641 123.8310714  98.8338413
  78.2320366 123.2394055  99.1706536  78.5410279 125.1244385  98.0973181
  78.4451653 125.8652988  98.8910659  79.3430374 125.4193936  97.4206480
  77.2281684 125.0364781  97.3223280  76.9365389 126.0072538  96.5905078
  76.5422098 124.0211913  97.4764955  79.8790599 122.9521171  97.7673606
  80.9826415 123.3266546  97.4368710  79.2252179 121.9056698  97.2843566
  78.2753883 121.7869480  97.6065802  79.7493522 120.9547703  96.3606129
  80.8138805 121.1297173  96.2048173  79.5582498 119.5119504  96.9228624
  80.2498336 119.5354892  97.7650363  78.5356158 119.4489585  97.2948191
  79.8507598 118.3261003  96.0747125  79.3789514 118.4283018  95.0974446
  81.3680873 118.2536210  95.9025780  81.8406005 118.1509397  96.8794539
  81.6233964 117.3933492  95.2838288  81.7236392 119.1648249  95.4215473
  79.2502412 117.0346617  96.6611499  78.1679701 117.1389109  96.7380976
  79.4883389 116.1940434  96.0094049  79.6688338 116.8558046  97.6515484
  78.9481057 121.1614323  95.0759605  77.7099859 121.1262517  95.2256786
  79.5059403 121.4567594  93.8841859  80.5138562 121.5154725  93.9117115
  78.8022826 121.7962785  92.5872281  77.7500188 121.5200077  92.6544187
  78.8969573 123.3015595  92.3034841  79.9472698 123.5853434  92.2370787
  78.4024780 123.5164525  91.3561662  78.2139934 124.1098459  93.4379352
  77.1602696 123.8344443  93.4817623  78.6934184 123.8621785  94.3849910
  78.3400637 125.6428202  93.1768718  78.2148079 125.8461488  92.1133552
  77.5746437 126.1759463  93.7407940  79.6787682 126.1381800  93.6030772
  80.1829183 125.5364949  94.2386140  80.2913815 127.2693667  93.1550922
  79.6262943 128.1504972  92.5423816  78.6379465 128.0143637  92.3851042
  80.0858319 128.9872155  92.2124918  81.4882912 127.5483537  93.3703141
  82.0627540 126.9144366  93.9071955  81.8768539 128.4067420  93.0066009
  79.3222948 120.9755000  91.4010982  80.4870344 120.5633663  91.4667362
  78.5671818 120.6998171  90.3635876  77.5708550 120.8339453  90.4607576
  79.0789824 120.0803108  89.1039995  80.1557948 120.2115517  88.9974633
  78.7578148 118.5396278  89.1052215  79.2392178 118.0869481  89.9720729
  77.2230398 118.2766386  89.1674813  76.7409723 118.7286563  88.3006526
  77.0376127 117.2025265  89.1667215  76.8155211 118.7145280  90.0786799
  79.3200380 117.8329340  87.8740923  80.4031198 117.9528784  87.8486145
  79.0734377 116.7721522  87.9191465  78.8855007 118.2685472  86.9743594
  78.5312166 120.8277923  87.8407664  77.3520940 121.1067702  87.6515011
  79.4512939 120.9956912  86.8733736  80.4057783 120.6800192  86.9703789
  79.1006349 121.7983081  85.6973012  78.0135428 121.8538746  85.6403603
  79.6625550 123.2217417  85.7205699  80.7393588 123.1470736  85.5688550
  79.2149146 123.7600461  84.8851379  79.3926555 123.9483119  86.9737403
  79.7694714 123.4150880  87.8465420  79.9447959 124.8801432  86.8515497
  77.8960711 124.2602036  87.1692719  77.3985711 124.5075251  88.2767482
  77.1564932 124.3686959  86.1543892  79.4579051 121.1201620  84.3596059
  80.3029457 120.2238470  84.3803889  78.7722231 121.4096800  83.1849705
  77.9313482 121.9652057  83.2514534  79.0938876 120.7645110  81.8749472
  79.7655820 119.9231956  82.0455764  77.8333374 120.2498989  81.1705059
  77.5376290 119.4002721  81.7859651  77.0778801 121.0321159  81.2448077
  77.9641724 119.7972967  79.6945426  78.4018015 120.6200532  79.1291636
  78.8621731 118.5128229  79.5322904  78.4249031 117.6894549  80.0970548
  78.9197143 118.2398256  78.4786005  79.8640121 118.7193410  79.9088131
  76.6296202 119.5370207  79.0834389  76.0318922 120.4480282  79.1132045
  76.7588066 119.2215068  78.0481307  76.1209565 118.7509443  79.6415107
  79.9999196 121.7089928  81.0525190  79.6326580 122.8501409  80.8192037
  81.1408441 121.2304241  80.5444705  81.4260337 120.2876432  80.7679219
  82.0367068 122.0539381  79.6925570  81.9326583 123.1256734  79.8618395
  83.4722776 121.6071372  80.1625138  83.7539708 120.7213847  79.5931364
  84.0942354 122.4482627  79.8562845  83.6787236 121.3357939  81.6762310
  82.9163654 120.6118556  81.9640230  85.0590254 120.8077732  82.0736780
  85.8219193 121.5314305  81.7866034  85.0928566 120.6534561  83.1521688
  85.2468200 119.8618145  81.5657451  83.5525991 122.6757749  82.3708508
  82.5637331 123.0927855  82.1802055  83.6898861 122.5436232  83.4440653
  84.3132804 123.3566338  81.9888900  81.9907570 122.0090467  78.1490654
  82.0112100 123.0258392  77.5007379  81.7884333 120.8303839  77.5758880
  81.7637612 119.9998563  78.1500958  81.5986978 120.6826771  76.1402651
  80.5410040 120.8225090  75.9170390  82.1810472 121.4534254  75.6353733
  82.0344810 119.3229395  75.6319387  82.6312697 118.5277780  76.4276921
  81.8741884 118.9940941  74.3737782  81.4082836 119.6944694  73.8147554
  82.2586124 117.6975507  73.7167953  81.9007246 116.8566158  74.3108021
  81.6521225 117.6156103  72.3656033  81.8321718 116.5696543  72.1172939
  80.5969325 117.7564737  72.5997650  82.0295799 118.4913463  71.1777808
  81.7458969 119.5054846  71.4591137  83.1119272 118.4365283  71.0610825
  81.3425739 118.1149652  69.8308153  80.6684570 117.0665874  69.6963485
  81.4923377 118.8968024  68.8155604  83.7847101 117.4507363  73.5746669
  84.5534348 118.3949924  73.2519663  84.2265387 116.1944300  73.8171104
  83.5336583 115.5674902  74.2004675  85.6269142 115.6478452  73.5464455
  86.2243121 116.1010352  72.7553489  86.4460256 115.7140861  74.9002128
  87.3901157 115.2394661  74.6327617  86.7281987 117.0444165  75.6319808
  85.7845166 117.5194251  75.9001794  87.3049206 116.8473727  76.5356758
  87.2946038 117.7067600  74.9773153  85.9103272 114.7753639  75.8280920
  86.4077097 114.8165592  76.6481615  85.5298318 114.1747471  73.0858654
  84.4511001 113.7189410  72.8286442  86.6209359 113.4516576  72.9937117
  87.4710471 113.9956692  73.0319444  86.7299421 112.0097213  72.7798529
  86.0512680 111.7455255  71.9688651  88.1497312 111.5087720  72.4197592
  88.5278623 112.1941534  71.6612287  88.7441028 111.6089529  73.3279366
  88.2408034 110.1683119  71.9372930  89.1577565 109.9590979  71.7448707
  86.2524499 111.1736108  73.9745221  86.0236094 111.6800228  75.1203680
  85.9776418 109.8894881  73.7065941  86.0379101 109.5675037  72.7511921
  85.4656306 108.9524682  74.7320542  84.7000137 109.4577597  75.3207905
  84.8614221 107.7293813  74.0574961  85.5942989 107.2405881  73.4155668
  84.4354096 106.7609297  75.1817402  83.7021423 107.2488898  75.8238575
  83.9948498 105.8655796  74.7431561  85.3080210 106.4835708  75.7731120
  83.5953614 108.0299691  73.1728333  82.7962016 108.2969168  73.8643413
  83.8493361 108.8951776  72.5604521  83.1208381 106.8698958  72.2572939
  82.8662256 106.0044262  72.8690412  82.2432198 107.1867491  71.6938320
  83.9193616 106.6026854  71.5651532  86.5446410 108.5983048  75.7498366
  87.4901287 107.8510813  75.4531482  86.5073299 109.0829827  77.0181982
  85.6422647 109.4511243  77.3872961  87.6916616 109.1727291  77.8346661
  88.5891533 109.3835328  77.2531425  87.4360528 110.3754595  78.8198939
  86.5455662 110.1748674  79.4156258  88.2952030 110.4938445  79.4801561
  87.2903085 111.2908893  78.2464430  87.9621671 107.8148880  78.5317997
  87.3000286 107.4076082  79.4799736  88.9444586 107.0304565  78.0505008
  89.2293860 107.2519111  77.1071697  89.6315206 105.9217690  78.7486978
  88.8938884 105.1754295  79.0436135  90.6609252 105.2609699  77.8774202
  90.2531871 105.2091960  76.8678815  91.5481388 105.8941769  77.8783446
  91.0353680 103.8644182  78.3442615  91.8838485 103.5170354  77.7547643
  91.3452645 104.0017845  79.3802121  89.9016226 102.8172629  78.2808874
  89.9131628 101.8877823  79.1332052  88.9356764 102.8890909  77.4392505
  90.3676783 106.4206042  80.0031479  90.5657909 105.6897878  80.9900663
  90.7557455 107.6829885  79.8774862  90.5984028 108.1225528  78.9818714
  91.5908957 108.3683205  80.8410868  91.0889484 108.4450828  81.8055844
  92.8877922 107.5527842  81.0237587  93.6352979 108.1362137  81.5612943
  92.6872284 106.6301431  81.5683756  93.6565256 107.0616043  79.4792428
  94.6813615 106.4190685  80.0321962  91.7201577 109.8607993  80.5321075
  91.2177411 110.3245794  79.5215955  92.1974922 110.6127239  81.5367852
  92.7319133 110.1941199  82.2846248  92.0006159 112.0484465  81.5531972
  92.1477728 112.5058722  80.5748283  90.5352119 112.2246894  81.9602594
  89.9666313 111.8584602  81.1054545  90.4377451 111.5227722  82.7884577
  90.0118917 113.5470463  82.3705046  90.6122154 113.9482872  83.1870326
  90.0862911 114.4794600  81.1867418  89.4857957 114.0790914  80.3699131
  89.7042215 115.4598628  81.4712308  91.1226846 114.5740231  80.8626325
  88.5770464 113.5705792  82.8141017  88.4511575 112.9124610  83.6738294
  88.2986176 114.5872325  83.0915809  87.9386425 113.2291452  81.9992629
  92.9317897 112.6180692  82.6071683  93.1968303 112.0003499  83.6431038
  93.6202778 113.6887641  82.2604195  93.4511063 114.0044906  81.3160694
  94.6382370 114.4533018  83.1096116  94.4113215 114.5785420  84.1683483
  95.9908006 113.8069004  82.9809772  95.8341096 112.8135754  83.4015169
  96.7034679 113.6793830  81.5961239  96.8609270 114.6724006  81.1751461
  97.6655064 113.1837589  81.7262687  96.0817746 113.0929184  80.9196202
  96.7993221 114.3856105  83.8793115  97.6737361 113.9935132  83.8222135
  94.7238398 115.9283272  82.6794289  94.6128090 116.1894582  81.4916390
  94.9204223 116.8498763  83.6262111  95.0619543 116.4619461  84.5479367
  95.0489661 118.2777404  83.4575257  94.5351080 118.5977269  82.5510724
  94.4140237 119.0051075  84.6697201  93.3380176 118.8335320  84.6401915
  94.8161928 118.6261910  85.6092852  94.6967960 120.5207470  84.5626794
  95.4903201 121.2569683  85.4946486  95.8325871 120.7601254  86.4024481
  95.8243634 122.5732221  85.2619472  96.4547876 123.1159381  85.9663097
  95.3211197 123.2306506  84.1050637  95.6809962 124.5199525  83.8227312
  96.2810971 124.8927904  84.4727085  94.4883170 122.5788762  83.2450313
  94.1052941 123.0732907  82.3523117  94.1255286 121.2532880  83.5224831
  93.3697392 120.7563812  82.9142348  96.5422938 118.5529589  83.5073265
  97.3005047 118.1170350  84.4273545  97.0741672 119.3644485  82.5708307
  96.4815774 119.5483544  81.7738895  98.4723622 119.8159980  82.5187187
  99.0404999 119.2064065  83.2213686  99.1502542 119.7154775  81.1042876
  98.3587455 120.0747548  80.4466152 100.0432840 120.3243868  80.9634791
  99.4732179 118.2400468  80.7642969  99.9657593 117.7824789  81.6222802
  98.1540422 117.4361363  80.4233915  97.6611553 117.8928672  79.5651618
  98.4083073 116.4026395  80.1881590  97.4824543 117.4582185  81.2816354
 100.5899311 118.2150471  79.6713117 101.4822261 118.7125166  80.0513553
 100.8298205 117.1819480  79.4197952 100.2377329 118.7332160  78.7793720
  98.5449204 121.1970767  83.1830536  98.2855911 121.3337448  84.3959885
  98.8009846 122.2225204  82.4220429  98.9633673 122.0764926  81.4359358
  98.8075306 123.6093220  82.9358965  98.2642602 123.7412717  83.8716025
 100.3127218 123.8235744  83.2048670 100.6814888 123.0351669  83.8610100
 100.8456580 123.7838251  82.2548675 100.5462173 125.1894920  83.8654167
  99.5323519 125.7346815  84.5041047 101.6389350 125.8033424  83.8393616
  98.2924024 124.5634269  81.8227151  98.2408990 124.1396084  80.6670926
  97.9298284 125.8234677  82.1364908  97.9687059 126.0083090  83.1286710
  97.4929216 126.9138175  81.2362737  97.1235181 127.7520312  81.8270680
  98.6644721 127.4038997  80.3657733  98.8976512 126.6027859  79.6643866
  98.3104922 128.2759331  79.8159041  99.9399867 127.7837382  81.1142393
  99.9769943 128.7272587  81.9150143 101.0307962 127.1061258  80.9167018
 101.8744547 127.3574655  81.4118466 101.0299720 126.3312147  80.2689265
  96.3435247 126.2734064  80.3603664  96.3370655 126.4482001  79.1296270
  95.3418844 125.6205575  80.9221929  95.5328708 125.4428489  81.8979199
  94.0507531 125.1390839  80.3561698  93.3568148 125.0021449  81.1855049
  93.6719781 125.9146030  79.6904379  94.1647164 123.7988838  79.5622523
  93.2170332 123.2044097  79.1692243  95.3651718 123.2832954  79.4713544
  96.1161669 123.7615065  79.9482399  95.7040365 122.1848262  78.5765482
  95.0065141 122.1181725  77.7416117  97.1038769 122.3212626  78.0262483
  97.7943621 122.4504589  78.8596977  97.5084064 121.0732928  77.2118890
  96.8186045 120.9436985  76.3779348  98.5208158 121.2012556  76.8288050
  97.4717659 120.1927119  77.8532440  97.3107081 123.5498877  77.1580068
  97.1069717 124.4470239  77.7425923  98.3407121 123.5748055  76.8022395
  96.6331047 123.5109569  76.3051065  95.3581666 120.9444768  79.3626876
  95.7934608 120.7924493  80.5029103  94.6072974 120.0561380  78.6840834
  94.3753722 120.3146601  77.7356761  94.1151837 118.7617301  79.1971891
  94.6300542 118.3971103  80.0860423  92.5898782 118.8665812  79.5120450
  92.1076684 119.3289072  78.6507508  91.9112880 117.4625688  79.8073794
  92.3926944 116.9998099  80.6688915  90.8517937 117.6077170  80.0183403
  92.0226734 116.8145608  78.9380231  92.3671075 119.8452485  80.6441416
  92.7439390 120.8266568  80.3561520  91.3010347 119.9150508  80.8602806
  92.8956312 119.5001140  81.5327617  94.3868883 117.7769355  78.0574816
  94.1532192 117.9708398  76.8316864  94.7299039 116.5989068  78.4485339
  95.0150841 116.5070594  79.4130730  94.7745568 115.3801420  77.5743758
  94.7007297 115.6877593  76.5312937  96.0865794 114.5786070  77.7623547
  96.8598389 115.3247716  77.5795777  96.1998886 114.1779348  78.7696893
  96.3511476 113.4501144  76.8216070  96.6074498 113.7077063  75.4682303
  96.6808319 114.7516130  75.1633143  96.7668979 112.6943379  74.5263864
  96.9427336 112.9145657  73.4734467  96.6962499 111.3610798  74.9627634
  96.8482300 110.5410014  74.2609989  96.4334591 111.0942993  76.2844468
  96.4000957 110.0441132  76.5744401  96.2131896 112.0956456  77.2450050
  95.9485095 111.8222719  78.2664310  93.6260860 114.4388808  77.8128802
  93.2758657 114.0734396  78.9615574  92.9405013 113.9759065  76.7611647
  93.2434030 114.2436866  75.8356142  91.7630886 113.0498942  76.8855339
  91.6156028 112.7680275  77.9280781  90.4281374 113.6220436  76.3320998
  90.4918574 113.5969735  75.2442531  89.1491850 112.8267075  76.8020981
  89.0845296 112.8517287  77.8898915  88.2577337 113.2860515  76.3749938
  89.2204404 111.7920806  76.4665812  90.1721519 115.1116133  76.6720742
  90.9730814 115.7226598  76.2558577  89.2187846 115.4235269  76.2455766
  90.1442247 115.2382105  77.7543376  91.9758121 111.7568938  76.0999612
  91.6809489 111.5377167  74.9207601  92.7333619 110.8845690  76.7428398
  93.0805678 111.1910917  77.6403871  93.1017361 109.5476491  76.2763750
  93.6940464 109.6731752  75.3700026  93.7176160 109.0927449  77.0521672
  91.9318943 108.6347898  75.9777848  90.9030106 108.6682928  76.6385956
  92.0224234 107.8547690  74.9280333  92.9042591 107.8945937  74.4372391
  90.9023638 107.1026233  74.3045556  90.2114362 106.7909583  75.0878710
  90.1477921 107.9196073  73.2966530  90.0391996 108.9503769  73.6340265
  90.6503120 107.9054353  72.3295062  88.8734015 107.3293562  73.1724549
  88.3532434 107.8224597  72.5337967  91.3017523 105.7152408  73.7644929
  92.3317341 105.5570952  73.1175390  90.4128683 104.7620141  73.9717151
  89.6676820 104.9475657  74.6277390  90.4583836 103.4228560  73.3121024
  91.3904582 103.2708091  72.7678433  90.3728781 102.3847701  74.4366113
  91.2051298 102.5849830  75.1114232  89.4322862 102.5641510  74.9573892
  90.4306863 100.9117852  73.9704754  89.6427944 100.8004587  73.2255368
  91.4021906 100.7849350  73.4927826  90.2574487  99.8607846  75.0499255
  89.8661060  98.9711291  74.5565058  91.2530594  99.6506289  75.4406855
  89.3729880 100.2038851  76.1736449  89.1443890 101.1857008  76.2359337
  88.6990482  99.3443388  76.9373093  88.8660383  98.0733223  76.8025600
  89.5139143  97.7226460  76.1116310  88.3482149  97.4341178  77.3885430
  88.0610005  99.7961616  77.9721800  88.0829508 100.7835161  78.1837206
  87.5451973  99.1585228  78.5616394  89.3522238 103.2491455  72.3526478
  89.5919370 102.5680141  71.3816300  88.1937929 103.8662831  72.5367268
  88.0320011 104.3969118  73.3807386  87.0821973 103.7422772  71.5586738
  87.1778912 102.8089030  71.0039176  85.7133454 103.7435823  72.2967820
  85.7134576 104.5978493  72.9737806  85.0049913 103.9218963  71.4877464
  85.3068983 102.4938943  73.0590009  84.8784472 101.8116980  72.3247402
  86.4418176 101.7813687  73.8210536  86.8704821 102.4628359  74.5558652
  86.0434174 100.9033905  74.3295145  87.2151613 101.4733592  73.1173704
  84.2902383 102.8278273  74.1766950  83.3978459 103.2721955  73.7359319
  84.0174976 101.9143967  74.7052387  84.7381950 103.5324544  74.8773621
  87.0773270 104.8659760  70.4500597  86.1781771 104.8180391  69.5806268
  88.0703992 105.7806064  70.4639441  88.6335246 105.8534762  71.2992160
  88.3735954 106.6625027  69.3496152  88.0513706 106.1311480  68.4541083
  87.7504367 107.5454690  69.4915415  89.7994591 107.0943748  69.1744575
  90.6812221 106.7160789  69.9189211  89.9818146 108.1285440  68.4433615
  89.2634839 108.3687901  67.7752431  91.2073860 108.9727490  68.4964811
  92.1052061 108.3685631  68.3661828  91.1298979 109.9943978  67.3451417
  90.1100632 110.3702090  67.4276184  91.8320886 110.8131630  67.5021505
  91.3441081 109.3973656  65.9441822  91.4269018 110.2195267  64.9655605
  91.3550164 108.1874754  65.6374124  91.3115883 109.6858472  69.8841705
  90.3562809 110.3135015  70.2848049  92.4638047 109.6880486  70.5888106
  93.2246827 109.0896419  70.3005860  92.6792587 110.5935817  71.7503610
  91.8437137 110.4693821  72.4392284  93.9762809 110.3218569  72.5037938
  94.8342329 110.5456579  71.8698138  94.0228315 110.9318662  73.4059145
  93.9975779 108.9362912  72.8634047  94.8077787 108.7418860  73.3402497
  92.8123047 112.0983446  71.3277164  93.3677792 112.3204509  70.2979670
  92.4306376 113.0914166  72.1592344  91.9576896 112.8786818  73.0259312
  92.6819272 114.4593256  71.8442861  93.1212001 114.5349198  70.8495881
  91.3252768 115.2939990  71.8664172  90.9675623 115.2356443  72.8943930
  91.6144913 116.3203856  71.6406172  90.1934313 114.8502726  70.8984984
  90.4163549 115.0782659  69.8561813  90.0375629 113.7772370  71.0098610
  88.9157590 115.5689010  71.2894085  88.4213219 115.3946729  72.3881949
  88.3210332 116.4246782  70.5068642  87.4716213 116.8779090  70.8121226
  88.7123257 116.6306583  69.5988093  93.6285813 115.0364115  72.8589423
  93.7157950 114.5337359  73.9600894  94.3672808 116.0686405  72.4031054
  94.7825477 116.0601859  71.4824637  94.7150862 117.1853891  73.3239877
  94.6393059 116.8705586  74.3647750  96.2070638 117.6151335  73.0340283
  96.8330153 116.7230102  73.0140327  96.1399924 118.0338674  72.0299051
  96.8071973 118.6212983  73.9516237  96.0668061 119.3700169  74.2333010
  97.2847841 117.8734905  75.2099779  98.0255877 117.1248665  74.9291382
  97.7316419 118.5824881  75.9069293  96.4356950 117.3829763  75.6859443
  98.0225178 119.2167724  73.3110641  97.7408783 119.7001707  72.3755938
  98.4632341 119.9540435  73.9821093  98.7494240 118.4302106  73.1085130
  93.6701307 118.3455639  73.2281313  93.2149782 118.7006256  72.1259057
  93.2870839 118.8928525  74.4032264  93.7221161 118.6048209  75.2680293
  92.1189143 119.8914439  74.4717022  91.9263917 120.5203313  73.6024872
  90.8072684 119.1851211  74.8690109  89.9951224 119.9048595  74.7665667
  90.5156467 117.9685734  74.0107747  91.3271904 117.2481327  74.1130633
  89.5809725 117.5105817  74.3343921  90.4289575 118.2717032  72.9673673
  90.4600200 118.8135712  76.3637501  90.4324761 119.7208623  76.9672119
  89.4869141 118.3238471  76.4002863  91.2206050 118.1391367  76.7571321
  92.4188883 121.0459696  75.4209578  92.7386123 120.7611515  76.6089212
  92.3618591 122.2618351  74.9596903  92.1021147 122.4230864  73.9970740
  92.5347271 123.4556547  75.8624911  93.2592489 123.2356139  76.6465507
  93.0483818 124.6499940  75.0394689  93.7524148 124.3332908  74.2699653
  92.2288592 125.2002124  74.5771459  93.7733808 125.5635333  76.0571449
  93.0624225 125.7587759  76.8599646  94.6125355 124.9878598  76.4476848
  94.2798984 126.8803268  75.4993245  94.7260501 127.4284289  76.3291629
  95.0503852 126.6415749  74.7662167  93.1994813 127.7421023  74.8412669
  93.6692068 128.5117182  74.2287721  92.5651084 127.1160539  74.2137850
  92.3947515 128.3676952  75.8677081  92.9823145 128.9481905  76.4489951
  91.6810409 128.9369438  75.4356511  91.9590630 127.6547205  76.4351072
  91.1748700 123.9403131  76.3935929  90.3452304 124.3553267  75.5450189
  91.0040882 123.8892210  77.7289101  91.5974229 123.2163912  78.1929719
  90.0026470 124.5809757  78.5164513  88.9958262 124.2650248  78.2433468
  90.2556903 124.2086439  80.0379174  91.2837912 124.5459064  80.1696811
  89.5923486 124.8185993  80.6511321  90.1416344 122.7506389  80.4630274
  90.9453333 122.1553228  80.0297058  90.2527235 122.7295365  81.9354227
  89.4490292 123.3243029  82.3695048  90.1766858 121.7020979  82.2913565
  91.2145694 123.1466118  82.2337530  88.8752416 122.1098777  79.9441157
  88.8675430 122.1491237  78.8548499  88.8333784 121.0705845  80.2700275
  88.0100528 122.6470857  80.3326449  89.9203516 126.0694223  78.2829385
  90.8586496 126.7070865  77.8273343  88.7490934 126.5921478  78.5858991
  88.0421466 125.8959074  78.7745123  88.3429641 127.9864989  78.5200517
  89.1585624 128.6465648  78.8153681  87.9569691 128.3020904  77.0512481
  87.5074274 127.3771193  76.6900833  87.2124292 129.0980060  77.0345533
  89.0684895 128.6742087  76.1441295  89.9981238 129.3780261  76.4836572
  89.0278943 128.2903487  74.9023076  89.7799811 128.5383306  74.2754343
  88.2444695 127.7460382  74.5705360  87.2959866 128.2049341  79.5988729
  86.3720120 129.0115801  79.4745385  87.3310652 127.4421095  80.6890935
  88.1478387 126.8610473  80.8129768  86.1902270 127.2893671  81.6640331
  85.2188423 127.1007600  81.2069356  86.4606290 126.1801460  82.7452917
  87.3625923 126.4295091  83.3042010  85.2352796 126.0992371  83.7344715
  84.3329677 125.8494403  83.1763176  85.4228321 125.3303183  84.4839302
  85.1018154 127.0619479  84.2279053  86.8609056 124.7920355  82.1558157
  87.7744750 124.8951439  81.5702718  87.0289986 124.0861238  82.9691625
  86.0592666 124.4237517  81.5156260  85.7556553 128.6100659  82.3651716
  84.5377169 128.8221211  82.4777932  86.7098568 129.4479693  82.6016342
  87.6391070 129.0851321  82.4437018  86.5774627 130.7337054  83.2416720
  85.5460096 130.8846681  83.5601277  87.4926912 130.8127028  84.4811599
  88.4283929 130.4895254  84.0249605  87.6149129 131.8167405  84.8874482
  87.1137008 129.8439462  85.6144497  85.9827548 129.9750267  86.0739451
  88.0123807 129.1439706  86.1049174  86.7197184 131.8841455  82.2148614
  86.8334316 133.0357982  82.6130855  86.4580629 131.7298176  80.9197258
  86.7502252 130.8216090  80.5882176  85.9175492 132.6589535  79.9698329
  86.4830049 133.5893730  80.0215882  85.9876866 132.1238976  78.5405194
  86.9873034 131.7525516  78.3147591  85.2613741 131.3251939  78.3900452
  85.6788847 133.2182295  77.6731854  85.7123084 132.9224523  76.7604978
  84.4948551 133.1133451  80.2172104  83.5969556 132.2785442  80.3992326
  84.3320531 134.4196853  80.0448364  85.2137213 134.9103883  80.0892335
  83.1134074 135.2017276  79.9554971  82.2814241 134.5771080  80.2806943
  83.1380157 136.4814494  80.8213403  83.5980912 137.3478600  80.3461956
  82.0690484 136.6580445  80.9406005  83.7435423 136.3006039  82.1691213
  83.3402300 135.3813674  82.8231552  84.7756995 136.9431660  82.6133907
  85.1207306 136.7566078  83.5441159  85.2311393 137.6280505  82.0272092
  82.6655593 135.5437972  78.5818256  81.6068418 136.1457768  78.4804270
  83.3405400 135.0653170  77.5348166  84.0375227 134.3511511  77.6906419
  83.1017096 135.5400371  76.1121716  82.0626755 135.8168522  75.9336199
  84.0088829 136.8402372  75.9564466  83.6705563 137.2869947  75.0215444
  83.7073985 137.4732217  76.7910350  85.5560270 136.7110678  75.9378283
  85.9577574 136.4855322  76.9256780  85.7946831 135.8961699  75.2543929
  86.1637649 137.9814132  75.4305550  87.0413306 137.8687582  74.5172668
  85.7685010 139.1174235  75.8551360  83.4742051 134.5596878  75.0122565
  83.0608334 134.7405998  73.8554481  84.1239334 133.4470095  75.2251749
  84.6147612 133.3617529  76.1037640  84.1558210 132.3255857  74.3092225
  84.4210049 132.6577319  73.3055016  85.1897042 131.3445420  74.7784345
  85.0966518 131.2201442  75.8573069  85.0187743 130.3868914  74.2867148
  86.6296870 131.8582837  74.4344751  86.6461689 132.8278417  74.9322566
  87.4086405 131.2217070  74.8541221  86.9133699 132.0641240  72.9715124
  86.8023447 131.1028346  72.1826816  87.3895267 133.1733948  72.5547897
  87.5763963 133.3012760  71.5704993  87.5769617 133.9175110  73.2114940
  82.7917292 131.6383885  74.3214836  82.1184715 131.6356101  75.3615487
  82.3159806 130.9894062  73.2387393  82.8780207 131.0027797  72.3996736
  81.0853651 130.2963596  73.2095298  80.3585432 130.9357950  73.7104803
  80.8139901 130.1924655  72.1589771  81.0698891 128.9413249  73.8541874
  80.3694975 128.6910189  74.8221080  81.8729743 128.0417193  73.3499534
  82.0788559 128.1575577  72.3679688  82.4319164 126.8628911  74.0500382
  81.6663341 126.3160213  74.6004167  83.0075149 125.9334921  72.9422968
  83.3306111 125.0085691  73.4200261  82.2028476 125.7170338  72.2396188
  84.0733406 126.4984315  72.2630729  84.3878969 125.8853986  71.5946084
  83.4754861 127.0863113  75.1110083  84.3602654 127.9786286  75.0181417
  83.5758179 126.1442243  76.0161667  82.8355086 125.4597685  75.9564857
  84.5104144 126.1028067  77.2368108  85.0621142 127.0363252  77.3475794
  83.6308149 125.9049403  78.4733363  83.1500880 124.9574867  78.2297536
  84.1814410 125.8025508  79.4084445  82.5511801 127.0073230  78.6276608
  81.2767236 126.8066487  78.1272554  80.9650177 125.8592011  77.6876171
  80.3814952 127.8666968  78.1998729  79.4169102 127.7659499  77.7023514
  80.7447867 129.1149859  78.8211599  79.7900266 130.1121371  79.0379473
  78.9136075 129.8646987  78.7341983  82.0714403 129.2674729  79.3065174
  82.3682029 130.1776709  79.8276432  82.9900972 128.2492818  79.1134130
  84.0435853 128.4158775  79.3381544  85.7423972 125.1881005  77.1776158
  86.4397811 125.1312707  78.1542279  85.9507992 124.4478772  76.0437922
  85.3589629 124.6707966  75.2563049  86.9171243 123.3426290  75.9015386
  87.9327991 123.6120326  76.1912381  86.4816691 122.0946265  76.7197546
  86.5014102 122.3792078  77.7717637  85.1208069 121.5724142  76.3691335
  85.1004244 121.2871748  75.3173141  84.8951012 120.7022021  76.9854844
  84.3760611 122.3476493  76.5493165  87.3998125 120.8357540  76.7462822
  88.3715285 121.1028083  77.1616763  86.9409680 120.0637087  77.3639451
  87.5300611 120.4589641  75.7318043  87.0661641 122.9860924  74.4618658
  86.0516025 122.6483940  73.8347044  88.2288480 123.1226167  73.9061084
  88.9050476 123.5570772  74.5177435  88.5274200 123.0655684  72.4587003
  87.7648457 122.4370445  71.9987683  88.4589562 124.4812985  71.8160921
  87.5355890 124.9620716  72.1391238  89.6605579 125.3493637  72.2292023
  90.5843315 124.8694314  71.9060794  89.5785629 126.3304769  71.7614478
  89.6711148 125.4639282  73.3131142  88.5353046 124.3610932  70.2393593
  87.6988941 123.7620943  69.8791927  88.4868698 125.3556106  69.7958632
  89.4727909 123.8826915  69.9558947  89.6718616 122.1425464  72.0382127
  90.6980395 122.1470820  72.6314532  89.4537583 121.2682846  71.0413927
  88.5054226 121.1151821  70.7294340  90.5160299 120.4125559  70.4902732
  90.8744128 119.7107460  71.2433494  89.8163731 119.6415026  69.4111114
  89.4596987 120.3298728  68.6449326  90.5102676 118.9293897  68.9644505
  88.9698576 119.1039799  69.8384052  91.8136446 121.2267545  70.0610907
  91.7495733 122.4064706  69.7344844  92.9820780 120.6243899  70.2312301
  93.0343915 119.6548042  70.5091984  94.2480314 121.3350027  69.9106274
  94.0255073 122.3781566  69.6861009  95.2541492 121.2853840  71.0952788
  95.2121145 120.2845412  71.5249836  96.2507625 121.4656615  70.6923372
  94.9548046 122.2984005  72.1588512  95.1211802 123.2532938  71.6602543
  93.8890927 122.1681845  72.3470111  95.8421289 122.2878930  73.7341668
  97.4191548 122.8717081  73.1878267  97.3073988 123.8616539  72.7455409
  98.1002485 122.9284741  74.0369378  97.8233820 122.1854077  72.4437210
  94.8816134 120.5869821  68.8118198  95.5632000 121.2241559  67.9895210
  94.8230397 119.2753287  68.8330661  94.0913888 118.9270869  69.4359873
  95.6290357 118.3519208  68.1717271  95.6680928 118.5705786  67.1045989
  97.0565911 118.4394254  68.7448121  97.4054416 119.4679646  68.6525640
  97.0258432 118.1598084  69.7978881  98.0242417 117.4971412  67.9892740
  98.8877950 117.5343582  68.6533459  97.7452005 116.4580006  67.8148546
  98.3779363 118.1620541  66.6537662  99.4287899 118.7652587  66.4755169
  97.4869487 118.2896748  65.7787770  94.9662890 116.9801616  68.4184024
  94.8710103 116.6250954  69.6427242  94.6093119 116.2128353  67.3871751
  94.6495682 116.5744043  66.4449721  94.0713510 114.8460555  67.5934807
  93.8916134 114.6906457  68.6572670  92.7853152 114.7487864  66.8792757
  93.0041590 114.9179610  65.8249571  92.0417531 113.4150396  67.0396901
  91.8221408 113.2453858  68.0937715  91.1096427 113.4479801  66.4756119
  92.6648674 112.6035701  66.6637294  91.8805282 115.7231362  67.3832926
  91.0448842 115.6561091  66.9155247  95.0965470 113.8001129  67.1218852
  95.9919755 113.9522369  66.2776696  94.8612676 112.6003214  67.7017584
  93.9772777 112.4621927  68.1703538  95.9110236 111.4900334  67.7908139
  96.7071565 111.7160174  67.0814459  96.5192161 111.3393125  69.1685348
  95.7255230 111.1648915  69.8949835  97.2658871 110.5494397  69.2502881
  97.1986250 112.6163473  69.5727310  96.5133599 113.5224834  70.4250667
  95.5372068 113.2940675  70.8529116  97.1443171 114.7646737  70.7150294
  96.5989730 115.4585343  71.3547622  98.4607938 115.1289268  70.1979416
  98.9291640 116.0777610  70.4595577  99.1468088 114.1985553  69.3192226
 100.1156996 114.3967660  68.8608959  98.4752330 112.9591358  69.0664950
  98.9487177 112.1997133  68.4442493  95.2479898 110.1943580  67.2777628
  94.4015662 109.6341583  68.0291411  95.5571522 109.7777720  66.0632095
  96.2306327 110.3660889  65.5937347  94.9179898 108.7452823  65.3099118
  93.8345722 108.8643402  65.2984835  95.4113345 108.7793553  63.9179064
  95.1402092 109.7749880  63.5667557  96.8656466 108.5240991  63.6273039
  97.1374159 107.5284039  63.9777781  97.0392024 108.5906003  62.5532671
  97.4752017 109.2681437  64.1400815  94.7228319 107.8435023  63.1416763
  95.0501199 107.8731187  62.2396753  94.9462302 107.3794774  65.9405380
  95.8928713 107.0457961  66.5766532  93.8814692 106.6275206  65.8934421
  93.0714108 107.0199952  65.4353282  93.7365576 105.3164836  66.5814083
  94.7241873 104.8692794  66.6940818  93.0956961 105.4458131  67.9693670
  93.7462843 106.0489643  68.6026466  92.1946195 106.0113305  67.7319831
  92.6997744 104.2052470  68.7285848  93.4299769 103.2559066  68.7259049
  91.6251306 104.2562068  69.4432404  91.3302736 103.4432226  69.9649835
  91.0847168 105.1088006  69.4769672  92.9850288 104.2660200  65.6919388
  91.8140121 104.5499070  65.3394308  93.5671473 103.1246171  65.3248497
  94.5516593 103.0051662  65.5160741  92.8595569 102.0494683  64.6117494
  92.2713724 102.4376795  63.7802265  93.9080299 101.1316652  64.0681367
  94.5028896 100.8945501  64.9501898  93.3890047 100.2352332  63.7288395
  94.8402392 101.6480162  62.9392109  95.4204256 102.4987769  63.2965494
  95.7686176 100.5423746  62.5430500  95.1891374  99.6913730  62.1851425
  96.4306955 100.8898155  61.7499306  96.3629150 100.2397939  63.4052309
  94.1001789 102.1657666  61.6927843  93.4508458 102.9950364  61.9734577
  94.8257442 102.5069316  60.9543652  93.4991414 101.3624885  61.2666422
  91.8956994 101.3164743  65.5053261  90.8061994 100.9740140  65.0873574
  92.1891118 100.9908877  66.7703195  93.0646971 101.3614999  67.1110486
  91.3508124 100.1404262  67.7122236  91.1483193  99.1884553  67.2214617
  91.9301788  99.9652834  68.6187328  90.0017496 100.8085199  68.0956740
  89.8958322 102.0295777  68.0585185  89.0415091 100.0434102  68.5134603
  87.8009175 100.5111780  69.0676370  87.2793538 101.0666142  68.2881743
  88.0394977 101.1817359  69.8931857  87.0150287  99.2563600  69.5327656
  86.1758375  99.0717745  68.8621051  86.6434647  99.4036015  70.5468472
  88.0525306  98.0893128  69.4829606  87.6660164  97.1116116  69.1952001
  88.5578058  98.0107330  70.4455726  89.0199549  98.5903603  68.4310264
  90.0184914  98.2576127  68.7144026  88.6518876  97.9954905  67.0683829
  87.6409350  98.3173771  66.4784186  89.4406352  97.0024611  66.6114291
  90.3342655  96.7800596  67.0262325  89.0976018  96.3845882  65.3393072
  88.3906972  96.9106260  64.6976926  90.4050727  96.1337322  64.5647344
  91.0670095  95.5813348  65.2316655  90.2290055  95.3405939  63.2335165
  89.5675156  95.8926298  62.5658429  91.2002809  95.2107259  62.7561707
  89.7959870  94.3632993  63.4467990  91.1782957  97.4890647  64.3943556
  90.6650322  98.0701911  63.6282268  91.1310404  98.0201527  65.3450458
  92.6303190  97.2958003  63.9945891  92.6783752  96.7651517  63.0436935
  93.1120329  98.2682007  63.8921773  93.1443830  96.7151109  64.7605121
  88.1956088  95.2460239  65.5156730  88.5363618  94.0955535  65.7912895
  86.8913451  95.4686893  65.3911041  86.5720121  96.3967285  65.1526316
  85.8495054  94.3766726  65.5943436  86.0354890  93.7972716  66.4986686
  84.4792705  95.0635719  65.7237839  83.6860998  94.3159450  65.7180033
  84.4444015  95.8294005  67.0382362  85.2370511  96.5775765  67.0445710
  83.4786283  96.3230879  67.1461958  84.5925142  95.1368919  67.8668471
  84.2213930  96.0335733  64.5475201  84.2435691  95.4806846  63.6084118
  83.2448639  96.5021464  64.6697069  84.9937091  96.8026302  64.5340934
  85.8169480  93.3822630  64.4009218  85.4015515  92.2439752  64.5953379
  86.1988280  93.8327074  63.2137981  86.4621519  94.8059718  63.1545005
  86.1108945  93.0545127  61.9635379  86.5786811  92.0787968  62.0948906
  84.6203025  92.8428255  61.5792969  84.0512087  92.6725259  62.4932058
  84.2165371  93.7100111  61.0567429  84.5170281  91.6082485  60.6757367
  85.4092502  90.7122348  60.6599847  83.5412177  91.4998582  59.9074896
  86.9719829  93.6737255  60.8228533  87.0097860  94.8949990  60.7372793
  87.5943290  92.9237527  59.9579388  87.4416044  91.9304585  60.0586426
  88.5472879  93.3855601  58.9252649  88.2093652  94.3376993  58.5161950
  89.9746963  93.5802406  59.5293708  90.4676379  94.2371828  58.8127575
  89.7881597  94.1266957  60.4538658  90.8523985  92.4069408  59.8137798
  90.2468759  91.6290768  60.2789366  91.2520011  92.0391352  58.8687196
  92.1864898  92.8193084  60.8845541  93.0268775  91.1850461  60.6932707
  93.2778993  91.0255173  59.6446346  93.9385911  91.1726208  61.2905350
  92.3606339  90.3914906  61.0316349  88.6390338  92.5065990  57.7283288
  88.5920785  91.2656448  57.8589351  88.9914640  93.0962777  56.6105484
  89.1762044  94.0891787  56.5996835  89.0096351  92.3838050  55.3570580
  89.0926026  91.3167575  55.5635167  87.7267007  92.6282164  54.5057042
  87.7594426  92.0185690  53.6027328  86.8415360  92.3690223  55.0865673
  87.4875119  94.2917390  53.9648498  86.3497388  94.0643219  53.3147327
  90.2529600  92.7074779  54.5753572  90.7531087  93.8666083  54.7005527
  90.7970671  91.7884838  53.7643261  90.7573237  90.8097088  54.0103328
  91.6697057  92.1941519  52.6425173  91.9446908  93.2488039  52.6563626
  92.9738529  91.3395478  52.5972525  92.6818919  90.3691211  52.9986624
  93.6766272  91.1449406  51.2610106  93.9693206  92.1149692  50.8591699
  94.5641417  90.5283096  51.4030832  93.0003453  90.6519991  50.5626173
  94.0284496  91.8738638  53.6175750  93.6155273  91.8279669  54.6252906
  94.9280473  91.2605573  53.5658185  94.2789109  92.9065447  53.3747993
  90.9932847  92.3055043  51.3586791  90.2302081  91.3975926  51.0832534
  91.2653882  93.3548895  50.5850770  91.7376666  94.1371061  51.0154138
  90.6977850  93.5371796  49.2653982  90.6169179  92.5509614  48.8083060
  89.3280313  94.2584172  49.1353629  89.4283151  95.3096767  49.4053553
  88.8775995  94.1488276  47.6966585  88.7766385  93.0977891  47.4260553
  87.9160710  94.6481649  47.5773867  89.6148150  94.6213888  47.0475816
  88.2415310  93.6756750  50.0908197  88.5731175  93.7777480  51.1241316
  87.3070951  94.2199736  49.9541883  88.0840461  92.6214958  49.8627726
  91.8105060  94.0820656  48.3688090  92.3348909  95.1967899  48.5816499
  92.1696088  93.3333620  47.3435593  91.9922227  92.3444203  47.4466505
  92.9887102  93.7970058  46.1535553  93.8114819  94.4428936  46.4601085
  93.5756989  92.5293548  45.4934531  93.9774180  91.8789967  46.2704701
  92.8458386  91.9781685  44.9004965  94.6963512  92.9972806  44.6016818
  95.2099544  94.1626702  44.7061216  95.1216165  92.2340992  43.6825025
  92.3336654  94.7875970  45.1320533  91.9111564  94.3946030  44.0081445
  92.1737602  96.0173739  45.5984803  92.6556728  96.2852811  46.4446985
  91.3498376  97.0673798  44.8766900  90.3010771  96.7875886  44.7771033
  91.4448723  98.3199966  45.7911896  92.4644978  98.1685608  46.1454920
  91.3621276  99.3063449  45.3347136  90.4642269  98.2202393  46.9845253
  90.2618283  97.1604826  47.1396107  90.9762357  98.8327856  48.2786238
  91.1784319  99.8927114  48.1244390  90.2239022  98.7166775  49.0587610
  91.8939289  98.3286956  48.5816632  88.9984777  98.6200342  46.7023601
  88.5890261  97.9759729  45.9241353  88.4092988  98.5087396  47.6126255
  88.9617329  99.6577970  46.3710033  92.0408115  97.3498095  43.5075470
  93.2294578  97.5819859  43.3985599  91.2053360  97.2628729  42.4180105
  90.2737844  96.9634156  42.6682829  91.5622296  97.3422863  40.9534907
  90.6388422  97.3532347  40.3744095  92.4051567  98.6281009  40.5846941
  93.4026684  98.5190331  41.0103393  92.4788631  98.6911664  39.4990192
  91.7499245  99.9165431  41.1319577  90.7136751  99.9999100  40.8043329
  91.7786004  99.7752560  42.2123812  92.4997858 101.1869717  40.7675234
  93.7510474 101.2282253  40.9879126  91.9531461 102.1430068  40.1841300
  92.1614921  96.0459764  40.4069359  92.7698703  96.0899091  39.2674123
  92.1042019  94.8982875  41.1136600  91.4655735  94.8872254  41.8960479
  93.0124708  93.7717590  40.9476868  93.0934768  93.2161144  41.8819225
  92.4744428  92.8113668  39.8412323  92.4432641  93.3152162  38.8751769
  93.0990990  91.9212685  39.7662016  90.9907664  92.3873000  40.2698634
  90.8561125  92.4316359  41.3506055  90.2385986  93.0093679  39.7847067
  90.8417905  90.9738033  39.8071082  90.9482300  90.9891962  38.7224273
  91.6688004  90.4148113  40.2449232  89.6229779  90.3174179  40.1363197
  88.8513342  90.9145789  40.3972106  89.4165072  89.0088382  40.0707154
  90.4501745  88.1937781  39.7721388  91.3655253  88.5855200  39.6025183
  90.3035984  87.1958478  39.7196953  88.2328423  88.5645035  40.3583561
  87.5040032  89.2120617  40.6221024  88.0452491  87.5729276  40.3173125
  94.4921669  94.1350323  40.7531568  95.1599428  93.6348071  39.8876863
  95.0328927  95.0207555  41.6134584  94.3656750  95.4181689  42.2592002
  96.3732882  95.6054249  41.5533275  96.6352781  95.8343812  40.5203515
  96.4163207  96.9188345  42.3785914  95.4632974  97.4154681  42.1963803
  96.4715631  96.6117213  43.4229715  97.5271535  97.8559885  42.0795683
  97.6500802  98.6267903  42.8403931  98.3911750  97.1916230  42.0932587
  97.4492484  98.5422474  40.6840599  96.6049720  98.2309652  39.8687307
  98.2275372  99.5556956  40.4765938  98.2080432 100.0292538  39.5847059
  98.8505739  99.8680434  41.2075968  97.5307582  94.6256784  41.8381524
  98.6411174  94.9744097  41.4516619  97.2391026  93.4275227  42.3665566
  96.2712615  93.1883239  42.5283180  98.2782569  92.4332632  42.7257842
  97.8482994  91.4410848  42.5886064  99.1137642  92.5648423  42.0382423
  98.7819808  92.5575039  44.1376873  99.7238266  91.8893882  44.6064836
  98.1469965  93.3564470  44.9361851  97.2715710  93.7047786  44.5723242
  98.5817006  93.8240826  46.1924567  99.0953079  93.0397185  46.7484061
  99.5988074  95.0141072  45.9381316 100.4385939  94.5963186  45.3828743
  99.0797042  95.7435478  45.3164015 100.1180344  95.7028378  47.2102107
  99.5105904  96.5804996  47.4311685  99.9462949  94.9417556  47.9713687
 101.5926819  96.1071289  47.2472709 102.0057166  96.7908402  46.2943117
 102.3594083  95.8377963  48.2763441 103.3292409  96.1196490  48.2671084
 101.9765757  95.3497465  49.0734313  97.4467796  94.2461496  47.0792987
  96.9279415  95.3386809  46.9233265  96.9419547  93.3272566  47.8378509
  97.3317468  92.4065159  47.6950293  95.9069266  93.4870139  48.8378742
  94.9501309  93.4946207  48.3157791  95.9546050  92.6189117  49.4953122
  96.0230004  94.7508480  49.6773236  97.1235207  95.0846389  50.1285849
  94.8831786  95.3873850  49.9646420  94.0096687  95.2206756  49.4858021
  94.9189284  96.4640221  51.0629878  95.9562009  96.5689159  51.3810479
  94.3943582  97.8358315  50.6508419  93.3081021  97.7990248  50.5684267
  94.6764047  98.5729009  51.4026920  95.0056972  98.2373434  49.2757206
  96.0905272  98.2261114  49.1702758  94.5669926  97.5125382  48.5899380
  94.5039618  99.6016149  48.9154183  94.2770199 100.4344231  49.7624803
  94.4761037  99.9766494  47.6208141  94.1388078 100.8954522  47.3715467
  94.7926564  99.3371207  46.9060423  94.0768354  95.8627133  52.1684357
  93.0571549  95.1844178  51.8725693  94.3396601  96.2682005  53.4303657
  95.1455062  96.8671623  53.5397098  93.5867804  95.9053781  54.6156019
  93.0119123  94.9950837  54.4453377  94.5783964  95.6529669  55.7647721
  95.2836048  94.8759107  55.4698754  95.0991070  96.6080066  55.8344833
  93.9778243  95.3048839  57.1144685  93.3208940  96.1327494  57.3812683
  93.1889085  93.9873317  57.1690398  93.8453396  93.1588941  56.9027914
  92.8036717  93.8354051  58.1773115  92.3573140  94.0317832  56.4657795
  95.0266658  95.0462574  58.2015370  95.6379592  95.9384899  58.3369653
  94.5266515  94.8032834  59.1391140  95.6624244  94.2127924  57.9027960
  92.6324295  97.0307357  54.9616059  93.0340960  98.1711924  55.0135245
  91.3402031  96.6583549  55.1941645  91.1333562  95.6941609  54.9758906
  90.2508990  97.5258448  55.5442742  90.6279963  98.4804288  55.9112432
  89.3843412  97.7815766  54.3423175  88.8700013  96.8556439  54.0850195
  88.3546410  98.8770562  54.6144718  88.8682730  99.8034843  54.8714040
  87.7466299  99.0343498  53.7235837  87.7133803  98.5759684  55.4428633
  90.1208379  98.2197909  53.0755359  90.8305338  97.4465511  52.7813690
  89.4011720  98.3764016  52.2720101  90.6564437  99.1491701  53.2691374
  89.4314252  97.1090555  56.7664266  88.7401668  96.1149224  56.8060278
  89.6565909  97.8760600  57.7948849  90.1506477  98.7463149  57.6582693
  89.1845798  97.5322836  59.1860485  88.9215458  96.4755959  59.2342497
  90.2432592  97.8181453  60.2398943  89.8519046  97.4391975  61.1840026
  91.6198698  97.1948754  59.9700131  92.0120972  97.5737297  59.0262299
  92.3027480  97.4571093  60.7781033  91.5236545  96.1105864  59.9137946
  90.3831992  99.2482396  60.3045567  91.0455203  99.4755724  60.9612536
  87.9543106  98.3762927  59.5608460  87.9502566  99.5752709  59.5512647
  87.0202034  97.6787748  60.1641085  86.8674311  96.7022055  59.9565696
  86.1367546  98.3327280  61.1612751  85.6854916  99.2262462  60.7298982
  84.9937371  97.3534105  61.5927950  85.3699181  96.5420753  62.2159500
  84.1926714  97.8731324  62.1184213  84.2418854  96.5856538  60.1899808
  83.3658771  95.8614857  60.8806967  86.9342490  98.7496672  62.3729249
  87.9406030  98.1313971  62.7453100  86.6277011  99.9416111  62.9731075
  85.7035341 100.2170929  62.6728999  87.3968799 100.8761504  63.8087062
  87.8952601 100.3151568  64.5992772  88.4847111 101.6561479  62.9836510
  89.3078688 101.0039038  62.6919519  88.0556730 102.1185562  62.0947163
  88.9569238 102.6429923  63.8353829  89.6303559 103.1585221  63.3855850
  86.5222277 101.8365288  64.6071966  85.3977041 102.2428128  64.2916257
  86.9788911 102.1494432  65.8137476  87.8736703 101.7823946  66.1048572
  86.2305375 103.0200135  66.7622286  86.8330606 103.1436173  67.6621104
  86.0799634 103.9909088  66.2902231  84.8985236 102.4510357  67.1420304
  84.6815006 101.2175150  67.1059523  84.0372728 103.2910527  67.7459687
  84.4366452 104.1829209  68.0012570  82.6586148 102.9880166  68.1873930
  82.2341259 102.4101730  67.3664149  82.6456788 102.1219913  69.4549642
  83.0594366 102.6901868  70.2880659  81.6209221 101.8319532  69.6870245
  83.2474805 101.2280858  69.2910530  81.7676098 104.2686970  68.3449902
  82.3146369 105.3540804  68.6600193  80.4480582 104.1341489  68.2442907
  80.1042051 103.2011759  68.0670177  79.4568089 105.2380743  68.3817446
  78.4655030 104.9092975  68.0697869  79.3931652 105.6573547  69.8711238
  80.3654213 106.0420711  70.1790371  78.6210008 106.3879730  70.1120784
  79.1151233 104.4229692  70.7380085  77.9187939 103.8016992  70.8466198
  77.0878952 104.1979009  70.2628977  77.7294018 102.7071722  71.6571415
  76.7584322 102.2182386  71.7362788  78.8266369 102.2191771  72.3957002
  78.7028265 101.3420331  73.0308296  80.1112151 102.8763537  72.3135438
  80.9944246 102.5337313  72.8526644  80.1873040 103.9970326  71.4976864
  81.1132278 104.5695565  71.4430842  79.9248871 106.4449908  67.5094112
  80.2057289 106.2285397  66.3463450  79.9445577 107.6666334  68.0164627
  79.5687063 107.8122977  68.9425388  80.3674319 108.8681028  67.2232743
  79.8098658 108.9311987  66.2888022  80.0745131 110.1316927  68.0583720
  80.1861464 111.0037030  67.4139845  79.0472421 110.0758120  68.4184993
  81.0212776 110.2526931  69.2435715  80.8461509 109.4313665  69.9384486
  82.0531155 110.2183831  68.8939497  80.7647050 111.6002125  69.9624289
  80.5474123 112.3695504  69.2214822  79.9141328 111.4944732  70.6358126
  82.0145196 112.0049713  70.7724781  82.4186240 111.1139559  71.2529901
  82.7548548 112.4137084  70.0847739  81.6868572 113.0191332  71.8065244
  81.0011791 112.6404320  72.4441220  82.5237576 113.2616960  72.3172699
  81.3127878 113.8450124  71.3614461  81.8014986 108.7331031  66.7690213
  82.1494749 109.2719826  65.7387887  82.6219902 107.9999245  67.5411078
  82.3637072 107.8444481  68.5050665  84.0309931 107.6641459  67.1144163
  84.4557376 108.4687355  66.5141441  84.8545185 107.4925999  68.3203699
  84.5285433 106.5397516  68.7374066  85.8718111 107.3938401  67.9416056
  84.8184697 108.5686619  69.4143981  83.8118589 108.5970195  69.8315686
  85.5138495 108.2016582  70.1692851  85.2191491 109.9359649  68.9957756
  84.4075423 110.8623904  69.1008041  86.4079093 110.0850812  68.5974047
  84.1777669 106.5952342  66.0366008  85.2222234 106.4856899  65.3692166
  83.0846070 105.9514362  65.5725539  82.2118629 106.2539462  65.9810939
  83.0474492 104.8675458  64.5435219  83.6729522 104.0412821  64.8813582
  82.0192113 104.5228954  64.4337846  83.5438588 105.3423037  63.2202005
  83.0361289 106.2723486  62.6146365  84.4634590 104.4965788  62.7642378
  84.7335337 103.7553674  63.3949237  85.2108676 104.6414131  61.4826882
  84.5909659 105.1630622  60.7535084  86.5324823 105.4638240  61.6981153
  87.1288016 105.4149644  60.7870087  86.2704744 106.5014339  61.9050396
  87.2936778 104.9329187  62.7984144  88.0949946 105.4492833  62.9118107
  85.5434609 103.3740064  60.6695080  85.4252093 102.3089826  61.1764418
  86.0720121 103.5720394  59.4178473  86.0199704 104.5172634  59.0657924
  86.6257968 102.5823561  58.5891703  86.7844946 101.6626935  59.1523176
  85.6617711 102.2875476  57.4285836  85.6034490 103.2842216  56.9911608
  86.2000943 101.6248675  56.7509678  84.2032147 101.7293341  57.6618620
  83.6459364 102.4455751  58.2656340  83.5074061 101.5222456  56.3787444
  84.0638844 100.8057225  55.7745711  82.5049969 101.1374496  56.5663837
  83.4381552 102.4702353  55.8452463  84.2269273 100.4437868  58.5055592
  84.6774900 100.6535103  59.4756668  83.2081197 100.0838092  58.6489062
  84.8120037  99.6815796  57.9909479  87.9705436 103.1162302  58.1183377
  88.1477297 104.2929900  57.8041856  88.9618075 102.1941126  58.0757096
  88.8416150 101.2125463  58.2810890  90.3239346 102.7061185  57.9035887
  90.2701749 103.6112619  57.2986718  91.0028662 103.0225444  59.1579573
  91.3020748 102.0626568  59.5788960  91.8911585 103.5875170  58.8753930
  90.1770565 103.8413494  60.2412379  89.9516785 104.8363733  59.8575282
  89.2466787 103.3199548  60.4662868  90.9953775 103.9615674  61.4883944
  91.1341456 102.9666607  61.9114819  91.9660690 104.3841335  61.2289809
  90.3658777 104.8165330  62.4967359  89.4842866 104.4384859  62.8129272
  90.7730706 105.9716447  62.9967768  91.9524960 106.5480610  62.8035050
  92.6431224 106.0954048  62.2219230  92.1541868 107.4368142  63.2388648
  89.9975709 106.6200867  63.7703376  89.0851814 106.2485482  63.9930582
  90.2983511 107.5030277  64.1576943  91.0532253 101.7393466  57.0160245
  90.7542537 100.5257283  56.8966437  91.9770927 102.2654965  56.1808543
  92.3144870 103.1955168  56.3841442  92.4484271 101.5937370  54.9114127
  92.1672120 100.5435589  54.8330337  91.8360060 102.3765816  53.7391638
  92.1618127 103.4088910  53.8667875  92.2006502 101.8990228  52.3406049
  91.8747220 100.8668656  52.2120626  91.7079971 102.5298802  51.6007315
  93.2807187 101.9578618  52.2061093  90.3288616 102.4209500  53.8249150
  89.9835186 101.4939950  53.3671013  90.0970663 102.4079503  54.8899039
  89.6407074 103.5825417  53.1790624  89.8716718 103.5959360  52.1138977
  88.5633423 103.4889787  53.3155525  89.9852216 104.5098920  53.6366991
  93.9966059 101.5093841  54.8906956  94.6175234 102.5049193  54.8215783
  94.5751967 100.3316031  55.0334351  93.9545701  99.5528621  54.8646614
  95.9581887 100.0446258  55.4492356  96.5077950 100.9858550  55.4601763
  96.1680972  99.3319118  56.7418060  95.7251283  98.3364824  56.7101927
  97.7233426  99.2073468  56.9498640  98.1669862 100.2024575  56.9820473
  97.9246630  98.6898460  57.8878212  98.1568994  98.6433561  56.1240056
  95.4497817 100.0613296  57.9423935  96.0858337  99.8978686  58.8123471
  95.4485678 101.1211883  57.6878400  94.0094276  99.6083793  58.2659013
  94.0099067  98.5486556  58.5210194  93.6275658 100.1843222  59.1088547
  93.3726411  99.7719734  57.3965108  96.6323290  99.2167740  54.3376610
  96.4212775  98.0101170  54.1062864  97.5408694  99.9673889  53.6325160
  97.7759997 100.8561614  54.0507225  98.2580654  99.5579852  52.4137156
  97.8985479  98.5827653  52.0853980  98.0323347 100.5522443  51.3053056
  96.9552221 100.5948517  51.1437126  98.3815726 101.5149509  51.6785735
  98.7311248 100.2344438  49.9884946  99.7977496 100.4304745  50.0979676
  98.5781430  99.1814159  49.7522091  98.1495156 101.1254537  48.8212367
  97.0793875 100.9480343  48.7142451  98.3228245 102.1801092  49.0351646
  98.8281922 100.7787596  47.5226631  98.3557103 100.0227348  47.0480193
  99.9787577 101.2279292  47.0170063 100.5403994 102.2672267  47.5301099
 100.1074533 102.7370262  48.3123798 101.4111083 102.6074952  47.1477711
 100.5305108 100.7429682  45.8966423 100.0702449  99.9991048  45.3917437
 101.4042224 101.1234336  45.5620188  99.7574099  99.6229777  52.7439745
 100.2377076 100.5288462  53.4495745 100.5256379  98.6220668  52.3597038
 100.0719966  97.7630937  52.0831640 102.0596169  98.6575894  52.3903113
 102.4503472  98.6490842  53.4078360 102.5057763  97.4142670  51.6980967
 102.1427161  96.5488289  52.2524464 102.0086404  97.4590966  50.7291043
 103.9876256  97.2546795  51.4723109 104.5243433  97.9578720  50.6728052
 104.6145591  96.4065385  52.2050922 105.6080822  96.2737435  52.0810877
 104.1110963  95.8763606  52.9018973 102.7520629  99.9312237  51.7672765
 102.1983006 100.4755658  50.8188884 103.9164464 100.3331651  52.3421096
 104.2178050  99.7623625  53.1189408 104.7321145 101.4499138  51.9622810
 104.6518021 101.6771964  50.8992703 104.1696182 102.6504429  52.7701695
 104.2515775 102.4415780  53.8368270 104.7393369 103.5485269  52.5314939
 103.1224619 102.8052885  52.5101970 106.1850951 101.2607980  52.2795640
 106.5079444 100.2823262  52.9038895 107.0729130 102.1968024  51.8336532
 106.7217963 103.0247377  51.3739364 108.4967080 102.0839362  52.0470892
 108.9794435 101.2520627  51.5342031 109.0943752 103.4010446  51.5190121
 108.6273490 104.2431172  52.0297963 110.1682307 103.4138757  51.7054791
 108.9112385 103.4798554  50.4474016 108.8216504 101.9690401  53.6032310
 108.9637026 102.9922949  54.2863707 109.0557990 100.7148915  54.0561842
 108.8102145 100.0445529  53.3417377 109.3975391 100.2191375  55.3763003
 109.3318982  99.1316478  55.4103101 110.8337677 100.6222427  55.5958970
 110.9141193 101.7090494  55.5736495 111.1712315 100.2532369  56.5644285
 111.4556877 100.1962648  54.8085867 108.3134695 100.6558439  56.3806915
 108.6569374 101.1651392  57.4652615 107.0580465 100.6840386  55.9902622
 106.7896045 100.0782098  55.2280223 106.0210189 101.5804241  56.5805577
 105.9932113 101.5788941  57.6702015 106.2918004 102.9821326  56.1088240
 106.3135620 103.0015138  55.0192136 105.5047585 103.6452826  56.4678468
 107.2536641 103.3172213  56.4969387 104.6849003 101.0576448  56.1247299
 104.5315541 100.0458855  55.3856055 103.6756165 101.7870245  56.5892744
 103.8503809 102.5368271  57.2429967 102.2591555 101.5886239  56.0845632
 102.2922539 100.9448928  55.2055786 101.3204528 100.9392176  57.1411624
 101.4349078 101.5947467  58.0044589 100.2768984 100.9326153  56.8264390
 101.7481262  99.5184952  57.5193003 102.8370761  99.5015638  57.4745516
 101.2968270  99.0492547  58.8683241 100.2078923  99.0654709  58.9136802
 101.6519078  98.0326965  59.0375218 101.7018109  99.7076539  59.6368285
 101.3214868  98.4983911  56.4334149 101.7881510  98.7610532  55.4840295
 101.6384824  97.4982968  56.7290946 100.2373313  98.5173322  56.3222967
 101.5314408 102.8950792  55.7752675 101.4623078 103.7562329  56.6555089
 100.9790303 103.0862340  54.5728048 101.3749852 102.5788913  53.7943946
  99.9683147 104.1049331  54.2939697 100.2353996 104.9984702  54.8582004
  99.8264114 104.4900859  52.7870819 100.8200891 104.9214490  52.6661287
  99.6474495 103.7633577  51.9946561  98.8377742 105.6145425  52.5742535
  98.6040520 106.7243222  53.4193594  97.8623719 107.5944668  52.7215500
  97.4623558 108.4538480  53.2596485  97.7487364 107.2370478  51.4642037
  97.3958979 107.7912827  50.6971128  98.2038539 105.9414336  51.3588753
  98.0371038 105.3781565  50.4407171  98.6544829 103.7612798  54.8972761
  98.0948430 102.6509336  54.7200431  98.1476167 104.7554214  55.5765081
  98.6719941 105.6113716  55.6882082  96.8374795 104.6567750  56.2170700
  96.2078521 103.8309616  55.8858589  97.0857216 104.5377800  57.7603178
  97.5531972 105.4621413  58.0996157  95.7948649 104.3060891  58.5382712
  95.3270206 103.3816010  58.1998276  96.0197653 104.2305784  59.6021409
  95.1137658 105.1402339  58.3697317  98.1236756 103.4888301  58.0793893
  97.9621294 102.7213697  57.3224163  99.0718048 103.9918935  57.8894480
  98.1600006 102.8365820  59.4697637  97.2123119 102.3328922  59.6602438
  98.9715136 102.1099803  59.5097110  98.3219852 103.6034169  60.2272761
  95.8597170 105.8173148  55.9767873  96.2649107 106.9277088  56.2232688
  94.6191424 105.4791811  55.5862541  94.3836397 104.4990875  55.5225801
  93.5505295 106.5096320  55.2043908  93.9628445 107.5117437  55.3221519
  93.0830100 106.3381010  53.7477341  92.9284888 105.2708053  53.5892971
  92.1301708 106.8598452  53.6583999  94.0726547 106.8816882  52.6807790
  94.2171356 107.9390692  52.9025256  95.0116115 106.3483035  52.8289780
  93.6123298 106.7201129  51.2029771  94.3978706 107.1224666  50.5633396
  93.4937355 105.6547417  51.0054445  92.3467888 107.4032921  50.8829173
  92.4390329 108.3737101  51.1472640  91.2772445 107.0349370  50.1886585
  90.9934022 105.8065834  49.8249746  91.6164638 105.0522189  50.0756309
  90.1531792 105.6211555  49.2960687  90.3357137 107.9250111  50.0470752
  90.4452053 108.8411869  50.4578473  89.5010275 107.6943964  49.5272536
  92.3513603 106.3244985  56.1855185  92.0201313 105.1835022  56.4469756
  91.6538160 107.4029573  56.6138930  91.8671611 108.3440306  56.3156245
  90.5127404 107.2001885  57.5748932  90.2478683 106.1554370  57.7374854
  90.9793833 107.8090162  58.9234996  91.3019370 108.8221520  58.6834680
  89.9555022 107.8549121  60.0886966  89.6328170 106.8420301  60.3296197
  90.4215562 108.3053280  60.9650631  89.0919299 108.4496607  59.7910093
  92.1019792 107.1455299  59.4401807  92.3584739 107.5506944  60.2718372
  89.1275286 107.8495557  57.2295030  89.0444798 109.0867007  57.0802038
  88.1042248 107.0449835  57.0489234  88.2984997 106.0561895  56.9807838
  86.7186974 107.4905529  56.9080140  86.6561484 108.5254361  56.5715565
  85.9892588 106.5981861  55.8904724  85.8913072 105.6246264  56.3707704
  84.5885470 107.0802733  55.4031169  84.6857689 108.0536332  54.9222640
  84.1844193 106.3619606  54.6898090  83.9150171 107.1626672  56.2561528
  86.8403342 106.4153036  54.6594888  87.7839429 105.9450026  54.9361144
  86.3150133 105.7818053  53.9447739  87.0382237 107.3866990  54.2063537
  85.8602686 107.4996944  58.1975637  85.7417998 106.4137079  58.8299507
  85.2840854 108.6164623  58.6385439  85.7432480 109.9564866  58.1841779
  85.4943453 110.1010421  57.1328685  86.8211474 110.0480967  58.3177426
  84.9580749 110.8931663  59.1091668  83.9723036 111.1317840  58.7098981
  85.5005020 111.8165414  59.3122742  84.8557001 110.0210980  60.3832337
  84.0475008 110.4220170  60.9949336  85.7672190 109.9643827  60.9782264
  84.4839341 108.6470232  59.8777057  84.8106735 107.8244581  60.5138867
  82.9459290 108.5077077  59.5918026  82.3126677 109.2326672  58.8289496
  82.3499603 107.4591011  60.0656037  82.9030969 106.8023826  60.5974496
  80.8811620 107.2168396  59.9497640  80.5601102 107.4204471  58.9282118
  80.5324351 105.7871572  60.2893502  80.8162057 105.6984427  61.3380175
  79.4666837 105.5845079  60.1834857  81.3408585 104.7617915  59.4455784
  82.4041718 104.9070074  59.6363087  80.9550306 103.3580903  59.8089868
  79.8918744 103.2119662  59.6180799  81.5315881 102.6550491  59.2078084
  81.1609431 103.1860780  60.8654489  81.2863565 104.9132479  57.9234264
  81.6733234 105.8923578  57.6411146  81.8924796 104.1357256  57.4584802
  80.2543991 104.8196698  57.5851867  80.0057139 108.0156530  60.9504651
  78.8817693 108.3356758  60.5823236  80.4748558 108.2130891  62.1596702
  81.3859794 107.7863056  62.2480383  79.8148193 108.7578629  63.4056133
  80.5121004 108.7260470  64.2428027  79.3922408 110.2003166  63.1800394
  78.6382456 110.1025309  62.3989963  78.9186853 110.5406495  64.1009188
  80.4435574 111.2126580  62.7462028  81.1710179 111.9110875  63.7291268
  81.0574938 111.5550142  64.7530523  82.0005090 112.9998234  63.4569142
  82.3592559 113.6315721  64.2695003  82.2203668 113.3924127  62.0884880
  83.1177031 114.3820619  61.7650421  83.5554256 114.7570486  62.5327553
  81.6228827 112.5933487  61.0885988  81.8958377 112.7996966  60.0536995
  80.6788633 111.5313077  61.3931479  80.1730871 111.0033201  60.5847423
  78.7216988 107.8649511  64.0015302  77.8613502 108.3639911  64.7491347
  78.7568265 106.5190504  63.7631533  79.4256476 106.3295889  63.0304310
  77.9956392 105.3649109  64.3476958  77.7421527 105.5695422  65.3878735
  76.6707849 105.1453933  63.5439507  76.1411837 104.3140283  64.0091969
  76.0763928 106.0539189  63.6407981  76.9036605 104.8312521  62.0193533
  77.4804687 105.6531585  61.5952507  77.4920517 103.9147340  61.9758835
  75.6389208 104.6507699  61.2335379  75.6702924 103.8084104  60.3862792
  74.6234913 105.3447203  61.4812045  78.8505124 104.0697502  64.3252534
  79.8641398 103.9282612  63.6242523  78.5008427 103.0253514  65.1142054
  77.6059490 103.0990951  65.5766192  79.3547179 101.8082595  65.3941970
  80.3765691 102.1190017  65.6118173  78.8145852 101.0329479  66.5936242
  77.8078996 100.6970888  66.3448631  79.4587985 100.1669284  66.7456093
  78.7744756 101.8066935  67.7824745  78.4284054 101.2719774  68.5007460
  79.4420297 100.8672239  64.1569732  78.4326316 100.1941994  63.9358496
  80.6376429 100.7750866  63.4488625  81.8268781 101.5540145  63.5819858
  82.1336829 101.5500314  64.6279089  81.6134282 102.5764846  63.2703882
  82.8583043 100.8562041  62.6556166  83.4558960 100.1416039  63.2215934
  83.5152132 101.5936445  62.1943643  82.0053402 100.1601061  61.6091440
  82.5216200  99.2793405  61.2272982  81.6687525 100.7740046  60.7737178
  80.8104025  99.7340351  62.4565662  79.9468325  99.6970960  61.7925025
  80.9449497  98.3805149  63.2051456  81.7958261  98.2473285  64.0634880
  80.1860392  97.3710336  62.7435686  79.6058186  97.5101350  61.9286489
  80.1033534  96.0745327  63.4500455  80.5897575  96.1282832  64.4240173
  78.5664545  95.7304777  63.6679743  78.0503966  95.8878109  62.7208577
  78.4950594  94.6799974  63.9499209  77.9083596  96.6066429  64.7670843
  78.3382634  96.4017718  65.7475491  78.0095189  97.6681708  64.5411922
  76.4411660  96.2289740  64.7704431  75.9180498  96.9529785  65.3951557
  76.0805151  96.3071435  63.7448116  76.1380868  94.8244387  65.2902483
  75.6175466  94.1883345  64.7032997  76.4851956  94.4299740  66.4712327
  77.0790387  95.1235386  67.3782638  77.3214808  96.0867702  67.1952152
  77.2998064  94.7012996  68.2688117  76.2900548  93.2454600  66.8334628
  75.8572905  92.5909233  66.1975408  76.5665898  92.9516892  67.7593818
  80.8304239  94.9480941  62.7311454  81.5459184  94.2434538  63.4409812
  80.7161982  94.7706655  61.3737138  80.5248516  95.6303308  60.8792834
  81.1020679  93.5605372  60.5739432  81.9604757  93.0802516  61.0435825
  79.9389499  92.5285160  60.4895403  78.9881725  93.0569009  60.4193193
  80.0718345  91.9019702  59.6075641  79.9432883  91.6303988  61.7731336
  80.0167581  92.3189047  62.6149546  78.9714637  91.1371265  61.7916100
  81.0821534  90.5491732  61.8791880  81.0269467  89.8927306  61.0107789
  82.0478872  91.0544579  61.8912355  80.9213297  89.7024457  63.1828955
  80.8759904  90.3826087  64.0334384  79.9895288  89.1406910  63.1174891
  82.0535518  88.7619046  63.3623853  82.9170305  89.2822658  63.4234469
  81.9192966  88.2315646  64.2113936  82.0954797  88.1312860  62.5745646
  81.1407456  93.9288434  59.0550674  80.3812268  94.8201098  58.6517892
  82.0792294  93.3569747  58.2245180  82.6176877  92.5757645  58.5707442
  82.3961738  93.8838708  56.8964138  81.6265168  94.4815291  56.4080167
  83.6867396  94.7691406  57.1213660  83.4311161  95.5546996  57.8324596
  84.9016582  93.9474298  57.6668484  85.1581793  93.1619173  56.9560266
  85.7575033  94.6089657  57.8010130  84.6367457  93.4982294  58.6240002
  84.0119704  95.5192403  55.7860142  84.3227824  94.7739618  55.0538554
  83.0963635  96.0026835  55.4453585  85.1241575  96.5784555  55.9457200
  86.0402722  96.0956602  56.2859294  85.3045444  97.0640775  54.9866939
  84.8138539  97.3243811  56.6774348  82.5633963  92.6854107  55.8754143
  82.8914138  91.5572746  56.2595526  82.1864759  92.9745301  54.6205473
  81.7502373  93.8755005  54.4862064  82.3025730  92.0721259  53.4567539
  83.2024402  91.4681117  53.5729656  81.0945916  91.1310464  53.3081570
  81.1798820  90.4797644  52.4382969  80.9271439  90.5261193  54.1992936
  79.5427513  92.1225214  53.0593393  78.7237010  91.0785181  52.9692730
  82.4806361  92.9384467  52.1954245  82.0760112  94.0517443  52.0646340
  82.8827231  92.3192081  51.0790036  83.1101940  91.3395477  51.1718575
  83.0681071  92.9433850  49.7974323  82.5843284  93.9174428  49.7248470
  84.5638623  93.1386130  49.7012480  84.8234757  93.9027037  50.4339591
  85.0781371  92.2097596  49.9479318  84.9813928  93.5925448  48.3388707
  85.4370061  92.6558778  47.4036683  85.4635507  91.5969455  47.6606842
  85.8581087  93.0791400  46.1395335  86.1773098  92.3160450  45.4296754
  85.7887649  94.4388466  45.7367391  86.2344250  94.7946134  44.5028582
  86.5707935  94.0513836  43.9968291  85.3483904  95.3606369  46.6914982
  85.3028707  96.4120567  46.4076936  84.9748933  94.9700295  47.9702748
  84.6732282  95.7189060  48.7025877  82.5095897  92.1445002  48.6428578
  82.5194898  90.9720590  48.6383107  81.9889278  92.8196172  47.6359267
  82.0695134  93.8263964  47.6369594  81.2409362  92.2023898  46.5905632
  81.5058211  91.1513562  46.4753964  79.7342175  92.2963159  46.9933804
  79.6299847  91.8973143  48.0023563  79.4492678  93.3483973  46.9880417
  78.8108720  91.5050430  46.0258901  78.9580303  91.8123217  44.9905036
  79.0754054  90.4530928  46.1332445  77.2990470  91.6800473  46.3893341
  76.6061466  92.5214674  45.8159491  76.6807629  90.8966296  47.2813647
  75.7028942  91.0442929  47.4864737  77.1949307  90.1614185  47.7452585
  81.5389695  92.8373496  45.2183725  81.0848202  93.9134972  44.8249621
  82.4891679  92.0698404  44.5380016  82.8906134  91.2707678  45.0074948
  83.0736118  92.4959515  43.3099297  83.6504959  93.4066493  43.4709678
  84.0278819  91.3930057  42.7491986  84.8498425  91.2510644  43.4508628
  83.4688771  90.4623091  42.6521549  84.5977953  91.8035956  41.3583447
  83.8226372  91.5295510  40.6427120  84.7759888  92.8776867  41.3066291
  85.9080042  91.0451886  41.0169526  86.6177781  91.4993633  40.0435055
  86.1542280  89.9916497  41.6648466  82.1134326  93.0310490  42.3125428
  82.2207540  94.1438671  41.8469035  81.0630693  92.2263088  42.0235531
  80.8116412  91.4760079  42.6511930  80.1732085  92.5064119  40.8702587
  80.6608684  92.5449926  39.8961957  79.0080514  91.3885392  40.8203138
  78.2359526  91.7184826  40.1252598  79.5729937  90.0141493  40.3539066
  80.3448781  89.6833117  41.0487749  78.7681795  89.2794697  40.3289999
  80.0018711  90.1164132  39.3570576  78.1922120  91.1987349  42.0893763
  77.6948933  92.1342322  42.3455423  77.4441942  90.4224353  41.9283551
  78.8518953  90.9032878  42.9052377  79.4283326  93.8330745  41.1259932
  79.4147492  94.6755599  40.2203399  78.9037157  94.0933475  42.3480031
  78.9307701  93.3091570  42.9839376  78.3116178  95.3194711  42.8039844
  77.6346919  95.7499626  42.0660497  77.5043545  94.9451546  44.0481130
  78.1342203  94.5441599  44.8421983  76.9271061  95.7860251  44.4325881
  76.5962806  93.9075647  43.5784005  76.0447472  93.6115407  44.3062608
  79.3003904  96.4753190  43.1581123  78.8798539  97.6005776  43.3554143
  80.6477402  96.2096478  43.1474663  80.8445821  95.2237935  43.2446456
  81.7691357  97.1549187  43.2280463  82.7122136  96.6159582  43.3187376
  81.8125306  98.0095397  41.9506670  80.8016061  98.3640029  41.7494539
  82.4651129  98.8620119  42.1391549  82.3353956  97.2209628  40.7264724
  83.1404288  96.4891485  40.7933337  81.3957061  96.7087613  40.5197472
  82.6489285  98.2129944  39.5233214  83.6955751  98.8687218  39.5182850
  81.9862219  98.1099507  38.3746543  82.1931742  98.7450135  37.6170479
  81.2791045  97.3971164  38.2653222  81.7827364  97.9037668  44.5625823
  82.0433793  99.1242766  44.6367920  81.6258355  97.2375210  45.7188823
  81.7358905  96.2336177  45.7060155  81.2318771  97.8732933  46.9693799
  81.7585109  98.8158534  47.1188343  79.7392280  98.1587167  46.8813397
  79.3501740  98.6956831  47.7464428  79.4525632  98.6831224  45.9697906
  78.8690480  96.5722202  46.8424064  77.6449050  97.0868738  46.7682176
  81.6293287  96.9347634  48.1703544  81.9455145  95.7408326  48.0227822
  81.5961410  97.5800789  49.3436551  81.6632188  98.5878350  49.3384172
  81.5741994  96.8904206  50.6402187  81.8435322  95.8434277  50.5010605
  82.5880554  97.5384886  51.6361553  82.3361311  98.5295661  52.0135129
  82.5662045  96.8214402  52.4568040  84.0579278  97.6099569  51.1486622
  85.0549825  96.6834440  51.4538618  84.7008892  95.8202525  52.0174380
  86.4083195  96.7840215  51.1026337  87.1673291  96.1203523  51.5168175
  86.7774644  97.7925827  50.1740917  87.7955110  97.8589351  49.7903230
  85.7984790  98.7212000  49.7473969  86.0490664  99.5680185  49.1084880
  84.4947523  98.5315248  50.1630796  83.6909380  99.1212306  49.7223649
  80.1467748  96.8452360  51.2315210  79.4894575  97.9169586  51.1780549
  79.7254953  95.7225942  51.8024018  80.2044740  94.8624535  51.5769317
  78.6377863  95.6684044  52.7124285  77.9400653  96.4933320  52.5682788
  78.0989213  94.7228046  52.6527216  79.2887739  95.7943137  54.1277430
  80.2259546  95.0801861  54.4736444  78.7035188  96.6396975  55.0118928
  77.9171796  97.1446479  54.6287544  79.1122724  96.9280820  56.4166960
  79.7892606  96.1435435  56.7547572  79.9257899  98.3082851  56.3379458
  79.3714117  99.0508605  55.7640592  80.1017984  98.7963322  57.7529274
  80.6565333  98.0544380  58.3273517  80.6524930  99.7369739  57.7475245
  79.1238452  98.9510635  58.2087425  81.3366212  98.0746540  55.7729772
  81.2619466  97.6519220  54.7710673  81.8720610  99.0229946  55.7276571
  81.8774128  97.3831854  56.4191324  77.8499582  96.9777850  57.2163944
  76.9762551  97.9062489  57.1218285  77.7806184  96.0391602  58.2214205
  78.3073859  95.1781620  58.1854001  76.8967835  96.2513408  59.3352612
  75.8792067  96.4591933  59.0044532  76.8905131  94.9511429  60.1572242
  77.9350229  94.7631403  60.4057267  76.3205285  95.1001208  61.0742973
  76.3286058  93.7609709  59.4001906  76.9967071  93.5029629  58.5785012
  76.2036090  92.5598102  60.3563573  75.5352499  92.8169187  61.1781178
  75.8003270  91.7041118  59.8148366  77.1866732  92.3072102  60.7536965
  74.9365431  94.0687009  58.7340901  75.0449608  94.8923877  58.0284803
  74.5819736  93.1832639  58.2064699  74.2170725  94.3439127  59.5052707
  77.3549535  97.4420076  60.1441535  78.5518446  97.4776262  60.5275921
  76.3912347  98.2327895  60.6105955  75.5094721  98.1927271  60.1196892
  76.5517661  99.2391194  61.6833004  77.3813007  98.9747993  62.3391254
  76.8406635 100.5543392  61.0598679  77.2466105 101.2384514  61.8050503
  77.5594254 100.4324111  60.2495502  75.5989152 101.0970520  60.5289217
  75.7704512 101.9493443  60.1217692  75.3834454  99.3083818  62.6701796
  74.4023146  98.5931255  62.5207947  75.5102520 100.0799630  63.7464452
  76.4480114 100.4230202  63.8981630  74.4568604 100.4602090  64.7181397
  73.4625390 100.3751166  64.2797524  74.5521282  99.5254069  65.8559315
  74.5714006  98.4977559  65.4930799  75.4584663  99.7254322  66.4274567
  73.4298275  99.7097391  66.6792132  73.4777817  99.1073568  67.4251595
  74.5125260 101.8729577  65.2818732  75.6391683 102.3172722  65.5689024
  73.3777494 102.5749521  65.2903567  72.5784392 102.1722579  64.8223396
  73.2773851 103.9602103  65.7747684  74.2039827 104.2235346  66.2848433
  73.0430598 104.9628931  64.6328298  73.4480913 105.9139227  64.9786498
  73.6323455 104.6027333  63.7895462  71.5986422 105.1560751  64.1959971
  71.2078150 104.1661792  63.9604955  71.0637571 105.5625523  65.0543538
  71.4015966 106.1023580  62.9620625  71.7409696 107.1112428  63.1967458
  71.9524651 105.7255313  62.1002940  69.9236217 106.1551493  62.6102554
  69.3888235 106.9424299  62.9483079  69.3429046 105.3021213  61.8556879
  69.9210375 104.4220829  61.0318235  70.9279579 104.3871550  60.9611733
  69.3482230 103.7962138  60.4838535  68.0260570 105.2361925  61.9570481
  67.5415640 105.8411245  62.6046775  67.5108667 104.5812100  61.3863680
  72.2538824 104.1190224  66.9322981  71.1743906 103.5946564  66.8402192
  72.6420316 104.8247731  68.0386368  73.6357085 104.9305806  68.1853006
  71.7702415 105.2200559  69.0688444  71.0614145 104.4273447  69.3081609
  72.6080808 105.5848748  70.3595370  73.1986432 106.4835347  70.1813601
  71.6112868 105.8419512  71.5325521  71.0206504 104.9435203  71.7116366
  72.1683696 106.0956700  72.4344313  70.9476636 106.6664659  71.2720159
  73.6194887 104.5064796  70.7795702  73.0755865 103.5787895  70.6016314
  74.4107727 104.6112225  70.0372778  74.2344636 104.4757863  72.1783714
  73.4437704 104.3705867  72.9212289  74.9198875 103.6318318  72.2560522
  74.7789551 105.4030214  72.3568760  70.7586229 106.2776755  68.5962533
  71.1280974 107.1520030  67.7980001  69.5002771 106.1427735  69.0103661
  69.3043456 105.3426756  69.5947919  68.3989664 107.0537696  68.6878778
  68.7892176 107.9817969  68.2700637  67.4861584 106.4118267  67.6690987
  67.3326373 105.3712706  67.9550597  66.5313996 106.9374182  67.6861084
  68.0687223 106.4703860  66.2745719  68.7692140 107.3047585  66.2394321
  68.6204820 105.5313593  66.2311062  67.0867929 106.5584961  65.0485037
  67.4705606 107.0525385  63.9751941  65.9384449 106.0480602  65.1451330
  67.6306592 107.3228703  70.0230384  68.0243839 106.9202825  71.1069096
  66.5270987 108.1629325  69.9672116  66.3701900 108.6670827  69.1062170
  65.5564328 108.3892969  71.1271848  65.6429236 107.5896077  71.8627906
  65.8058864 109.7516096  71.8410763  64.9449653 110.0060197  72.4592911
  67.0623594 109.6303332  72.7329831  67.9238440 109.3763772  72.1153655
  67.2441744 110.5798208  73.2364878  66.9064118 108.8491505  73.4769828
  65.9842635 110.9220621  70.8934854  65.0870960 111.0379024  70.2853954
  66.1532749 111.8328275  71.4679774  66.8408141 110.7379389  70.2450098
  64.1912279 108.3293312  70.4629569  63.9985428 108.5163074  69.2418860
  63.1807112 108.0207661  71.2870501  63.4592558 107.6159217  72.1694408
  61.7692140 107.8913239  70.8717319  61.7266949 107.3635933  69.9189509
  60.9505705 107.1318548  71.8785823  61.6234055 106.3340710  72.1931188
  60.8319555 107.8480806  72.6916328  59.5896270 106.5381616  71.5209987
  59.6716807 106.3638344  70.4481622  59.4379278 105.5876405  72.0324662
  58.3538517 107.4473768  71.7841188  58.3988461 108.6807297  71.9080952
  57.2036992 106.8246619  71.9789833  56.3660273 107.3609101  72.1546114
  57.1682043 105.8156651  71.9512895  61.1197522 109.0974272  70.2806208
  61.2631802 110.1379970  70.9005916  60.3870734 108.9985848  69.1795481
  60.2306403 108.0496401  68.8711131  59.9267116 110.1290411  68.2846529
  60.3252647 111.0840660  68.6269716  60.4452192 109.8614923  66.8761524
  61.4626826 109.4759597  66.9412065  59.8127962 109.1326879  66.3692152
  60.4463012 111.1839635  66.0793685  60.6584482 111.1118458  64.8355129
  60.2651185 112.3212383  66.6055252  58.4252344 110.3437970  68.4123561
  57.7880263 110.7204514  67.4036801  57.8476888 110.0679679  69.5719390
  58.4315404 109.9877698  70.3921736  56.4233011 109.6892211  69.6858306
  56.2788261 108.9703583  70.4923432  55.4836479 110.9258361  69.9400590
  55.5081828 111.4872953  69.0061094  54.0143649 110.6733272  70.3508385
  53.9890185 110.1122777  71.2850122  53.5054380 111.6275839  70.4868045
  53.5115090 110.1018782  69.5706574  56.0500860 111.6697753  70.8900945
  55.4986383 112.4350498  71.0685902  56.0282289 108.8422701  68.5112238
  56.6763720 107.8029265  68.2800561  54.9680767 109.1397042  67.7970039
  54.4961077 109.9774936  68.1059595  54.3899820 108.3848986  66.6411042
  54.0698576 107.4110345  67.0115207  53.1883787 109.0702338  65.9507239
  52.6371278 108.3586482  65.3360145  52.5165357 109.5093665  66.6882126
  53.7201843 110.0961908  65.1250647  53.0029868 110.5491927  64.6756018
  55.4600904 108.1471352  65.5616681  55.2169644 107.3224418  64.7390457
  56.6385106 108.8374543  65.6207811  56.8494053 109.3631992  66.4569719
  57.5997895 108.8515632  64.5420328  57.0838960 109.0009862  63.5935468
  58.3137182 109.6603013  64.6980710  58.3573208 107.5200045  64.4934043
  59.0375155 107.3100083  63.4663732  58.1676503 106.6850709  65.4715480
  57.3312034 106.8528500  66.0122014  59.0324807 105.5511476  65.8538233
  58.4572688 104.7963566  66.3900331  59.4856060 105.1019537  64.9700803
  60.1207968 106.0667598  66.7529552  59.9639960 106.3275061  67.9372283
  61.2623981 106.3109620  66.0380281  61.2898683 105.9947693  65.0791919
  62.5510276 106.8716797  66.6568727  62.3363983 107.5566730  67.4771274
  63.4208825 105.7008463  67.2011554  64.3406562 106.1034190  67.6254805
  62.6456023 104.9313323  68.2912387  61.7258655 104.5280432  67.8675151
  63.2609709 104.1138390  68.6669053  62.4015933 105.6078192  69.1103392
  63.8092600 104.7958906  66.2071674  64.3406568 104.0989257  66.5989041
  63.3183684 107.8279203  65.7103135  63.0721672 107.8623965  64.5131125
  64.1790541 108.6580024  66.3664124  64.1724627 108.6479096  67.3763401
  65.0091622 109.7085912  65.6658607  65.1683156 109.4487298  64.6193229
  64.2399224 111.0355161  65.7303145  63.2735109 110.8332770  65.2685261
  64.0250368 111.6553127  67.1091307  64.9910752 111.8582754  67.5713813
  63.4689824 112.5871780  67.0065156  63.4614376 110.9635601  67.7351777
  64.8948333 112.0828251  64.9824638  64.3825288 112.8919605  65.0491298
  66.4596024 109.8181358  66.1419533  66.7164367 109.5590310  67.2881352
  67.3501992 110.3112794  65.2407177  67.0497228 110.4466745  64.2860023
  68.7002940 110.5370453  65.5518607  69.0745535 109.6819734  66.1147825
  69.4506174 110.6221494  64.2522607  69.0932800 111.4790994  63.6812557
  70.5154185 110.7390055  64.4538633  69.2880526 109.7101486  63.6778685
  68.9173582 111.8086152  66.4847879  68.1206078 112.7461487  66.5360679
  69.9895023 111.6623944  67.2115261  70.3806200 110.7347846  67.2931746
  70.5995684 112.7638960  68.0218918  69.7909383 113.4399597  68.2996587
  71.3286804 112.3389019  69.2796058  71.9043311 111.5407935  68.8108323
  72.0097158 113.0828023  69.6930099  70.4538502 111.7450400  70.4221592
  71.1234864 111.6010929  71.2700787  69.2234757 112.6040601  70.8692039
  68.5531084 112.7480518  70.0218710  68.6915925 112.0891050  71.6692179
  69.5679824 113.5738823  71.2281752  70.0437931 110.2853873  70.3026055
  70.9350200 109.6589178  70.2658628  69.4389169 110.0055613  71.1651155
  69.4631377 110.1440643  69.3910320  71.5564596 113.6456770  67.1349428
  71.7464635 114.8259426  67.4951796  72.0646693 113.0471983  66.0452987
  71.6996477 112.1073455  65.9858401  73.0321120 113.4708580  65.0570993
  72.8129686 114.4851750  64.7235779  74.4770579 113.4499564  65.6928872
  75.1826911 113.8739337  64.9784474  74.4718299 114.0543736  66.5999443
  74.9080975 111.9813607  66.0452799  74.1661430 111.5181397  66.6956880
  75.0109584 111.3914802  65.1344766  76.2599141 112.0403893  66.7719969
  76.1378652 112.5602213  67.7222483  76.6167304 111.0270193  66.9560152
  77.2838499 112.7691611  65.9536716  77.1365328 112.5881941  64.9709977
  78.3368240 113.4610400  66.3106283  78.4548256 113.8126944  67.5637667
  77.7415849 113.5488676  68.2284344  79.2587082 114.3466478  67.8617033
  79.1857877 113.9123713  65.4275146  79.0344977 113.7283561  64.4460107
  79.9899050 114.4434443  65.7299307  72.9152723 112.5982384  63.8579602
  72.7356297 111.3844668  63.9990167  73.2124783 113.1129535  62.6955063
  73.6616294 114.4562957  62.3847188  74.6677226 114.5610617  62.7907986
  72.9903958 115.1464477  62.8958301  73.6222188 114.6190455  60.8915101
  74.6213295 114.8417266  60.5169569  72.9456721 115.4312347  60.6255503
  73.1068138 113.2769470  60.3509341  73.7599168 112.9849654  59.5285581
  72.0760638 113.3176111  59.9987971  73.2263730 112.2833585  61.4775420
  72.3605682 111.6211847  61.4800243  74.5120997 111.4437403  61.4392132
  75.4717388 111.8890984  62.1016859  74.5126731 110.2988243  60.7342217
  73.6250100 109.9865885  60.3672578  75.6972716 109.3735698  60.6227251
  76.5899259 109.9464089  60.3714824  75.9433240 108.6348325  61.9706255
  76.7724778 107.9425973  61.8242918  76.2214097 109.3821039  62.7138306
  74.7971123 107.9147499  62.4258322  75.0017636 107.4796423  63.2567347
  75.4959556 108.5210985  59.4114701  74.3748825 108.4963070  58.8596855
  76.5346148 107.7569285  58.9841912  77.4149180 107.9304003  59.4479512
  76.5386248 106.9298108  57.7637461  76.7915120 107.6156898  56.9552183
  77.7108293 105.9806891  57.9817427  77.4690218 105.2817363  58.7824262
  77.9062650 105.4269333  57.0634510  78.5968096 106.5535746  58.2554950
  75.1750360 106.3699107  57.3226639  74.7812051 106.6139891  56.1611477
  74.3995543 105.5972235  58.1471538  74.7380767 105.3664568  59.0703269
  73.1650864 105.0673997  57.7391957  73.2375809 104.6507841  56.7345688
  72.7651283 103.9367364  58.7153468  71.8125531 103.5130933  58.3971861
  73.5316364 103.1620438  58.6949302  72.6417710 104.4360377  60.0162692
  72.3934729 103.7238252  60.6101558  72.0030519 106.0946048  57.6545878
  71.0667051 105.7301131  56.8974204  72.0453043 107.3905576  58.0495231
  72.8025167 107.5399992  58.7009799  71.0889817 108.4960137  57.8199691
  70.1913784 108.0427362  57.3993184  70.6823596 109.3077044  59.1385796
  69.6468505 109.6373537  59.0540064  70.8389291 108.3715218  60.4205316
  71.8743483 108.0418311  60.5060357  70.5607975 108.9294359  61.3146646
  70.1887851 107.5026539  60.3181506  71.4762912 110.4399908  59.4171636
  71.1618726 110.8615013  60.2203262  71.4635797 109.4459297  56.7119723
  70.6262890 109.9489906  55.9515750  72.7664340 109.6005686  56.4296489
  73.4271451 109.1114713  57.0164571  73.2831808 110.4455871  55.3664093
  72.5909673 111.2597768  55.1518523  74.6701675 111.0677471  55.8348819
  75.3861005 110.2654696  56.0134600  75.0526306 111.7288860  55.0572461
  74.4682879 111.8498644  57.1022584  73.7307483 112.6220880  56.8836106
  74.0986708 111.2120795  57.9052003  75.7233383 112.5062300  57.5561790
  76.6955072 111.9513711  58.0450604  75.8230958 113.8339957  57.4881001
  76.6709068 114.2899843  57.7937017  75.0504000 114.3777700  57.1312358
  73.4842748 109.6249086  53.9870666  73.8612429 110.2544773  52.9613009
  73.2421449 108.3059085  53.9386625  73.0841512 107.8542216  54.8281096
  73.1884902 107.4559912  52.6789241  74.1829204 107.2041647  52.3104256
  72.4599486 106.1534739  53.0585829  71.4591899 106.3886605  53.4208941
  72.3865198 105.5090278  52.1825705  73.0177308 105.6394845  53.8413940
  72.4152882 108.1781494  51.5147175  71.3413473 108.7683218  51.7435549
  72.8720130 107.9806160  50.2796146  73.8152266 107.6334696  50.1799310
  72.1582879 108.4177891  49.0698997  71.8060890 109.4428174  49.1855376
  73.1261821 108.3592400  47.8551512  73.4047934 107.3084888  47.7751709
  72.5567144 108.6517588  46.9729724  74.3751441 109.2054290  47.9516868
  75.0061260 108.7980702  48.7416370  75.1494610 109.2180916  46.6393382
  74.5192413 109.6257800  45.8489509  76.0402910 109.8366540  46.7484397
  75.4435179 108.2009103  46.3805465  73.9864943 110.6656869  48.3483973
  73.4782569 110.6577422  49.3126229  74.8870925 111.2757544  48.4179807
  73.3225903 111.0838196  47.5917629  70.7771645 107.7157372  48.7913426
  69.8968204 108.3003222  48.2153775  70.6115727 106.4797637  49.2480756
  71.4489040 105.9868390  49.5237579  69.3003982 105.7718052  49.3681640
  68.4665521 106.4723921  49.3236901  69.1868195 104.7679958  48.1399113
  69.9751439 104.0239821  48.2543120  68.2146025 104.2798760  48.2079783
  69.3092322 105.3856939  46.9000250  69.2318281 104.7274232  46.2055554
  69.1366096 104.9854385  50.6633399  70.1520861 104.7752099  51.2980032
  68.0028129 104.4259055  50.9689949  67.2648679 104.5922629  50.2997701
  67.6477935 103.7674425  52.2714777  68.4684558 103.1742894  52.6749401
  67.3634917 104.9024301  53.2187368  68.3012010 105.3914432  53.4826811
  66.7051207 105.6202601  52.7294846  66.7674230 104.4356410  54.3400419
  66.5907345 105.1667638  54.9365655  66.5974195 102.6708237  52.1292393
  65.8480143 102.7060397  51.0980780  66.5150510 101.7375868  53.0456357
  67.3803599 101.4965524  53.5074174  65.3702057 100.8172947  53.1809890
  64.4375569 101.3516341  53.0000285  65.4876774  99.6936226  52.1725037
  64.6159604  99.0641182  52.3512015  65.3924011 100.1778980  51.2006499
  66.6722827  98.8852544  52.1893917  66.6134344  98.2169491  51.5027297
  65.0101230 100.4832770  54.6784861  65.9520385 100.4615502  55.4498421
  63.7464501 100.2546264  55.0125500  63.0212270 100.1402555  54.3189578
  63.3567438 100.2270154  56.4587985  64.2478756 100.0831880  57.0697788
  62.7407918 101.6000964  56.8006373  61.8778300 101.7735522  56.1577459
  62.2933896 101.6349403  58.2880142  63.1559579 101.4620097  58.9315761
  61.8608109 102.6093115  58.5151199  61.5490569 100.8579782  58.4623712
  63.7767941 102.7246846  56.6306095  64.1256806 102.7449429  55.5981514
  63.3182236 103.6822176  56.8774766  64.6215267 102.5447886  57.2955645
  62.3855224  99.0440452  56.6562486  61.4092714  98.8185601  55.9417290
  62.8542548  98.0902896  57.4914798  63.8142051  98.1922242  57.7884715
  62.0675263  96.9674895  58.0393824  61.8699572  96.2147994  57.2761503
  62.9265127  96.2995992  59.2025707  63.1544505  97.0658865  59.9434805
  62.3267270  95.5153565  59.6644371  64.1497799  95.7360180  58.7055924
  64.6397059  95.3437454  59.4320182  60.7437569  97.3872792  58.6868145
  60.6571154  98.5293810  59.1796896  59.6988804  96.6073967  58.5172819
  59.7992826  95.6937323  58.0986697  58.3346390  97.0919841  58.8255322
  58.2640770  98.1512580  58.5784309  57.2244863  96.2949211  57.9863132
  56.2595774  96.6951170  58.2975900  57.3980981  96.5402743  56.9385724
  57.2259305  94.9239521  58.1437267  56.5306171  94.5392858  57.6050515
  58.0343674  97.0390640  60.3529095  58.3343115  95.9724171  60.9860959
  57.3863570  98.1549535  60.7768872  57.0802999  98.8094285  60.0711316
  57.3148489  98.5848017  62.2464807  58.2581067  98.3490070  62.7391923
  57.0555331 100.1100593  62.3753596  57.1335861 100.4815207  63.3971342
  57.6810455 100.7162970  61.7201420  55.7108377 100.1884475  61.9473530
  55.4175438 101.1019820  61.9794979  56.4003872  97.7303321  63.1343363
  56.5191644  97.6297969  64.3532709  55.4253215  97.0130391  62.5242030
  55.3395632  97.1556275  61.5280035  54.4464648  96.2259144  63.1759845
  54.3701099  96.4930236  64.2299873  53.0784111  96.4949358  62.4960923
  52.8659443  97.5638612  62.5149469  53.1107639  96.1496261  61.4627411
  51.9795768  95.7434973  63.2504062  52.1998620  94.6783973  63.1787315
  52.0249832  96.0539376  64.2942775  50.6051689  96.0069940  62.7100385
  50.6648271  96.0629659  61.6231130  49.9558152  95.1794182  62.9956213
  50.0312548  97.3196585  63.2585889  49.8286475  97.2173153  64.3246924
  50.7441017  98.1290128  63.1008100  48.7627354  97.6281254  62.5395306
  48.1019063  96.8784830  62.6859581  48.3763912  98.4914960  62.8936908
  48.9503279  97.7234212  61.5516912  54.8011160  94.7509778  63.2838438
  54.4023168  93.8794625  62.4776712  55.6714017  94.4988932  64.2577176
  56.0754009  95.3006907  64.7203240  56.1633533  93.1451289  64.6336363
  56.6433769  92.6453468  63.7922717  57.2513858  93.3507715  65.7971784
  58.0826040  93.8907704  65.3437727  56.7948822  93.9696837  66.5696111
  57.7751028  92.0331954  66.4321538  56.9796547  91.6388826  67.0645149
  58.1912246  90.9507753  65.3825904  58.9870113  91.3442202  64.7501164
  58.5462374  90.0596148  65.9001806  57.3308285  90.6930889  64.7650009
  58.9766566  92.2951158  67.3015417  58.7041780  92.9843833  68.1007696
  59.3241180  91.3569658  67.7342614  59.7725353  92.7338337  66.6997090
  54.8895840  92.2904718  65.0068143  54.3363378  92.2962212  66.1528299
  54.3944056  91.4393981  64.0617021  54.8856837  91.3555294  63.1832311
  53.2136169  90.6236126  64.2696875  52.3540759  91.2466004  64.5170225
  52.9112248  89.8654687  62.9849821  53.8081727  89.2818732  62.7776176
  52.0487447  89.2006586  63.0324742  52.6817988  90.8300757  61.7085064
  51.8348093  91.9180361  61.8792050  51.3407919  92.1332716  62.8266861
  51.6246041  92.7581896  60.7686899  51.0316841  93.6613512  60.9130704
  52.1446900  92.4660272  59.5248275  51.9052513  93.1513248  58.7117247
  52.9696818  91.3171773  59.2761700  53.4019751  91.0282338  58.3181855
  53.2004323  90.5441537  60.4008792  53.8147433  89.6466517  60.3286845
  53.4390727  89.5962755  65.3715574  52.4680840  89.2141646  65.9921155
  54.6318951  89.2797603  65.7956679  55.4266082  89.6457617  65.2911150
  54.8843154  88.3603975  66.9394362  54.1227858  87.5807962  66.9592739
  56.2987269  87.6793004  66.8046331  57.0653132  88.4006508  66.5216168
  56.5929101  87.1808094  67.7282472  56.1522290  86.7132631  65.7706653
  56.9869181  86.2581541  65.6373617  54.7947913  89.0122503  68.3022243
  55.4943175  88.5921905  69.2042681  54.1510409  90.1665446  68.4420244
  53.6568022  90.5047044  67.6287130  54.0545589  90.9384239  69.6847325
  53.9082024  90.2593362  70.5246842  55.3139974  91.7410224  69.9257641
  56.1708211  91.0679227  69.9555842  55.4448130  92.4592164  69.1163294
  55.2158775  92.4175705  71.1322057  56.0171123  92.9251394  71.2805176
  52.9042656  91.9648468  69.5606211  52.3175634  92.1545852  68.4901587
  52.5756209  92.5423517  70.6744841  52.9739701  92.0516157  71.4622629
  51.5625431  93.5546881  70.9328220  51.2521563  93.9882924  69.9821662
  50.3057688  92.9794973  71.6515876  50.5282979  92.6274466  72.6588812
  49.4854451  93.6961841  71.6906906  49.9334132  91.8793058  70.8382095
  49.1555436  91.4561050  71.2089114  52.0860164  94.9104027  71.5294204
  51.4223588  95.6522951  72.1985619  53.3621723  95.1496590  71.3803340
  53.9480177  94.3534031  71.1733050  54.0214737  96.4894519  71.5762152
  53.2895730  97.2531460  71.3131716  54.5125023  96.7499252  73.0421230
  53.6728683  96.6220272  73.7253192  55.6271399  95.7708361  73.4156380
  56.4673642  95.8984714  72.7331192  55.9559557  95.9660346  74.4363617
  55.2533778  94.7494350  73.3439287  55.0365453  98.0484671  73.2000370
  55.3253686  98.1687829  74.1076192  55.1689977  96.5806478  70.5772688
  55.4551363  95.6008923  69.8643719  55.6721236  97.7885779  70.3604136
  55.1086748  98.4895635  70.8200265  56.7832511  98.2246389  69.5606364
  56.5317324  98.2302369  68.5000676  56.9893173  99.6697624  70.0221910
  57.2507719  99.6799930  71.0803199  57.7943610 100.1247389  69.4451284
  56.0697401 100.2348969  69.8702041  58.0705262  97.3241996  69.6904129
  58.2248773  96.6742576  70.7026941  58.9383187  97.3194929  68.6364490
  58.9550786  98.1263436  67.4570012  59.3588314  99.1085164  67.7028069
  57.9362338  98.2355404  67.0853422  59.8549297  97.3440061  66.4823391
  60.4180402  98.0583343  65.8817220  59.2202249  96.7431115  65.8310506
  60.7589383  96.4795400  67.2875694  61.7777259  96.8557440  67.3805289
  60.7804338  95.4738429  66.8677945  60.0797665  96.4573675  68.6724574
  59.7251215  95.4325082  68.7819502  61.0232806  96.7918944  69.8181873
  61.4498839  95.8894278  70.4976154  61.2828077  98.1042703  70.1453878
  61.0039897  98.7316904  69.4046424  62.0829549  98.6369394  71.2342795
  62.9583070  97.9932066  71.3206859  62.5511238 100.0793075  71.1005857
  63.0427148 100.4115517  72.0149442  63.2556169 100.1311866  70.2704664
  61.4611953 101.0839521  70.8061047  60.5037335 101.0028075  69.7448491
  59.7132106 102.1040725  69.8634659  58.9140032 102.2841629  69.1444847
  60.1166107 102.8217228  70.9531670  59.6674997 103.6500918  71.3167657
  61.2518382 102.2307518  71.4903167  61.7804514 102.7133538  72.3123657
  61.4024171  98.2747591  72.5055811  62.1445120  98.0026783  73.4962259
  60.1006335  98.2337572  72.5705994  59.5121859  98.3714066  71.7613520
  59.4650793  97.9081434  73.8382447  60.0173169  98.3463203  74.6695893
  58.0000003  98.5002241  73.8373316  57.5782824  98.4819906  72.8323834
  57.3561998  97.9350467  74.5112718  58.0990671  99.9428007  74.3203952
  58.8597413  99.7774303  75.0833685  58.4874251 100.6229198  73.5622953
  56.8447340 100.5608598  74.9709706  55.8174418  99.8423316  75.1215731
  56.7743042 101.7937854  75.1589946  59.3310736  96.3699799  73.9850624
  59.0750870  95.9273107  75.1148765  59.4167011  95.5320422  72.9240146
  59.4301700  95.9117886  71.9882205  59.4372769  94.0438575  73.0864737
  58.7914390  93.7269851  73.9053660  58.9215704  93.3957524  71.7659573
  59.5637070  93.7257344  70.9493345  58.9339814  91.9068151  71.8368480
  58.2916558  91.5760448  72.6530026  58.5673255  91.4947224  70.8967192
  59.9520519  91.5594003  72.0127343  57.5825468  93.7464276  71.3840884
  57.3566936  93.3012779  70.5640686  60.7870128  93.5319108  73.4242436
  60.9323045  92.6516260  74.2780786  61.8437197  94.1642680  72.8946315
  61.5947334  94.8181816  72.1662757  63.2367711  94.0006171  73.2177477
  63.4385123  93.0871069  73.7771212  63.9394047  93.8982688  71.8222245
  63.2970551  93.3263277  71.1526205  64.0709432  94.9053284  71.4264612
  65.1972226  93.2643627  71.9227541  65.6019332  93.2167565  71.0535345
  63.7677604  95.1254150  74.0258430  64.6308515  95.8827927  73.6556826
  63.1309771  95.2031799  75.1747402  62.3048622  94.6481697  75.3467787
  63.5240261  96.1509437  76.1601838  63.6999739  97.1276099  75.7093350
  62.4008930  96.2809565  77.1796433  61.4932867  96.6567504  76.7072780
  62.2076650  95.2959271  77.6044726  62.6910387  97.1826615  78.3162838
  62.7971518  98.5957904  78.1654237  62.5609122  99.0197965  77.1894578
  63.1944566  99.4462556  79.2322545  63.3563494 100.5091102  79.0527234
  63.3806217  98.9093987  80.5342331  63.6079167  99.5431461  81.3914385
  63.2672962  97.5578890  80.6951458  63.5056103  97.1321594  81.6698565
  62.8537710  96.7162357  79.6388624  62.6471148  95.6632174  79.8300310
  64.8413920  95.7336338  76.7403852  65.0044887  94.6201885  77.1005795
  65.7087692  96.7108485  76.9394991  65.4229206  97.6729739  76.8267842
  67.1119123  96.4358164  77.3296629  67.1992685  95.5587712  77.9709583
  67.7670239  96.3205779  76.4661537  67.5325151  97.6485917  78.1023209
  66.7397466  98.0953755  78.8827921  68.7996101  98.1088038  77.9056381
  69.3092145  97.4348251  77.3523250  69.5595092  99.2632033  78.5019433
  68.8920633  99.8049929  79.1720771  70.8062521  98.8267063  79.2956143
  71.4751136  98.2954028  78.6185322  71.3045530  99.7207715  79.6703724
  70.4366493  97.9044285  80.4854779  69.7170543  97.1878524  80.0894948
  71.3272610  97.3749282  80.8239144  69.8157879  98.6518251  81.6563257
  70.2976009  99.7978102  81.9668210  68.9182987  98.1695485  82.3145090
  69.8274920 100.3651820  77.4618961  70.7598088 101.1248266  77.7412729
  69.1770433 100.3607082  76.2942894  68.4910718  99.6282980  76.1797567
  69.3803081 101.3030296  75.1874132  69.4149484 102.3361599  75.5331601
  70.7740180 100.9376803  74.5538940  71.0579522 101.7017411  73.8302286
  71.5287695 100.8826304  75.3383810  70.6674448  99.5455896  73.8310893
  69.6155451  99.4936502  73.5501800  71.2868794  99.3582133  72.9539974
  70.9613049  98.4946829  74.8936360  69.9991393  97.7248908  75.2414554
  72.0607681  98.4916153  75.5488560  68.3103545 101.2406559  74.1198928
  67.4627141 100.3690933  74.1491910  68.1554720 102.3372299  73.3110462
  68.5380996 103.2064250  73.6548417  67.3644155 102.3618694  72.0196862
  66.9955847 101.3484624  71.8613533  66.1910064 103.3081719  72.0124825
  66.6071978 104.3092627  72.1251821  65.3106096 103.2629903  70.7780198
  64.8936579 102.2622617  70.6649066  64.4999612 103.9841001  70.8826638
  65.9046903 103.5100959  69.8981855  65.2150474 103.0672963  73.1212033
  65.7186104 103.1836491  74.0808847  64.3989364 103.7863350  73.0501694
  64.8157721 102.0562168  73.0412136  68.2974207 102.6577732  70.7936246
  68.9218713 103.7102517  70.7100513  68.4693708 101.6934826  69.9291763
  68.0429513 100.7959498  70.1100097  69.3870860 101.8033822  68.8241918
  69.4982505 102.8400702  68.5063559  70.7295231 101.2953235  69.2904631
  71.3560646 101.1455214  68.4111995  71.1751540 102.0592118  69.9276347
  70.6224497 100.0009753  70.0575668  70.3582130 100.3952684  71.0387970
  69.8052569  99.3852008  69.6819114  71.8487280  99.1780650  70.1704125
  71.7782521  97.9372521  70.1566451  72.9718233  99.6856847  70.4271617
  68.8892724 101.1634985  67.4841241  68.3517588 100.0389410  67.5532210
  69.1003888 101.8034909  66.3318768  69.4414807 102.7479062  66.4406670
  68.7552239 101.3384196  64.9805834  68.0500060 100.5157965  65.0991504
  68.1352441 102.3815008  64.0656705  68.8406771 103.2003693  63.9245397
  67.7919179 101.7362231  62.6665726  67.0861266 100.9175160  62.8068514
  67.3480187 102.4906506  62.0170397  68.7041993 101.3542892  62.2083468
  66.8844235 102.8942580  64.6797331  67.1117459 103.3460479  65.6452964
  66.4379434 103.6427054  64.0250717  66.1840219 102.0709796  64.8202718
  70.0160440 100.6670322  64.3589391  71.0057131 101.3666061  64.0914126
  70.1329597  99.3457246  64.2872323  69.5360388  98.7828653  64.8762775
  71.1160695  98.6699593  63.4556764  72.1146800  99.0927145  63.5659232
  71.1391410  97.1751080  63.9768252  70.0899068  96.8797999  63.9769071
  71.7038993  96.5075022  63.3260944  71.6510212  96.9482277  65.3760568
  72.9542149  96.5910080  65.8582820  72.8765766  96.4578145  67.1177795
  73.7581123  96.0598611  67.6203994  71.7058021  96.8386950  67.5944115
  71.4183578  96.8889043  68.5613420  70.8922640  97.1766382  66.4874137
  69.8758916  97.5363734  66.6476601  70.7453754  98.8023822  61.9872762
  69.5830891  98.8177854  61.6140492  71.7523358  98.5815785  61.1054500
  72.5413942  98.0595451  61.4589570  71.7425369  98.9400650  59.7255871
  70.7333277  98.8462868  59.3245862  72.1886646 100.3360875  59.5576550
  73.2523434 100.3269470  59.7955691  72.0512955 100.6451589  58.5214578
  71.5144693 101.3197424  60.4388573  70.4565693 101.8184182  60.2245931
  72.3015025 101.5976004  61.4589792  71.9974353 102.2547335  62.1631233
  73.2050078 101.1520945  61.5318041  72.7398418  98.1408522  58.9141366
  73.6656772  97.5520714  59.4662914  72.5788975  98.1325089  57.5912385
  71.7033389  98.5123032  57.2607046  73.5205812  97.5457775  56.5887854
  74.4776353  97.3588139  57.0758082  73.0091076  96.2337274  55.9980533
  73.1215416  95.4472016  56.7442670  71.9494845  96.4059644  55.8092854
  73.7292390  95.7845768  54.6347483  73.5106300  96.5799406  53.9222124
  75.2343178  95.5336416  54.6706149  75.4536747  94.7380290  55.3826415
  75.5776462  95.2381124  53.6792074  75.7480241  96.4453220  54.9756477
  73.1137378  94.4130737  54.2145347  72.0408173  94.5277389  54.0602854
  73.5790957  94.0736612  53.2891469  73.2908777  93.6787241  55.0003152
  73.7734530  98.5864820  55.5207536  72.8754496  98.8969961  54.7688815
  74.9878227  99.1595949  55.5586224  75.5413584  98.8398051  56.3405636
  75.5742207 100.1113701  54.6509710  74.8592719 100.8740829  54.3423991
  76.7116903 100.7899862  55.4239020  77.4578741  99.9973721  55.4793253
  77.0761682 101.5867120  54.7754547  76.4541321 101.3566534  56.8431078
  76.0765288 100.5674671  57.4932628  77.8181189 101.9138431  57.4266277
  78.1961282 102.7034419  56.7772113  77.6493337 102.3155411  58.4257528
  78.5483913 101.1063305  57.4788387  75.4156931 102.4428860  56.9292187
  74.4589929 102.0606993  56.5731885  75.3139456 102.7677220  57.9647042
  75.7210861 103.2879497  56.3122087  76.1461002  99.4159269  53.4099333
  76.8010734  98.3244663  53.5191392  76.0386279 100.0571844  52.2191166
  75.5343708 100.9321424  52.2026039  76.5152915  99.5024016  50.9420571
  77.2890885  98.7361295  50.9885800  75.3586050  99.0188799  50.0059700
  74.5941218  99.7958393  50.0058564  75.8073017  98.7422955  48.5630777
  76.5715024  97.9650585  48.5623399  74.9524903  98.4111958  47.9733564
  76.2167463  99.6540973  48.1282539  74.4547351  97.9465062  50.4965655
  73.9840003  98.3173116  51.4070669  73.6940753  97.7947882  49.7307471
  75.1798383  96.5711505  50.7998676  75.9403749  96.7219889  51.5659824
  74.4483354  95.8442847  51.1529523  75.6504521  96.1994665  49.8896624
  77.3618504 100.6217978  50.4067141  76.8015506 101.6559650  50.1141931
  78.6469384 100.4754489  50.3904388  78.9688814  99.5211063  50.4658193
  79.6734046 101.5726544  50.3499806  79.1215398 102.5028759  50.2149534
  80.5317872 101.6666429  51.6209296  80.8946756 100.6537674  51.7955596
  81.7414787 102.6599830  51.6141531  81.3793045 103.6732010  51.4400274
  82.2524568 102.6176240  52.5760304  82.4362515 102.3818301  50.8216754
  79.5714527 102.1454282  52.7176896  79.3904072 103.2046875  52.5352255
  78.6426848 101.5905153  52.5851711  80.0893728 101.9506165  54.1752661
  81.0179379 102.5056524  54.3086904  79.3425747 102.3183229  54.8789590
  80.2702177 100.8914797  54.3586352  80.5473713 101.3886537  49.1435681
  81.1407445 100.3695200  48.9343509  80.6034297 102.4419664  48.3825795
  79.9709432 103.2034184  48.5832060  81.4927847 102.5595249  47.2027415
  81.1731256 101.8598666  46.4304751  81.4448455 103.9784672  46.6278861
  80.4476257 104.3465438  46.3866985  81.8739680 104.5878401  47.4232593
  82.3187732 104.0614127  45.4060250  82.3027894 103.1393110  44.6041385
  82.9103210 105.1046014  45.1931455  82.9530808 102.2046492  47.4160479
  83.6278245 102.9122371  48.1316255  83.5364873 101.2939561  46.6401259
  82.9260849 100.7589517  46.0390615  84.9221958 100.9441691  46.6832771
  85.2212944 100.7213402  47.7074775  85.1749356  99.6881803  45.8086716
  86.1377884  99.2901409  46.1289502  84.3862690  98.9812797  46.0663468
  85.1916869  99.9130266  44.2306816  84.2232336 100.3654561  44.0173592
  85.9844651 100.5543068  43.8455004  85.2684729  98.5377617  43.5063507
  85.4814221  97.4569358  44.1245425  85.2473983  98.5988468  42.1759581
  85.2936774  97.7480625  41.6336245  85.1852335  99.4956701  41.7155832
  85.9430218 102.0265566  46.3207558  87.0939222 101.9059026  46.6483576
  85.5160993 102.9904449  45.5233434  84.5624037 102.9280668  45.1967351
  86.3868305 104.0289479  44.9435257  87.4370271 103.7414197  44.9936633
  86.0051492 104.1761327  43.5247780  86.4951785 103.2868723  43.1283104
  84.9473992 104.1549277  43.2624512  86.6106917 105.3683551  42.7966722
  88.0060362 105.5552376  42.5585406  88.0880814 106.5185441  41.6117845
  89.0627772 106.7654276  41.1909334  86.8364935 107.0293232  41.3517873
  86.6125979 107.8103091  40.7517609  85.9086179 106.2802755  42.0641912
  84.8440585 106.4907206  41.9615875  86.4663706 105.3608743  45.7095331
  87.4821332 105.9817156  45.7157278  85.3599314 105.8856798  46.2484835
  84.5170073 105.3677521  46.0451879  85.2519369 107.0916883  47.0696404
  86.1943644 107.6270775  47.1849149  84.2384248 108.0269451  46.4803885
  84.1362644 108.8838182  47.1462954  84.6486488 108.5090905  45.0898401
  84.7505610 107.6527532  44.4232068  83.8870897 109.1841702  44.6994632
  85.6013735 109.0348052  45.1534029  82.9783900 107.3785871  46.4751673
  82.3179505 107.9657591  46.1001353  84.8174350 106.9542776  48.5891717
  84.6712132 107.9414813  49.2832849  84.4905656 105.7482908  49.0392455
  84.7146164 105.0156786  48.3810815  83.7741378 105.3917528  50.2451400
  83.3838517 104.3749816  50.2009545  84.8097270 105.4774091  51.4055206
  85.5810021 106.2406846  51.3023491  84.2031852 105.6911472  52.2855906
  85.5234059 104.1769302  51.6787569  85.2005249 103.4374646  52.8154246
  84.6058599 103.9041595  53.6007075  85.6263565 102.1218730  52.9551823
  85.2912312 101.5266389  53.8045869  86.5231296 101.5375603  51.9631790
  86.8322398 100.4934704  52.0124449  86.9904455 102.3613019  50.9224756
  87.8041610 102.0276788  50.2785323  86.4029470 103.6181960  50.7160589
  86.6202347 104.1786531  49.8067879  82.4446704 106.1803472  50.5817545
  82.1387682 106.2990861  51.7414587  81.6719558 106.5778251  49.5992961
  82.0402171 106.5200875  48.6606005  80.3293728 107.0641956  49.7766696
  80.2887910 107.8350172  50.5462710  79.8737839 107.6762379  48.4450431
  80.5773973 108.4821813  48.2365180  79.9952764 106.8874097  47.7026891
  78.4618656 108.2121194  48.3837845  78.0870040 108.4729015  47.3940511
  77.8713009 107.3913261  48.7907622  78.3490800 109.4435038  49.3199159
  78.2686978 109.2966673  50.5992965  78.5005703 110.5713455  48.7799503
  79.4158027 105.8852790  50.1386551  79.5242241 104.7427651  49.5819641
  78.4572877 106.2231242  50.9983379  78.4753371 107.1443456  51.4120101
  77.3794243 105.2832606  51.4144194  77.7903270 104.2738236  51.4315973
  76.8318340 105.6061416  52.7884736  76.3908184 106.6029135  52.7813922
  75.7423393 104.5595110  53.1664560  76.1827432 103.5624727  53.1741971
  75.3453831 104.7884946  54.1554418  74.9352548 104.5939728  52.4346578
  77.9341961 105.5648430  53.9071189  78.7117584 106.2937921  53.6787947
  77.4840696 105.8042322  54.8705392  78.3726626 104.5678102  53.9492333
  76.2878631 105.3933718  50.3182275  75.4182831 106.2600446  50.4361677
  76.2650334 104.4396958  49.4576707  77.0104235 103.7603280  49.5120051
  75.3167616 104.3288576  48.3777112  75.1217345 105.3185414  47.9646862
  75.8379609 103.4456961  47.2813641  75.8589606 102.4295805  47.6752769
  75.0625631 103.5234217  46.5192505  77.2109129 103.7840349  46.6556624
  77.9685600 103.8408331  47.4372285  77.5926604 102.6669562  45.6447668
  76.8356647 102.6098649  44.8625922  78.5599271 102.8960147  45.1975219
  77.6505002 101.7104327  46.1642065  77.0668675 105.0910067  45.8875630
  76.7588698 105.8825077  46.5707637  78.0228009 105.3541882  45.4347627
  76.3156785 104.9731720  45.1065835  73.9024615 103.8513119  48.7191705
  73.0180300 104.4863417  48.1715711  73.7397999 102.9026953  49.6144368
  74.5347041 102.3307176  49.8615567  72.4438471 102.6133690  50.2559783
  71.8369904 103.5178057  50.2986191  71.6520423 101.5045815  49.4115107
  71.6475889 101.9194594  48.4035644  72.1712333 100.5461864  49.4070844
  70.2282486 101.2177857  49.7619898  69.0967349 101.6270003  49.0962639
  68.0820913 101.1371152  49.7319533  67.0889732 101.4103374  49.3753514
  68.4720562 100.3429864  50.7651236  67.9110476  99.8150976  51.4183483
  69.8215663 100.3878350  50.7628936  70.3872932  99.8095786  51.4934234
  72.5545618 102.1067231  51.7170434  73.4011615 101.2387868  51.9615053
  71.6337517 102.5003604  52.5926504  71.0914568 103.3019978  52.3038720
  71.5392448 102.0574904  54.0136316  72.3170776 101.2939524  54.0228473
  71.9576119 103.1902977  54.9439035  71.1844183 103.9585428  54.9523383
  72.0934033 102.8011148  55.9529613  72.8945930 103.6224042  54.5925495
  70.2273485 101.3021451  54.4170007  69.2405315 102.0016487  54.6606071
  70.2056869  99.9913811  54.4311261  70.9375377  99.4879323  53.9504673
  69.1092682  99.2292859  55.0095748  68.1497855  99.6238602  54.6752047
  69.2209983  97.8136461  54.5676457  69.1807821  97.7736462  53.4791229
  70.1269004  97.3173742  54.9157198  68.0895058  97.0163125  55.0595896
  66.7452200  97.0262523  54.6095686  66.1004100  96.0864650  55.3451290
  65.0309030  95.9211957  55.2149761  67.0162275  95.4788477  56.1824255
  66.8310347  94.7104842  56.8112507  68.2494173  96.0981595  56.0225357
  69.0971359  95.7907621  56.6348928  69.0814719  99.3959614  56.5243060
  70.1942898  99.3679885  57.1393343  67.9038930  99.5418883  57.1372777
  67.0693801  99.5422759  56.5683424  67.7557619  99.7150014  58.6034076
  68.7379821  99.8228292  59.0635336  66.9281138 100.9680282  58.9154852
  65.9367779 100.8427057  58.4800009  66.8397745 101.0611052  59.9979051
  67.5841124 102.2411674  58.3420522  68.6528598 102.1402485  58.5309838
  67.4154940 102.3733324  57.2733135  67.0825344 103.4606050  59.0615301
  66.5122979 103.4598796  60.1752594  67.1828976 104.5904766  58.4177286
  66.8622613 105.4449262  58.8504061  67.5807835 104.6056735  57.4895275
  67.0247288  98.3818447  59.0994538  65.9275030  98.0781053  58.6211361
  67.5770381  97.5636540  59.9704351  68.5768869  97.4289079  60.0178188
  66.7220657  96.7483863  60.8442113  65.9661628  96.1981188  60.2839296
  67.6543099  95.7512052  61.5100196  68.4668553  96.2251307  62.0607136
  67.0385273  95.1725020  62.1985067  68.2968800  94.7547522  60.5586385
  67.6159472  93.6058170  60.1622619  66.7462485  93.2279233  60.6997751
  68.0847635  92.9332059  59.0330128  67.4320341  92.1760672  58.5985177
  69.3202922  93.1916455  58.4635332  69.7109749  92.5962190  57.6383459
  70.0747669  94.2558687  58.9793102  71.0676278  94.4526009  58.5748059
  69.5584414  95.0705362  60.0148477  70.1341595  95.9225513  60.3763983
  65.9014557  97.5404359  61.8647375  65.9850430  98.7327427  62.0212993
  64.9871234  96.7940053  62.5229683  64.7921910  95.8567494  62.2010180
  64.0927949  97.3863361  63.5825714  63.6439573  98.2962308  63.1841549
  62.9835813  96.4516482  64.0227232  63.4816805  95.5389711  64.3498577
  62.4841771  96.9169950  64.8725159  61.9308722  96.1045704  62.9287034
  62.4528765  95.6032395  62.1136698  60.8068914  95.2037124  63.4445484
  60.2840961  95.7045952  64.2593492  60.1056360  94.9976530  62.6359191
  61.2290716  94.2661980  63.8063923  61.3046163  97.4148148  62.3829806
  62.0864542  98.0392536  61.9506553  60.5673955  97.1742229  61.6170027
  60.8193637  97.9528615  63.1973114  64.8502900  97.9910496  64.7851706
  66.0357379  97.8005162  64.9855509  64.2568476  98.8226777  65.6164551
  63.3201630  99.1159602  65.3783234  64.8278992  99.2936706  66.8596460
  65.8011853  99.7541185  66.6899373  63.8837140 100.3476822  67.4562900
  62.9748530  99.7947012  67.6935301  64.3717596 100.6571958  68.3804723
  63.5217548 101.6012800  66.6183782  63.2425825 102.3537327  67.3559272
  64.4086975 101.9335612  66.0789118  62.3801232 101.4458389  65.6270334
  61.7953749 100.4039012  65.4807010  62.0987953 102.4823251  64.8988219
  61.3489870 102.4330459  64.2239438  62.6309506 103.3334898  65.0103150
  64.9375519  98.1785530  67.8753462  64.0096860  97.4888248  68.3059200
  66.2062914  97.9757440  68.2072476  66.8648661  98.4696083  67.6220326
  66.7090370  96.9704833  69.0981864  67.7906300  97.0874291  69.1658585
  66.1163698  97.0451090  70.5172222  65.0763310  96.7478573  70.3828345
  66.6164309  96.3303856  71.1708348  66.1493037  98.4293738  71.1862217
  66.7787417  99.3627239  70.7187271  65.5460748  98.5930427  72.3363788
  65.5601712  99.4971382  72.7863925  65.0693603  97.8144648  72.7684212
  66.7161268  95.5722918  68.4779123  66.8078311  94.6152144  69.2126158
  66.7253310  95.5725529  67.1491421  66.5367996  96.4597537  66.7048112
  66.8544288  94.3749598  66.2946260  66.7025621  93.4957166  66.9206987
  65.8630531  94.3279047  65.1417366  64.8584637  94.2529947  65.5580153
  65.9530802  95.2551385  64.5758457  66.1268343  93.1098426  64.1928839
  67.0332385  93.3737087  63.6479923  66.2660826  92.1467113  64.6838902
  64.9223514  93.0163922  63.1901871  64.3353322  91.9242045  63.1913768
  64.6440814  93.9067959  62.3615587  68.3388612  94.3951837  65.9083653
  68.7761335  95.1513988  65.0485335  69.1862794  93.5741185  66.4894285
  68.8309670  92.8291997  67.0716213  70.6147504  93.6478006  66.2646500
  70.8620420  94.7032597  66.1508421  71.5193208  93.0427133  67.3734150
  71.3882715  91.9622480  67.4327463  72.5034629  93.2667643  66.9618746
  71.4052999  93.6342258  68.7421159  70.2088228  93.8940755  69.4151580
  69.2519988  93.7410724  68.9159813  70.2436945  94.3614676  70.7611846
  69.3153429  94.6908959  71.2278131  71.4501070  94.5189436  71.4291159
  71.4582676  94.8162633  72.7919616  70.5768331  94.8890658  73.1652881
  72.6479384  94.2402714  70.7302691  73.5995067  94.3853998  71.2416947
  72.6272204  93.7901769  69.4184838  73.5612786  93.5557782  68.9079032
  71.0138541  92.8364740  65.0420674  70.7952236  91.5924095  65.0216175
  71.7743134  93.3822332  64.1129066  71.8334028  94.3904896  64.1077322
  72.5175264  92.6317503  63.0798941  72.0001734  91.8124696  62.5806704
  72.7762622  93.7303902  62.0669088  73.3019480  94.5541290  62.5498257
  73.3859766  93.3384551  61.2528231  71.8270829  94.0893140  61.6689996
  73.7856547  92.0147162  63.6753883  74.6034757  92.6542168  64.2926247
  73.9356850  90.6495420  63.5871544  73.1860001  90.1070841  63.1824182
  75.0860468  89.9325976  64.1566870  75.6358957  90.5958031  64.8244624
  74.6203475  88.6890884  64.9644580  73.8008853  88.1195205  64.5260821
  75.5441929  88.1162769  64.8838567  74.3157540  88.9665168  66.4511514
  75.2682054  89.2876274  66.8728447  73.2443843  89.9769264  66.7987493
  72.2914798  89.6562412  66.3777590  73.1547450  90.0539966  67.8823201
  73.5140608  90.9494337  66.3869186  73.6003723  87.7074946  66.9165364
  74.2556398  86.8465961  66.7839547  73.3392031  87.8058069  67.9702093
  72.6928841  87.5665489  66.3294262  76.1750837  89.5105501  63.1499633
  77.3703828  89.6283966  63.5331737  75.7638888  89.0403924  61.9514841
  74.8153163  89.3010451  61.7226394  76.5732998  88.3245024  60.9145779
  77.6345943  88.4916705  61.0984472  76.3015140  86.8218812  60.9557717
  76.8037285  86.4319667  60.0704207  76.8219947  86.4774320  61.8493906
  75.0057051  86.3736487  60.9805331  74.9994931  85.4139840  61.0051248
  76.1389647  88.6873747  59.4929205  75.0397240  89.2191729  59.3023174
  76.9944186  88.3887268  58.5332029  77.6284950  87.6242610  58.7166110
  77.0822546  89.0795966  57.2135208  76.1013922  89.3997830  56.8621111
  77.9439163  90.3013750  57.4172061  77.4827491  90.8093269  58.2642061
  78.9591223  90.0048441  57.6808843  77.9854174  91.2522554  56.2108449
  78.3023627  90.6684682  55.3466464  76.6506541  91.9154005  55.9119962
  76.3332593  92.4997833  56.7756258  76.7558982  92.5720862  55.0484058
  75.9043316  91.1505254  55.6973592  79.0699999  92.2473403  56.5136531
  80.0184558  91.7249702  56.6387943  79.1526016  92.9572243  55.6906447
  78.8267583  92.7826326  57.4314737  77.7358811  88.1281905  56.1679350
  78.9616400  87.7347541  56.3751254  77.1062463  87.7516390  55.0166670
  76.1223668  87.9659220  54.9381607  77.7431521  86.9471543  53.9344958
  78.8241495  86.8890314  53.8073523  77.1663064  85.4747711  54.0459757
  76.1189615  85.5651481  54.3340729  77.2720143  84.6527715  52.7595887
  78.3191789  84.5615633  52.4710954  76.8539388  83.6601079  52.9267186
  76.7183287  85.1502976  51.9633465  77.5481338  84.5989762  55.2795417
  77.2133034  85.0910003  56.1927246  77.0683305  83.6238344  55.1959544
  78.6298903  84.4694043  55.3129311  77.5445758  87.5967814  52.5825486
  76.4401814  88.1315936  52.3570405  78.4952833  87.4159680  51.6826287
  79.3735432  87.0193756  51.9850742  78.4019231  87.9480660  50.2971481
  77.3372490  88.0283953  50.0777961  79.0467114  89.2565343  50.0080374
  78.6127454  90.0581770  50.6056507  80.1228203  89.2194371  50.1774876
  78.7851524  89.5084265  48.5921118  79.1786220  90.3464590  48.3381766
  78.8606059  86.8133043  49.3453902  80.0431521  86.4258037  49.4074033
  77.9954565  86.2867023  48.4421539  77.1153536  86.7477664  48.2606651
  78.2352032  84.9506122  47.8223129  79.2090439  84.9109232  47.3342984
  78.2067970  83.8944756  48.9592648  78.5982658  82.9435867  48.5977931
  78.8057089  84.2359964  49.8035208  76.5588556  83.5395120  49.6232738
  76.9600214  82.6406659  50.5177234  77.2852932  84.6414696  46.6480046
  76.4762333  85.5160353  46.2867831  77.3521047  83.4203989  46.0504793
  78.2219632  82.9223389  46.1745029  76.3433909  82.8652635  45.0784818
  75.3708711  83.3341451  45.2283301  76.8264647  83.1650269  43.6053335
  76.0261596  82.8729311  42.9254137  76.9994892  84.2380030  43.5223582
  78.1389894  82.3936288  43.2292447  78.9179322  82.7229794  43.9169053
  77.9465388  81.3315165  43.3808434  78.6135438  82.6354934  41.7414968
  79.6230974  82.2254118  41.7144100  77.9508816  82.0078481  41.1456449
  78.6242567  84.0810590  41.1570429  77.5863959  84.4024929  41.0697170
  79.1417273  84.7167590  41.8755196  79.2802820  84.1871543  39.8494284
  78.8006720  83.5985054  39.1834206  79.2497548  85.1462496  39.5343026
  80.2421173  83.8897578  39.9302194  76.0274727  81.4265695  45.4214414
  76.9718036  80.6397812  45.6791936  74.7667915  81.0616185  45.5256462
  74.0872823  81.7814628  45.3251699  74.2763147  79.7502776  46.0520030
  75.0978505  79.1193920  46.3913574  73.3729083  80.0701979  47.2550744
  72.5403877  80.6882912  46.9189652  72.9940330  79.1091019  47.6027062
  74.1056651  80.7798059  48.4078423  74.6002492  81.6714386  48.0225130
  73.0980032  81.1849652  49.5100172  72.6033236  80.2937484  49.8961823
  73.6272531  81.6861143  50.3204768  72.3525995  81.8608433  49.0908959
  75.1417462  79.9116220  49.1168435  75.9010343  79.5943244  48.4020685
  75.6122798  80.4854497  49.9152301  74.6528420  79.0342398  49.5402490
  73.5972378  78.7955858  44.9686715  72.7403662  79.2176920  44.2014247
  74.1291998  77.5588128  44.9774904  74.9696746  77.2999140  45.4741521
  73.4480980  76.5517915  44.2284874  74.0559513  75.6564022  44.3584543
  72.4971451  76.4229161  44.7453810  73.1871279  76.7533966  42.7777358
  74.1336373  77.1911670  42.0595674  72.0048986  76.3251880  42.2840604
  71.3863983  75.7412312  42.8286255  71.6097038  76.6564662  40.8526639
  72.3784919  76.3442856  40.1458348  70.3441537  75.8997240  40.5519761
  70.1196378  76.1321007  39.5109704  70.6194002  74.8485514  40.6378569
  69.1012145  76.1774072  41.4194950  69.4051602  75.9267114  42.4357969
  68.9393751  77.2526806  41.3440155  67.7643264  75.4193407  41.0691772
  67.9428983  74.3470131  41.1487037  67.0000676  75.7141927  41.7882532
  67.2832642  75.7567908  39.6386156  66.6188296  76.6196603  39.6842600
  68.1496850  75.9982135  39.0228808  66.5474504  74.5876571  39.0340153
  65.7443242  74.3640619  39.6041849  66.2421248  74.8277559  38.1016909
  67.1630855  73.7881182  38.9912358  71.4006768  78.1015418  40.4676947
  71.4343929  78.4144982  39.3196474  71.0562042  78.9642111  41.4484833
  71.0116448  78.6072633  42.3922534  70.7351265  80.3690863  41.2247610
  70.0949579  80.4669424  40.3480013  70.0188157  80.9328172  42.4022657
  69.2724448  80.1927905  42.6910392  70.7832205  80.9983896  43.1765303
  69.3449651  82.2982284  42.2334971  68.6597189  82.7496101  43.2371091
  69.5504889  82.8866570  41.1028345  72.0308450  81.2516704  40.9717966
  72.8910327  81.1780597  41.8299549  72.1669774  82.0369609  39.8849089
  71.4121973  81.7383521  38.7348981  70.3806373  82.0420829  38.9130323
  71.4499765  80.6616384  38.5694915  72.0596561  82.5150648  37.6159207
  71.6670741  83.5309863  37.5725390  71.8959885  82.0216366  36.6578795
  73.5338987  82.5050128  37.9865804  74.1015814  83.3245401  37.5458872
  74.0041366  81.5567434  37.7262707  73.4858271  82.6664903  39.5313597
  74.2393961  82.0818893  40.0590657  73.6637403  84.1435503  39.8652919
  74.7864314  84.6748212  39.7163498  72.6416695  84.8160562  40.3550330
  71.7142797  84.4963170  40.1145870  72.7705067  86.0485682  41.1337121
  73.1615148  86.8679530  40.5305369  71.3576229  86.4173520  41.6047950
  71.0371765  85.5551909  42.1896808  71.3554053  87.3055218  42.2366569
  70.3590280  86.6297620  40.4551780  70.2304500  87.7493849  39.9942449
  69.5709331  85.6802588  40.0125720  68.9319444  85.8711891  39.2540610
  69.6064148  84.7622164  40.4321431  73.7934495  85.9411574  42.3056750
  73.9133673  84.8869422  42.9950218  74.4686604  87.0060109  42.5147162
  74.4163257  87.7385790  41.8213877  75.3165065  87.2285411  43.7089060
  75.5990095  86.3254611  44.2499584  76.6157699  88.0548004  43.3984704
  76.3071701  88.8126007  42.6783280  77.3165026  88.7148209  44.5491065
  77.6258325  87.9575525  45.2694948  78.1942391  89.2476309  44.1833318
  76.6392882  89.4195098  45.0316982  77.5349354  87.2902012  42.6334326
  78.3189295  87.8153414  42.4568506  74.4419468  88.0161680  44.7303694
  73.8835947  89.0460534  44.4326646  74.4248477  87.5528121  45.9683770
  75.1897505  86.9216715  46.1599094  73.4777135  87.8591545  47.0624506
  72.7975965  88.6564707  46.7627390  72.6711581  86.6355119  47.3802496
  73.3073655  85.7548102  47.4680221  72.2470926  86.8753853  48.3553030
  71.5750823  86.3596416  46.4188791  70.5327369  87.2705062  46.1898364
  70.5027778  88.2081046  46.7449141  69.4988266  86.9691831  45.2201834
  68.7728398  87.7339708  44.9442401  69.5317055  85.7634795  44.5333640
  68.4507971  85.3155526  43.8262915  67.7022875  85.9153951  43.8653030
  70.6401018  84.9504492  44.7166384  70.6852495  84.0671434  44.0795882
  71.6406163  85.1942548  45.6232561  72.4698374  84.4936313  45.7213330
  74.1731903  88.2755761  48.3785616  75.1835217  87.6114373  48.7421014
  73.6382178  89.2858257  49.1334677  73.1134077  89.9742895  48.6131878
  73.9231326  89.5506206  50.5357249  74.9185542  89.1824740  50.7841259
  73.8710937  91.0517308  50.8243512  72.9647664  91.3787278  50.3147012
  73.8197220  91.3374448  51.8749836  75.0558944  91.8628052  50.1966007
  76.3642606  91.7967373  50.7425666  76.5906368  91.0941995  51.5446229
  77.3577750  92.6320184  50.2505790  78.3589705  92.5902183  50.6794857
  77.0727842  93.5455675  49.1848322  77.8394643  94.2256616  48.8136537
  75.7689183  93.5587373  48.6088240  75.5578731  94.1632770  47.7267288
  74.7689195  92.7964171  49.1785461  73.7381972  92.9107397  48.8429247
  73.0628372  88.6647152  51.4536936  71.8746168  88.4826356  51.0660117
  73.5909597  88.0891722  52.5565326  74.5856389  88.0952880  52.7316757
  72.6915915  87.4334533  53.5706236  71.6361037  87.6541783  53.4114849
  72.9364601  85.8981365  53.3884897  73.9791015  85.6512208  53.5885692
  72.0247247  85.1577149  54.4059741  70.9818219  85.4037895  54.2062201
  72.1688480  84.0817515  54.3078316  72.2830661  85.4675050  55.4185890
  72.6058118  85.5007159  51.9042089  71.6346275  85.9339559  51.6650333
  73.3704645  85.9535893  51.2730898  72.5667057  84.0050801  51.6560995
  71.8019139  83.5515426  52.2865732  72.3323070  83.8160451  50.6085202
  73.5377509  83.5711755  51.8946321  73.1077391  87.9075543  54.9810602
  74.3057959  87.8899650  55.2285187  72.2298675  88.2275346  55.8873421
  71.2821320  87.9659935  55.6560567  72.4925367  88.7840623  57.2192918
  73.5820210  88.8091046  57.2415651  71.9689219  90.2191763  57.2974740
  70.8809336  90.1554394  57.3153133  72.4482725  91.0090953  58.4993480
  73.5362199  91.0736600  58.4819485  72.0246889  92.0129191  58.4674838
  72.1290522  90.5094639  59.4139892  72.6361735  91.0895889  56.1488561
  72.3850356  90.6639390  55.1773347  72.2633166  92.1123369  56.2042094
  73.7187844  91.0907381  56.2755574  71.6441448  88.0205866  58.2169240
  70.4385712  87.9610124  58.0614344  72.3178159  87.5276570  59.2383097
  73.3236123  87.4672419  59.1688627  71.6712386  87.0578984  60.4833324
  70.6990630  86.6679629  60.1817963  72.2928592  86.2402012  60.8481042
  71.4748413  88.0617629  61.5975811  72.2362043  88.9730918  61.7840834
  70.4831159  87.8672125  62.4622643  69.9677668  86.9993762  62.4993422
  70.0654336  88.9617101  63.3434688  70.9027036  89.5809143  63.6654383
  68.9809168  89.8842255  62.6987101  68.7970520  90.6802474  63.4202660
  69.3224033  90.4823636  61.3749960  69.5059620  89.6868964  60.6527510
  68.4936830  91.1009937  61.0305855  70.2173693  91.0967460  61.4733361
  67.7395689  89.2099552  62.5863004  67.0918390  89.7962611  62.1884415
  69.5570245  88.3888946  64.6582040  69.6722616  87.1533396  64.8315945
  69.1097098  89.2306008  65.6037781  69.1494489  90.2194180  65.4018852
  68.5389542  88.8121017  66.8586771  67.9391544  87.9142558  66.7096399
  69.6296131  88.5035890  67.8554755  70.2332763  89.3957440  68.0220600
  69.1824205  88.1869593  68.7977413  70.2618669  87.7049600  67.4674730
  67.7184532  89.8555970  67.4832790  67.8557776  91.0514182  67.2691955
  66.9048541  89.4519220  68.4556745  66.5307846  88.5141945  68.4267193
  66.4402384  90.3623709  69.5331883  67.0022045  91.2942292  69.5959057
  64.9994842  90.6845139  69.0803351  64.6231548  89.7845330  68.5940123
  64.4277332  90.8718685  69.9892351  64.8539772  91.8680703  68.1375775
  65.2052579  92.7592049  68.6577521  65.4828362  91.6849789  67.2663049
  63.1561085  92.1284442  67.5978577  62.8916531  93.8723276  67.4169071
  63.5846900  94.2704648  66.6757691  61.8676426  94.0530648  67.0900475
  63.0598221  94.3670311  68.3735099  66.5631576  89.7754987  70.9404875
  66.3935407  88.5631010  71.0772314  66.6382737  90.6147110  71.9617246
  66.6794173  91.6024242  71.7547728  66.7932656  90.1913946  73.3505352
  66.8396434  89.1043685  73.4162812  68.0678752  90.7813631  74.0024528
  67.9043570  91.8466151  74.1655453  68.4098122  90.0816924  75.3842046
  68.5739284  89.0164211  75.2218350  69.3111390  90.5277042  75.8046615
  67.5796881  90.2194370  76.0770409  69.3108414  90.6729753  73.1031365
  69.1353905  91.2138373  72.1731970  70.1702845  91.1037815  73.6168125
  69.5090001  89.6243807  72.8811378  65.5291117  90.5034771  74.1845635
  65.3892110  91.5038389  74.9045206  64.5630093  89.5696396  74.0992598
  64.6448908  88.8966516  73.3506064  63.4055465  89.5545509  74.8788277
  62.9744481  90.5546145  74.9249384  62.3640696  88.5966496  74.2644280
  62.8309159  87.6125915  74.2221970  61.5212174  88.5690295  74.9550345
  61.8698554  88.9843562  72.8751858  60.9918615  88.0644134  72.2914367
  60.7306587  87.1439617  72.8135872  60.4409190  88.3352364  71.0127255
  59.6332194  87.7093178  70.6333192  60.8863697  89.4522953  70.2597388
  60.5160036  89.6634109  68.9500407  59.9324912  88.9808695  68.6105556
  61.7892287  90.3324046  70.8566034  62.1595181  91.1776291  70.2764468
  62.2285043  90.1425150  72.1999309  62.8396096  90.9029426  72.6861411
  63.7145376  89.2454137  76.3884080  64.3465677  88.2052385  76.7676276
  63.1501502  90.0595278  77.3669917  62.5772301  91.3904684  77.1232176
  61.7336522  91.3124413  76.4373689  63.3334962  92.0482115  76.6948082
  62.1364446  91.8433354  78.5868674  61.0771890  91.6389154  78.7427169
  62.3247297  92.9079644  78.7254861  63.0033870  91.0144212  79.5164405
  62.4695403  90.7812286  80.4377048  63.9114823  91.5686604  79.7536776
  63.3503996  89.7509576  78.7964726  64.4117536  89.5486402  78.9403255
  62.5319537  88.5530063  79.2872761  62.6885638  88.1173800  80.3921027
  61.6287604  88.0282049  78.4656756  61.5831900  88.3871783  77.5227224
  60.7017736  86.9661253  78.8478384  60.3810146  87.0831540  79.8829796
  59.4253667  87.0593477  77.9073764  59.8100324  86.9873024  76.8900559
  58.8332721  86.1729451  78.1350041  58.5249298  88.3358733  78.0359257
  59.1986908  89.1725784  77.8513412  57.7287793  88.3400935  77.2914623
  57.9048729  88.4726391  79.4604750  58.6644884  88.8760183  80.4410787
  56.7267425  88.1001789  79.5608099  61.3599141  85.5504858  78.6872148
  60.7140147  84.5250301  79.0432705  62.5667826  85.4498645  78.0950883
  62.9048225  86.3451034  77.7720160  63.3706173  84.2816276  77.8355901
  63.0209345  83.4205500  78.4051219  63.2338049  83.9686565  76.3404957
  63.3917261  84.9001860  75.7969766  64.0210579  83.2602322  76.0826822
  61.8864152  83.3857742  75.9626780  61.1073688  84.1138338  76.1887684
  61.9138537  83.2056797  74.8880096  61.5870364  82.0803645  76.6884624
  60.3870813  81.8882567  77.0461836  62.4727378  81.2579885  76.8806622
  64.8740223  84.4786836  78.2396239  65.4748714  85.4727093  77.7753155
  65.4279179  83.5956103  79.0419121  64.8290814  82.9213397  79.4967233
  66.9002495  83.6006720  79.3941618  67.2633346  84.6021789  79.6249263
  67.1085470  82.7084458  80.6239405  66.7580586  81.6997725  80.4052253
  68.1686205  82.6775725  80.8757167  66.5472223  83.1129271  81.4662045
  67.6965299  83.1518876  78.1224385  68.5707369  83.8647153  77.6078698
  67.3093303  82.0637689  77.5209470  66.7942820  81.3543535  78.0224989
  67.7964779  81.7503175  76.2064811  68.8852082  81.7798655  76.1629788
  67.3321705  80.3224517  75.8946451  67.6591635  79.7232698  76.7444427
  66.2433494  80.3717846  75.8830290  67.8328489  79.6723262  74.5822862
  67.7208389  80.2945788  73.6943919  68.8896796  79.5885258  74.8356350
  67.2543320  78.2572635  74.2993341  66.6385891  77.6565751  75.1798948
  67.2826568  77.9028234  73.1250808  67.4985464  82.8136873  75.1145560
  66.4887304  83.5096875  75.2991727  68.4191359  83.1190836  74.1703626
  69.8404122  82.7637265  74.1230654  69.8877352  81.6814605  74.0023957
  70.2638624  83.0399820  75.0887112  70.5026075  83.5201492  72.9521153
  70.5986527  82.8844093  72.0719397  71.4839597  83.9034140  73.2316815
  69.5124404  84.6719735  72.7078121  69.4966687  84.8978271  71.6415849
  69.7135759  85.5844825  73.2690352  68.1848351  84.0907176  73.1287334
  67.6170421  84.9442488  73.4991302  67.3517608  83.3447028  72.0462787
  67.8520702  82.7840816  71.0859806  66.0505524  83.3873881  72.2800487
  65.6601637  83.9923804  72.9883427  65.1406220  82.4524546  71.5743802
  65.6845884  81.5568040  71.2743638  64.0116014  82.0474610  72.4841376
  63.6302391  82.9536705  72.9547185  63.2328737  81.6064874  71.8618631
  64.4274918  81.0467659  73.5664930  65.2187341  80.4114073  73.1685533
  64.8045353  81.6000166  74.4266407  63.2277953  80.1652890  74.0043156
  62.4769722  80.8030800  74.4707771  62.8019027  79.6902077  73.1205664
  63.6763239  79.0762348  75.0098763  64.1627151  78.2918423  74.4300033
  64.4047154  79.5406763  75.6745862  62.5360520  78.4644641  75.8454542
  61.8612165  78.0336742  75.2297295  62.9138148  77.7675400  76.4713072
  62.0854950  79.1910656  76.3831790  64.6448816  83.0584644  70.2685308
  63.8538786  82.3240274  69.5850761  65.0716593  84.2014818  69.7795317
  65.7589023  84.7161027  70.3114731  64.4641833  84.8552292  68.6017655
  64.0484625  84.1047096  67.9294592  63.3242144  85.8002427  69.0538025
  63.0281452  86.4080105  68.1987817  62.4812637  85.1869734  69.3722908
  63.7728004  86.7544984  70.2557583  64.7799425  87.1377521  70.0918001
  63.0571831  87.5738162  70.1871131  63.7011186  86.1697892  71.6352230
  62.9493043  85.2774371  71.9887297  64.6223968  86.6238593  72.4705353
  64.6488705  86.2843838  73.4214070  65.2945197  87.3076496  72.1530720
  65.4955562  85.5121559  67.6804501  66.2788843  86.3461501  68.1561009
  65.3535267  85.1538749  66.4245287  64.6167914  84.5148432  66.1619284
  66.2657435  85.6715629  65.3471734  66.5104686  86.7154072  65.5436374
  67.1820820  85.0816256  65.3272438  65.5594182  85.5666368  63.9471702
  64.5006778  84.9299494  63.8420421  66.2572114  86.0375863  62.8967226
  66.9732366  86.7192322  63.1035224  65.9459673  85.7596632  61.4875073
  65.7398998  84.6947163  61.3801596  64.7807067  86.5159474  60.9992913
  64.5977918  86.2553848  59.9568190  63.9084807  86.2524777  61.5975434
  65.0409119  88.0256529  61.1112860  65.3923458  88.2543094  62.1174228
  65.8034105  88.3118396  60.3868585  63.7995497  88.7772510  60.8414083
  63.4712434  88.5226919  59.8336813  63.0502754  88.4477101  61.5611931
  63.9422390  90.3170746  60.9430153  64.0964367  90.6654260  61.8784156
  63.7875045  91.1954693  59.9560178  63.5742622  90.8452711  58.7351452
  63.5187091  89.8654668  58.4964040  63.4635975  91.5520998  58.0222312
  63.9511743  92.4482819  60.1904952  64.1956678  92.7571308  61.1205142
  63.8345407  93.1181517  59.4436552  67.1897064  85.9374536  60.5907277
  67.9917393  86.8291095  60.8893948  67.3682817  85.0174850  59.6296582
  66.9392905  84.1146410  59.7743603  68.1592111  85.2257625  58.4073529
  69.0459327  85.7431207  58.7736377  68.6009080  83.8656692  57.6594458
  67.7243011  83.3948183  57.2145186  69.5962941  84.1846522  56.5843675
  70.4734395  84.6551411  57.0286160  69.8940113  83.2654721  56.0798149
  69.1460440  84.8655543  55.8620475  69.3885726  82.8437407  58.5936555
  70.4494023  83.0940410  58.6031924  68.9951248  82.8926041  59.6089932
  69.2006475  81.4038027  58.0335514  69.5943088  81.3540364  57.0183401
  69.7358055  80.6949150  58.6653611  68.1400304  81.1526003  58.0241389
  67.3768081  86.0850695  57.3575077  66.2586964  85.7010346  57.1716595
  67.9179202  87.1807562  56.8514078  68.7009656  87.5670734  57.3590478
  67.4103008  87.9260527  55.6513609  66.5781468  87.5116039  55.0822818
  67.0398943  89.3832545  56.0904369  67.9584521  89.9663810  56.1561207
  66.0513439  90.0705376  55.0625930  65.1323040  89.4881919  54.9967137
  65.8178318  91.0798024  55.4016462  66.5222674  90.1175151  54.0806939
  66.5726406  89.6699000  57.4931619  67.3483247  89.3791662  58.2016040
  66.3667528  90.7351770  57.5975388  65.6641852  89.1031099  57.6970212
  68.4532439  87.9080284  54.4751272  69.6399444  87.8606846  54.7639222
  67.9894824  88.1707118  53.2661815  67.0981530  88.6438453  53.2240400
  68.6667365  87.8733286  52.0245326  69.7408774  87.7971902  52.1934218
  68.1736702  86.5577551  51.3766886  67.0951170  86.5961125  51.2238781
  68.8628742  86.4007772  50.0482494  69.9415158  86.3618747  50.2003013
  68.5300425  85.4783271  49.5724244  68.6170029  87.2482630  49.4083926
  68.3676836  85.2038210  52.1309772  67.8453312  85.2417733  53.0869112
  67.9631771  84.3904735  51.5285323  69.4301273  85.0330439  52.3046132
  68.3285011  89.0296244  51.0783688  67.1502386  89.4000855  50.9552631
  69.3668716  89.7658635  50.5276306  70.2849126  89.4249889  50.7748239
  69.2747854  90.9480088  49.7116295  68.2487406  91.0807473  49.3685383
  69.7052474  92.2413203  50.5484023  70.7946056  92.2787004  50.5492065
  69.3140388  93.0751183  49.9654470  69.2645155  92.4667869  51.9738153
  68.2694442  93.3392220  52.2915873  67.8212121  93.9819032  51.5338613
  67.8177384  93.4037589  53.6318697  67.0145588  94.0872429  53.9072838
  68.4001304  92.5943119  54.5952824  67.9787298  92.5945395  55.6005294
  69.4856773  91.8028275  54.3054061  70.0272962  91.2630013  55.0821536
  69.8889222  91.7009478  52.9762168  70.6966804  91.0223037  52.7022299
  70.1085649  90.9115838  48.4386335  71.0012744  90.0811432  48.2876892
  69.8408702  91.7596813  47.4365336  69.0390129  92.3568562  47.5797334
  70.5864928  91.8411673  46.0754616  71.6131588  91.4859862  46.1643585
  69.8312779  90.9277789  45.0775587  70.0086805  89.8803171  45.3213848
  68.7616488  91.1335872  45.1180121  70.3644591  91.2248874  43.6391264
  70.0008530  92.2102616  43.3477006  71.4541649  91.2184025  43.6146028
  69.8619441  90.2257753  42.6624894  69.1974535  89.2493899  42.9332194
  70.1796466  90.3569524  41.3767979  69.8424780  89.6822654  40.7050715
  70.7564648  91.1305903  41.0786930  70.6121407  93.3656326  45.7275595
  69.7706879  94.1350967  46.2398008  71.5649023  93.8089279  44.9408171
  72.2331057  93.1339423  44.5973089  71.8021085  95.2030765  44.6698931
  71.0345206  95.8527959  45.0903366  73.1392682  95.5009009  45.3746148
  73.2757578  95.1643076  46.4023185  73.8523770  94.9898982  44.7277360
  73.3656759  96.9661641  45.2999665  72.8471539  97.9051765  46.2132603
  72.2508526  97.5843683  47.0674303  73.1098292  99.2822261  46.0100116
  72.6001764 100.0588903  46.5802297  73.8893907  99.6330560  44.8572448
  74.1584138 100.9934758  44.6560350  73.7779386 101.5555023  45.3349787
  74.5608783  98.6812330  44.0802940  75.2444112  98.9544367  43.2764017
  74.3266165  97.3399219  44.3688681  74.9010478  96.5648927  43.8614644
  71.7280013  95.5869334  43.1959145  72.2128233  94.8451415  42.3030503
  71.0698083  96.6770800  42.8898205  70.6927968  97.2200358  43.6534701
  70.8050212  97.1357519  41.5009646  71.7276902  97.1869507  40.9228990
  69.8314169  96.0802344  40.8129074  70.4381332  95.1996526  40.6017908
  69.0772430  95.8307677  41.5592908  69.2130298  96.4972748  39.6591151
  68.6516287  95.7939660  39.3247721  70.1756600  98.5958594  41.5594739
  69.7137937  99.1068679  42.5427872  70.2043199  99.2427397  40.3933631
  70.7396299  98.7997452  39.6603567  69.7367028 100.6237186  40.1798458
  70.3840357 101.1215207  39.4578677  68.3292187 100.6375227  39.6525393
  67.6456716 100.3729643  40.4593053  68.1739252 101.6794084  39.3724352
  68.0619191  99.7389020  38.4424580  66.8651566  99.6213195  38.1032339
  69.0751270  99.2259081  37.8143538  69.9719758 101.6104855  41.3419317
  68.9911514 102.2708563  41.7725078  71.1406209 101.6050179  41.9819167
  71.8035533 100.9033185  41.6848680  71.5522096 102.5667655  43.1178719
  72.6198594 102.4456388  43.3010426  71.3534392 103.5879822  42.7927470
  70.7979641 102.3036080  44.4056560  70.7196379 103.1874987  45.2694501
  70.1970942 101.0896767  44.5266984  70.3744880 100.4524481  43.7634353
  69.2964166 100.6534739  45.6039713  69.3938822 101.3406339  46.4444537
  67.7971670 100.6243153  45.1527127  67.7124308  99.9707425  44.2845182
  67.2001322 100.2205785  45.9704206  67.2925969 102.0075335  44.7944077
  68.1166124 102.5364031  44.3154544  66.4800562 101.8782853  44.0794430
  66.7860546 102.8312327  46.0099999  65.8378747 102.4328916  46.3710791
  67.5192006 102.8097814  46.8163102  66.5911852 104.2439521  45.5500131
  66.4666403 104.8581000  46.4418716  67.5015262 104.5408930  45.0292401
  65.4260734 104.4326815  44.6540797  64.5823784 104.1579923  45.1365984
  65.3602689 105.4046710  44.3876097  65.5414858 103.8640101  43.8274045
  69.7027022  99.2431529  46.1369749  70.0624296  98.3193840  45.3298645
  69.5398432  99.0015989  47.4553066  69.6816811  99.7907558  48.0694832
  69.3244111  97.6842612  48.0563927  69.7620720  96.9204351  47.4136472
  69.9598324  97.5853928  49.4269786  70.8046524  98.2661419  49.3222922
  69.3334181  97.9096448  50.2579814  70.5102121  96.0764684  49.7174719
  69.6342240  95.4436121  49.5752094  71.6762942  95.5209475  48.9041490
  72.5528393  96.1530602  49.0462796  71.9018613  94.5077371  49.2367521
  71.4080734  95.5047807  47.8477889  70.7689856  95.9470326  51.1849499
  69.8435080  96.1198468  51.7342456  71.1381484  94.9447463  51.4023026
  71.5141471  96.6820458  51.4892341  67.8394303  97.2729015  48.0772311
  67.0264932  98.0561366  48.5673995  67.4323628  96.0206281  47.7981192
  68.1687633  95.3478531  47.6394135  66.0335634  95.5568028  47.7254957
  65.4195968  96.2179471  48.3370776  65.4725679  95.5471204  46.3006556
  66.2011976  95.0218272  45.6831890  64.5459865  94.9740995  46.3352112
  65.1877939  96.9696740  45.6818656  64.5522569  97.5350058  46.3634766
  66.1506909  97.4709680  45.5837047  64.5284666  96.9289674  44.3336700
  64.3873819  95.8617729  43.7442872  64.0725217  98.0019029  43.7769180
  63.6329701  97.9484597  42.8691517  64.1577773  98.8890754  44.2520578
  66.1186956  94.1151939  48.2782626  66.8426634  93.3230192  47.6414841
  65.4891392  93.8039775  49.3807875  65.1917036  94.6001289  49.9264746
  65.2195047  92.4355292  49.9186532  66.1445503  91.9260058  50.1884228
  64.2692357  92.4333874  51.1573595  63.4414472  93.0726863  50.8504988
  63.7213482  91.1228002  51.7072416  64.5485946  90.4831172  52.0147618
  63.0822577  91.3274719  52.5661782  63.1405723  90.6186318  50.9348335
  64.9815946  93.0799039  52.1111290  64.4660950  93.1255403  52.9196943
  64.6084695  91.4115605  48.9456938  63.7935841  91.7786437  48.1291354
  64.9585108  90.1456511  49.2165603  65.5277532  89.9887864  50.0359844
  64.5833308  88.9696270  48.3810364  63.9020061  89.2993904  47.5967201
  65.8041174  88.2171537  47.7077355  66.4519060  87.9184311  48.5318920
  65.4794682  86.9783136  46.8298466  64.8320459  87.2763576  46.0051557
  66.4048444  86.5615099  46.4322864  64.9732794  86.2261527  47.4349322
  66.4590523  89.3504412  46.8537684  66.7697317  90.1653520  47.5076039
  67.3286450  88.9544441  46.3292739  65.7362046  89.7230534  46.1279915
  63.8368022  87.9608040  49.2360973  62.8504724  87.4334757  48.7150229
  64.3539844  87.6459119  50.3747471  65.2618431  88.0297889  50.5950434
  63.7749864  86.6507486  51.2934312  62.7136275  86.8797529  51.3892089
  63.9247581  85.2507471  50.6119394  64.9820927  85.0033685  50.5173482
  63.4283280  84.4948790  51.2204793  63.4683673  85.2770553  49.6224372
  64.3334934  86.7213497  52.6971119  65.3462872  87.3629585  52.9942652
  63.6207321  86.1791339  53.6763760  62.7016097  85.9275225  53.3417044
  63.8668538  86.1274525  55.0812426  64.9478916  86.0872820  55.2148192
  63.3207878  87.2867195  55.8933128  63.7928631  87.2839449  56.8757773
  63.5555521  88.2195262  55.3806165  61.7933499  87.1613101  56.0572730
  61.5713358  87.2873286  54.9975891  61.2975339  86.2640403  56.4276411
  61.2728477  88.4156722  56.8551865  61.7959779  88.5925523  57.9670072
  60.2147109  88.9870446  56.5798228  63.5031982  84.6857984  55.5933217
  62.7620472  84.0026806  54.8858231  63.9953701  84.2725635  56.7551917
  64.7578769  84.8043128  57.1500657  63.5944441  83.0540366  57.4188991
  62.5572205  82.7951565  57.2061846  64.5020561  81.9484059  56.8559727
  64.3119654  81.8736679  55.7852818  65.5365022  82.2499189  57.0206277
  64.2563846  80.5869577  57.5141537  64.7717723  80.5530053  58.4740097
  63.1864199  80.4512857  57.6718580  64.7700126  79.4998012  56.6368927
  64.2599044  79.5480800  55.6748335  65.8406445  79.6393117  56.4872812
  64.5149749  78.1129074  57.2888447  65.0374739  77.3355164  56.7313875
  64.8633140  78.1151102  58.3216827  63.0415323  77.8432389  57.2596785
  62.7186307  77.8407283  56.3026894  62.8554899  76.9439646  57.6801473
  62.5572228  78.5632395  57.7765369  63.6408374  83.2554052  58.9100867
  64.7313171  83.3931275  59.5002338  62.4507312  83.2084044  59.5314837
  61.5945512  83.1346391  59.0008108  62.3634103  83.2406556  60.9556725
  62.7754041  84.1659032  61.3585091  60.8594592  83.1656227  61.3254714
  60.3816105  83.8517229  60.6261672  60.5781965  82.1418488  61.0787365
  60.4275643  83.4733353  62.6756613  60.9767527  82.7611052  63.2914708
  60.7058876  84.4883453  62.9591925  58.9534926  83.2823173  62.8843494
  58.3324117  82.4278333  62.2460301  58.3014468  84.0439243  63.6438098
  63.0829191  82.0577103  61.6112672  62.7869151  80.9598908  61.1901732
  63.8603426  82.2206203  62.6988029  64.1010940  83.1568662  62.9913463
  64.3645836  81.1020609  63.4815282  63.8548081  80.1596772  63.2811760
  65.8613313  80.9355593  63.1406979  66.3620421  80.4077475  63.9523646
  66.0096274  80.1102188  61.8082557  65.5095267  80.6376670  60.9959758
  67.0664632  79.9931876  61.5684596  65.5557086  79.1275632  61.9365033
  66.5956020  82.2272854  63.0132369  66.5368121  82.7736555  63.9545793
  67.6402937  82.0297978  62.7729923  66.1471462  82.8238836  62.2188448
  64.2623859  81.2583696  65.0050318  64.2246456  82.3626886  65.5652355
  64.2661044  80.1582556  65.7681081  64.1994048  79.2941000  65.2495664
  64.2363406  80.0952532  67.2092652  63.7508971  80.9738602  67.6341104
  63.4675867  78.9145391  67.5785345  62.5751241  78.8750325  66.9539955
  64.0800358  78.0322979  67.3923717  63.0477450  78.9492687  69.0865851
  63.9285226  78.9382145  69.7286205  62.4559043  79.8398760  69.2978790
  62.2047881  77.7013896  69.3563266  61.5591788  77.4525895  68.5140760
  62.8197962  76.8378225  69.6095388  61.3395308  78.0877216  70.5688394
  61.9865334  78.5090477  71.3382369  60.6140941  78.8378981  70.2540761
  60.6284715  76.9138389  71.1129048  61.3005101  76.2187647  71.4050277
  60.0699173  77.1961873  71.9056194  60.0285661  76.5235341  70.4002514
  65.6269689  80.1376768  67.8606899  66.0180372  79.3012659  68.7162314
  66.4042565  81.1472551  67.5453162  66.0214825  81.7474298  66.8288152
  67.7395908  81.4866658  68.1117981  67.6017333  81.6621145  69.1787153
  68.3812883  80.6175580  67.9669693  68.4072462  82.7025525  67.4931958
  68.2327398  82.9065961  66.3267805  69.2858452  83.4496249  68.1570727
  69.1716032  83.3641071  69.1569401  70.2243365  84.4482200  67.6499525
  69.6151699  85.1898678  67.1332575  70.8383020  85.0930096  68.8694978
  71.4586261  84.3651719  69.3925182  71.4525681  85.9397043  68.5630904
  70.0475465  85.4402684  69.5344911  71.2533087  83.9425721  66.5789854
  71.9842994  82.9379937  66.8070307  71.3278838  84.5736756  65.3673456
  70.7237707  85.3587240  65.1702523  72.1651307  84.0458979  64.2767653
  72.3140257  82.9722591  64.3917836  71.4592211  84.3077374  62.9104041
  71.5569578  85.3706442  62.6895515  72.0668623  83.4617524  61.7147459
  71.9690635  82.3986602  61.9346808  71.5290917  83.6930026  60.7952750
  73.1207115  83.7112497  61.5912366  69.9372351  83.9743469  62.9231553
  69.4365050  84.5884125  63.6716837  69.5114266  84.1801932  61.9411094
  69.7975391  82.9208755  63.1656092  73.5929593  84.5614968  64.3100085
  73.9591591  85.5655896  63.7200921  74.4013131  83.9404795  65.1965087
  74.0793030  83.1027160  65.6597162  75.7615293  84.4140450  65.4809705
  75.7519786  85.4426718  65.8414354  76.3515257  83.5158967  66.5766415
  76.3200838  82.5776595  66.0227266  77.3798683  83.7318553  66.8664230
  75.4396698  83.3908632  67.8930914  75.2359063  84.4617408  68.8323202
  75.4754900  85.4954176  68.5828979  74.7082728  84.1440385  70.1119881
  74.4415440  84.9380087  70.8095330  74.2814615  82.8260538  70.3506166
  74.0555757  82.4825653  71.6272235  74.2177269  83.2007840  72.2432337
  74.3393485  81.8102749  69.3801279  73.8534284  80.8430037  69.5080677
  75.0693792  82.0866961  68.1940135  75.3396460  81.2748810  67.5187268
  76.7155373  84.3110005  64.2545462  77.5988744  85.1980023  64.2370962
  76.6737205  83.2735888  63.3537796  75.9004478  82.6257974  63.4039284
  77.7641475  82.9916255  62.3935262  78.2255895  83.9230997  62.0656141
  78.8590509  82.1044720  63.0785672  79.1235825  82.5342700  64.0446914
  78.4717624  81.0960155  63.2239057  80.0395037  82.0524469  62.2322821
  80.7103733  81.5089168  62.6519353  77.1936313  82.3898764  61.1562985
  76.2477292  81.6003242  61.2555178  77.8146523  82.6962799  60.0092093
  78.6877076  83.2013911  60.0615207  77.2620453  82.3553182  58.6381525
  76.8199833  81.3593551  58.6653168  76.1996667  83.3447915  58.2062494
  76.7260912  84.2981356  58.1602982  75.9343454  83.0278628  57.1976560
  74.9303216  83.5043661  59.0396790  74.7026931  82.4796031  59.3331868
  75.2795830  84.0616546  59.9089017  73.4088203  84.2970510  58.3860045
  74.2927580  85.6656052  57.6324779  74.9971130  85.2816025  56.8945585
  73.5825092  86.3323482  57.1434981  74.8361756  86.2150840  58.4011596
  78.3236221  82.3187816  57.5413108  79.2775544  83.0230385  57.6768301
  78.1756359  81.5518819  56.4416464  77.2964903  81.0722612  56.3106259
  79.2179448  81.2744542  55.5583350  79.5437097  82.1189313  54.9510172
  80.5123018  80.5930210  56.2276792  80.9916084  81.3191961  56.8842111
  80.1204501  79.3584806  57.0351476  79.6414647  78.6316069  56.3791533
  81.0123510  78.9151751  57.4779720  79.4272974  79.6457736  57.8257826
  81.7318630  80.3077043  55.3142778  82.0917362  81.2428282  54.8851663
  82.5268790  79.8484150  55.9017322  81.4357242  79.6309659  54.5127619
  78.6196258  80.4687182  54.4212788  77.7246374  79.6828796  54.6796961
  79.0619943  80.6174110  53.1698889  79.5241918  81.5061611  53.0410629
  78.8549191  79.7486039  51.9757503  77.8566106  79.3118785  52.0031420
  78.9992106  80.5973050  50.6483828  78.2329486  81.3718882  50.6794077
  79.9852604  81.0612885  50.6712990  78.8458569  79.7663983  49.3356754
  78.5555045  78.8556507  49.8594455  78.0778933  80.0265090  48.6072020
  80.1498180  79.5421491  48.6286656  80.6090923  78.3588721  48.5085013
  80.9102982  80.5448076  48.4612298  79.7932076  78.5212393  52.0494099
  80.9986551  78.7057553  51.9677760  79.2190143  77.3392736  52.1529150
  78.2130364  77.3962365  52.0831784  79.8304022  76.0169186  52.3297823
  80.9012082  76.0867995  52.5210684  79.1481764  75.3875674  53.5651422
  79.4751773  76.0435183  54.3719246  78.0595049  75.3340390  53.5597392
  79.6596637  73.9684572  53.9132530  81.0396620  73.8481061  54.1715869
  81.6403083  74.7541242  54.0912429  81.6417410  72.6431741  54.5161062
  82.7101120  72.5714314  54.7199130  80.8525330  71.5261305  54.5963137
  81.2492721  70.5796054  54.9634487  79.4783471  71.6183460  54.1855443
  78.8675009  70.7156825  54.1726714  78.9384288  72.8093576  53.8164635
  77.9174242  72.8507013  53.4370689  79.5816631  75.1349433  51.0897773
  78.4501792  74.6900225  50.8722261  80.5102488  75.1754312  50.1474853
  81.3343030  75.7118707  50.3782811  80.3666499  74.6740090  48.7701962
  81.0082203  75.2152099  48.0747911  80.8053192  73.1855799  48.7938361
  79.9661037  72.5350382  49.0400314  81.1158150  73.0035670  47.7649708
  82.0031913  72.8414446  49.7474913  83.1440970  73.1309842  49.5457933
  81.7394128  72.2665668  50.9262866  82.4969960  72.0375247  51.5537474
  80.7838840  72.0642096  51.1834189  79.0161600  74.9025565  48.0375462
  78.3060862  73.9564218  47.6772223  78.6477256  76.1698182  47.8389007
  79.3647227  76.8613883  48.0054699  77.3288905  76.6289219  47.4119021
  77.5023307  77.6803543  47.1827570  77.1699885  76.0771006  46.4854342
  76.0852419  76.5100063  48.2780265  74.9734427  76.7781437  47.7794457
  76.1999868  76.1769551  49.5194790  77.0993654  75.8247723  49.8147495
  75.1119442  76.2325100  50.5109981  74.2117145  76.6185103  50.0327833
  74.8029638  74.8528894  51.0924996  75.7375839  74.4087857  51.4350729
  74.1302719  74.9817622  51.9404250  74.1446685  73.9250567  50.0507338
  73.2947938  74.4523284  49.6173767  74.8781449  73.7170271  49.2717357
  73.6535684  72.5698307  50.6840939  74.5300709  71.9339181  50.8084223
  73.2328207  72.8030194  51.6622012  72.5984509  71.8306675  49.8333542
  72.4693623  70.8334725  50.2541141  71.6611467  72.3815394  49.9114577
  72.9983214  71.7153352  48.3691367  73.8666053  71.2045431  48.2965127
  72.2760900  71.2256863  47.8604858  73.1175719  72.6392564  47.9789470
  75.4263533  77.1827440  51.6643187  76.5017384  77.1887847  52.2024648
  74.4664454  78.0589951  52.0513725  73.6576364  78.2388308  51.4738030
  74.6124632  78.8101934  53.2826751  75.5719603  79.3266177  53.2549165
  73.4652047  79.8832661  53.5139277  73.6392914  80.5184475  52.6454016
  72.5164456  79.3597224  53.3962066  73.4174299  80.7472301  54.7758456
  73.6318649  80.1144791  55.6370915  74.4549590  81.9033958  54.7114849
  74.2408767  82.5368864  53.8506962  74.3945724  82.4976372  55.6232586
  75.4578396  81.4873644  54.6153137  72.0344431  81.2953620  55.0795443
  71.3387668  80.4685661  55.2228703  72.0731879  81.8983428  55.9867457
  71.6971260  81.9132364  54.2473499  74.6546295  77.8373480  54.4481423
  73.7366481  77.0723779  54.6476967  75.6706980  77.9424555  55.2776307
  76.5167196  78.3098074  54.8660491  75.7271966  77.4505545  56.6280197
  74.9093452  76.7633293  56.8446755  77.0715089  76.6783893  56.7529447
  77.1551997  75.9239401  55.9707034  77.7755932  77.4864574  56.5544723
  77.3931715  76.0418505  58.1148645  76.7403067  76.4509659  58.8858982
  77.1677370  74.5757193  58.0013553  77.8206301  74.1657862  57.2307812
  77.3891624  74.0985583  58.9560222  76.1280124  74.3870866  57.7339775
  78.8844351  76.2274122  58.2917652  79.1228249  77.2909447  58.2787852
  79.1940671  75.7977899  59.2444739  79.4121822  75.7273633  57.4796488
  75.4601300  78.7023192  57.6054789  75.9665553  79.8153368  57.3899396
  74.6790351  78.4262934  58.6943396  74.2050138  77.5395755  58.5987651
  74.4181200  79.2309067  59.8993482  75.1629685  80.0267031  59.8965357
  73.0194493  79.8668472  59.8404761  72.2624448  79.0826812  59.8517847
  72.8795334  80.5186716  60.7028267  72.9234351  80.4506499  58.9250227
  74.5280194  78.4597003  61.2248402  74.0871497  77.3222637  61.3514965
  75.0770114  78.9988069  62.3187967  75.8959456  79.5418518  62.0852406
  74.7891512  78.7498934  63.7328181  74.2460856  77.8142862  63.8663025
  76.0891872  78.6498535  64.4445353  75.8722602  78.2085836  65.4173265
  76.7040563  77.9626167  63.8633799  76.7987384  79.8913479  64.6278326
  77.6209099  79.7241389  65.0943892  73.7797915  79.6461404  64.3957391
  73.6460728  80.8034667  64.1646626  72.9911092  79.0481135  65.3646054
  73.4609593  78.2268274  65.7179176  71.7100062  79.4156549  65.9498868
  71.5694053  80.4890777  66.0767492  70.5290893  78.8306581  65.0948781
  70.6496582  77.7482152  65.0515090  69.1650466  79.1656046  65.6793919
  69.0435504  80.2479484  65.7226508  68.3845593  78.7377577  65.0501961
  69.0883347  78.7514323  66.6847156  70.6238392  79.2403074  63.6474141
  70.6712933  80.3292328  63.6569171  71.5736494  78.8388261  63.2941821
  69.5033999  78.7886334  62.7160020  68.5532723  79.1901378  63.0683534
  69.6995452  79.1528251  61.7075424  69.4556269  77.6997304  62.7056203
  71.6048563  78.7725644  67.3850607  71.0846408  77.7109738  67.6299101
  72.0197564  79.5783070  68.3403464  72.5289726  80.4255991  68.1332374
  71.9486981  79.1253517  69.7585990  72.4416054  79.8856705  70.3644512
  70.4796852  78.8872447  70.3350574  69.9757665  78.2324521  69.6241342
  70.6040223  78.3653539  71.2838831  69.5912573  80.1426531  70.5708254
  69.8284279  81.1373057  70.0034998  68.6112605  80.0664016  71.3863780
  68.0279181  80.8750883  71.5471179  68.4243396  79.1977816  71.8666494
  72.8807790  77.9380070  70.0190977  74.0950223  78.1428352  70.0787014
  72.2676436  76.7550218  70.2021796  71.2717698  76.6773210  70.3515026
  73.0991235  75.5063636  70.2806891  74.1211571  75.7614628  70.5608159
  72.5352146  74.5536585  71.3187030  72.4171778  75.1343118  72.2335846
  71.5544878  74.2495794  70.9529015  73.3411288  73.3660104  71.5962858
  72.9029317  72.8302858  72.2615544  73.2251527  74.8012194  68.8909491
  74.0965774  73.9141109  68.7496855  72.2891294  75.1162895  67.9512719
  71.5781804  75.7621773  68.2634896  72.1597045  74.5409338  66.6355534
  72.3781823  73.4749772  66.5714975  70.6869588  74.7861060  66.1204422
  70.4216976  75.8385688  66.2207360  70.6344922  74.3982906  64.6930094
  70.8992017  73.3457613  64.5919622  69.6266429  74.5573639  64.3095584
  71.3389411  75.0057396  64.1248035  69.8383138  74.0674069  67.0053757
  68.9240699  74.1827766  66.7362138  73.2505951  75.0753540  65.6695747
  73.4331994  76.2808469  65.4870852  73.7476038  74.1917290  64.8291877
  73.5745619  73.2177088  65.0327571  74.5928383  74.5367683  63.6032532
  74.5940306  75.6094516  63.4097375  76.0767673  74.0650045  63.8293918
  76.0917273  73.0599024  64.2508717  76.7856666  74.0596918  62.4735527
  76.7715162  75.0646211  62.0516312  77.8181215  73.7354907  62.6040553
  76.2731155  73.3751730  61.7976629  76.8297688  74.9369906  64.7883209
  76.3294876  74.9295411  65.7567037  77.8460628  74.5597541  64.9020689
  76.8620889  75.9566596  64.4044833  73.8354358  73.7675446  62.4117612
  73.6855614  72.5465044  62.4342005  73.2694281  74.5745752  61.4624804
  73.4310165  75.5662911  61.5648923  72.3786511  74.1039656  60.3266650
  72.4326268  73.0232162  60.1956436  70.9148404  74.4873611  60.7125307
  70.8317493  74.1678581  61.7513343  70.9147774  75.5764007  60.6667844
  69.7096272  73.9356116  59.9036880  69.7746329  74.3046180  58.8801113
  69.7572882  72.8466579  59.9004975  68.3867266  74.3856984  60.5242997
  68.5006171  75.3877055  60.9379538  67.6100593  74.3949980  59.7595770
  67.9648724  73.4520563  61.6296492  68.5787210  72.6565078  61.7315894
  66.9131561  73.5300512  62.3992632  65.9321148  74.4083705  62.2239941
  65.9775838  75.0655245  61.4583694  65.1452536  74.4149822  62.8571650
  66.7723472  72.7795912  63.4399993  67.4897098  72.1089213  63.6759926
  65.9454733  72.8666042  64.0134162  72.8219679  74.7178660  59.0204757
  73.5741179  75.6796896  58.8946346  72.4746097  73.9787386  57.9867393
  71.8002677  73.2836051  58.2733603  72.9294688  73.9728279  56.5924659
  73.6078054  74.8141929  56.4508201  73.6629805  72.6731622  56.1876676
  74.4999872  72.6779835  56.8858765  72.9671864  71.8798529  56.4608543
  74.1893161  72.4259309  54.7537521  73.3919004  72.5079476  54.0151709
  75.2305960  73.5292493  54.5075946  76.0286205  73.4475875  55.2455561
  75.6488072  73.4181987  53.5071607  74.7538903  74.5055534  54.5952437
  74.7805491  71.0223680  54.6174294  74.0127337  70.2810440  54.8387838
  75.1422871  70.8772212  53.5995005  75.6086801  70.9068992  55.3166896
  71.6919538  74.2099624  55.6943562  70.6037138  73.7405920  56.1286165
  71.7788636  74.9751190  54.5758970  72.6720825  75.3755995  54.3271504
  70.5974279  75.2872598  53.7142591  69.7547431  74.6276217  53.9212837
  70.1957332  76.7098814  54.0584497  71.0585005  77.3211548  53.7937297
  69.3454488  76.9946754  53.4387653  69.8410137  76.9341709  55.5640281
  68.5082940  76.6398696  56.0278439  67.8155713  76.1989167  55.3110487
  68.0857384  76.8998424  57.3499856  67.0856822  76.6171087  57.6786968
  68.9878335  77.4751436  58.2602516  68.5022302  77.7197673  59.5308726
  67.5843541  77.4597735  59.6381398  70.2878301  77.8117922  57.7973892
  70.9537761  78.3591040  58.4645221  70.7237318  77.4527012  56.5036812
  71.7700350  77.5803902  56.2261111  70.9072137  75.1392049  52.2268256
  71.7413213  75.9125320  51.7498449  70.1507961  74.3074814  51.4789255
  69.8251170  73.3905562  51.7496295  69.8883224  74.7623599  50.1093116
  70.8224988  74.9336035  49.5744384  69.0739796  73.6457243  49.3548742
  69.5303585  72.6820823  49.5811740  68.0509551  73.6598922  49.7308000
  69.0633960  73.8615092  47.8400720  68.7520561  74.8752549  47.5881040
  70.1119226  73.7273417  47.5741956  68.1773352  72.8215925  47.0356372
  68.2257277  72.9388710  45.7844698  67.5890843  71.9181741  47.6156071
  69.1883169  76.1072650  49.9557555  68.1539154  76.3412095  50.5843520
  69.7534445  77.0221685  49.1093416  70.7165358  76.9407413  48.8162137
  68.9709344  78.1692906  48.6230559  68.2143661  78.4108281  49.3696236
  69.8260504  79.4243691  48.3648610  70.0922746  79.8688550  49.3238481
  70.7299861  79.0861200  47.8583159  69.2547145  80.5194524  47.5313702
  69.4919008  80.8584956  46.2568937  70.1619236  80.2058452  45.6972360
  68.8149422  81.9899860  45.9310124  68.9908658  82.4805707  45.0658667
  67.9326748  82.3824966  46.9030518  66.9832420  83.4052774  46.9488545
  66.8537179  84.0411012  46.0730404  66.2439713  83.5480555  48.1461728
  65.4537923  84.2928618  48.2409396  66.5322909  82.7065546  49.2516559
  65.9519820  82.7708527  50.1720943  67.6041533  81.7383488  49.1913429
  67.9297924  81.3073694  50.1380829  68.2474972  81.4715531  47.9633870
  68.2596010  77.8130841  47.3270626  68.8515034  77.1626416  46.4736330
  67.0071298  78.2910916  47.0963101  66.6632258  78.9780731  47.7519668
  66.1214771  77.8669121  46.0029679  66.7172141  77.3379146  45.2590873
  65.0570302  76.8563634  46.6134578  64.5588948  76.4530749  45.7318004
  65.5080234  75.6506205  47.5708763  66.0058569  76.0531797  48.4530371
  64.6303096  75.0816884  47.8775259  66.1947527  74.9966310  47.0334740
  64.1959011  77.6095836  47.4571550  63.5377773  77.0275914  47.8441413
  65.3690836  79.0175729  45.2845218  65.3286941  80.1765087  45.7098812
  64.6465244  78.6190280  44.2009984  64.6149338  77.6293042  44.0021308
  63.9969069  79.5447404  43.2519069  64.5315479  80.4938099  43.2909615
  64.0865934  78.9919150  41.8301480  63.3307512  79.4310687  41.1790361
  65.4998659  79.3970511  41.3289709  66.2563038  78.9578553  41.9793618
  65.6424182  79.0351432  40.3107368  65.5940436  80.4828625  41.3446174
  63.9945798  77.5667405  41.7402694  64.0589366  77.2993062  40.8205208
  62.5502036  79.9197633  43.5427030  61.8752547  80.8059154  42.9589843
  62.0289391  79.3983009  44.6169001  62.4447730  78.5287981  44.9188048
  60.8918445  79.9252900  45.3765232  60.0647357  80.1661811  44.7087196
  60.4270982  78.8737386  46.3629119  61.1127813  78.9771601  47.2038887
  59.4340098  79.2098947  46.6610300  60.3620330  77.4165649  45.9394035
  61.3006956  77.1824111  45.4372229  60.3092479  76.8720106  46.8821513
  59.2293972  77.0185743  45.0767397  59.0542680  75.8113177  44.8169181
  58.4504434  77.8802435  44.6612844  61.2017290  81.2409381  46.1371963
  60.2492380  81.8053606  46.6960578  62.4654872  81.6542667  46.2218172
  63.1481984  81.1376287  45.6860095  62.9480676  82.6750722  47.1701522
  64.0214747  82.8211012  47.0494385  62.2262006  84.0335101  46.9007516
  61.1487512  83.8686151  46.8973294  62.4832551  84.7357177  47.6938011
  62.6777968  84.6356504  45.4885569  63.7603849  84.7624336  45.4830976
  62.3893852  83.9450072  44.6961349  61.9849720  86.0297538  45.2474852
  60.9272945  85.8285228  45.0774162  62.1021123  86.6010207  46.1683716
  62.5633692  86.8600143  44.0367247  62.0623263  87.8277829  44.0148074
  63.6306542  87.0076752  44.2016434  62.3482498  86.1445754  42.7020817
  61.3593195  86.0080365  42.5488702  62.7305766  86.7053037  41.9540777
  62.8128082  85.2479780  42.7220263  62.8750764  82.1593760  48.6761535
  62.3210925  82.8227954  49.5414064  63.4649700  80.9528478  48.8547934
  63.9565418  80.5330251  48.0787745  63.4314997  80.2269696  50.1341173
  63.2485228  80.9283781  50.9481473  62.3233466  79.1791027  50.1353461
  61.4647227  79.6404556  49.6474756  62.6845561  78.3502998  49.5264835
  61.9083587  78.6579021  51.5091015  61.2746049  77.7732456  51.4471350
  62.8515197  78.3956887  51.9884663  61.2294464  79.6910249  52.2988671
  60.0821532  80.1113362  51.9380770  61.7946449  80.0510203  53.3940739
  64.7713350  79.4627167  50.4419941  65.2990690  78.7580617  49.6252444
  65.2941297  79.6277858  51.6473583  65.0417914  80.4466832  52.1819908
  66.3490974  78.6976913  52.2124276  67.0402094  78.3577030  51.4411486
  67.1443712  79.5130419  53.2664276  66.4228811  79.6976585  54.0623346
  67.8973442  78.8066758  53.6159682  67.8477167  80.8795795  52.8620390
  67.2770934  81.3856326  52.0833221  67.8974680  81.7646033  54.1171627
  68.4683607  81.2593818  54.8962209  68.3756811  82.7135669  53.8745083
  66.8837035  81.9495611  54.4723705  69.2945616  80.4888688  52.3687784
  69.2184358  79.8157803  51.5148134  69.8340180  81.3890624  52.0742626
  69.8322107  79.9914552  53.1760034  65.8284665  77.4080013  52.7664785
  65.3572980  77.3906730  53.9199554  65.8385904  76.2627340  52.1049112
  66.0829985  76.3742226  51.1312921  65.5164788  74.8989602  52.5985580
  64.5746786  74.8836498  53.1470807  65.3796220  73.9996877  51.3654935
  64.9826315  74.5849991  50.5360911  66.3602763  73.6074488  51.0961131
  64.4324509  72.8385644  51.6687136  64.8433040  72.2435513  52.4843483
  63.4606706  73.2351920  51.9627064  64.2664774  71.9421689  50.4045856
  63.6349339  71.0896984  50.6546774  63.7922908  72.5259052  49.6155999
  65.5865844  71.4315397  49.8987119  65.7772370  71.6443437  48.9299677
  66.4338961  70.6486200  50.5533611  66.1894099  70.0301082  51.6242079
  65.2791774  70.1114880  52.0542708  66.9049398  69.4561631  52.0469413
  67.6504607  70.6012223  50.1410213  67.9312921  71.1509742  49.3416424
  68.3197440  70.0144528  50.6183683  66.6141005  74.3166267  53.5832044
  67.7896645  74.2655587  53.1685222  66.2817035  73.8949525  54.7744160
  65.3538528  74.1492779  55.0818424  67.1472320  73.1305233  55.7071016
  68.0247535  73.6951843  56.0220828  66.2039458  72.9311543  56.9516116
  65.2818840  72.4515852  56.6231060  66.8682588  72.0783670  57.9843032
  67.7902229  72.5575439  58.3136531  66.2004424  71.9522480  58.8364853
  67.0991525  71.1026575  57.5567758  65.9328401  74.1103384  57.5183571
  65.3576154  73.9768664  58.2752602  67.6714742  71.7939920  55.1347169
  66.9401781  70.9285495  54.6206777  68.9884991  71.7194551  55.0838576
  69.5311065  72.4417991  55.5354057  69.7182291  70.6311950  54.3610429
  69.0351615  70.2058071  53.6258131  71.0007665  71.0883666  53.6358175
  70.6821639  71.8315144  52.9048435  71.6187477  71.5678566  54.3949542
  71.8221526  69.9827936  52.9239311  72.7575936  70.4484808  52.6137918
  72.0317121  69.1932485  53.6455975  71.0723139  69.3421849  51.6170874
  71.6800039  68.7812604  50.7099244  69.8406440  69.4999159  51.6197257
  70.0793148  69.5450288  55.4309028  70.0469159  68.3538205  55.1553177
  70.5967238  69.9536095  56.6537915  70.3939855  70.8999827  56.9425376
  71.3422927  69.0920357  57.5732254  70.8211285  68.1490973  57.7386168
  72.7065663  68.7932024  56.9323486  72.6161155  68.5247470  55.8798042
  73.4006079  69.6273048  57.0356904  73.4959222  67.3788656  57.7457037
  74.5946166  67.3828793  56.9962021  71.6159959  69.8426191  58.8929421
  71.8987902  71.0609640  58.9089742  71.6735556  69.0985446  59.9743861
  71.6597617  68.0893014  59.9378194  71.5817418  69.7440593  61.2778902
  71.9909470  70.7529379  61.2248424  70.1043921  69.8332162  61.7205661
  69.4519066  70.3085086  60.9881324  69.8264683  68.7847012  61.8276852
  69.9131944  70.5335036  63.0769075  69.7380164  71.7572887  63.0157202
  69.7937761  69.8801435  64.2152347  69.6700669  70.3919226  65.0771384
  69.8265209  68.8706874  64.2204157  72.5090027  69.0986591  62.3736931
  72.5283390  67.8771233  62.4832674  73.2157168  69.9039015  63.0323893
  73.2747232  70.8599829  62.7121927  73.9831369  69.5193124  64.2350496
  73.8287589  68.4590458  64.4353029  75.4478568  69.7637195  64.0568761
  75.8838935  69.1549537  63.2648057  75.4897251  70.8148257  63.7713539
  76.3553274  69.6055973  65.2811602  76.7776188  70.6318168  66.1381336
  77.6894609  70.0562249  66.9478700  78.1916184  70.6825438  67.6852040
  77.8095365  68.7613049  66.6778888  78.4066211  68.0967112  67.1489570
  76.9775584  68.4658362  65.6378716  76.9211602  67.4457702  65.2578903
  73.3843742  70.3878041  65.3629832  73.0727905  71.5695037  65.1639689
  73.4681366  69.9111747  66.5921721  73.9322062  69.0220231  66.7111188
  72.7867676  70.5041453  67.7551816  72.5611471  71.5580860  67.5926899
  71.4643224  69.7407293  67.9357468  70.8557277  69.9407786  67.0538784
  71.7136794  68.6802387  67.9715344  70.6949017  70.1158439  69.1703847
  70.2799913  71.4758748  69.3846070  70.5392953  72.2532766  68.6659225
  69.5436645  71.7953808  70.5173064  69.2830889  72.8393085  70.6917113
  69.3038472  70.8214235  71.5314459  68.5897937  71.1782865  72.6042341
  68.3018719  72.0936464  72.5756508  69.6368434  69.4642531  71.3155272
  69.3531091  68.6805555  72.0179611  70.3694212  69.1329536  70.1311668
  70.6875647  68.1051092  69.9567520  73.6503011  70.5928088  69.0083511
  73.4714168  71.4423484  69.8785545  74.6795510  69.7537246  69.1637319
  75.0724468  69.3149937  68.3432153  75.3038285  69.4851264  70.4608289
  74.6065360  69.5871160  71.2923820  75.7586896  68.0026862  70.3735275
  74.9800471  67.3128477  70.0480462  76.5425344  68.0479416  69.6174592
  76.3586039  67.4819241  71.6614152  75.6567978  67.6212939  72.6838771
  77.4534877  66.8010225  71.6700975  77.8296899  66.4666256  72.5457403
  77.9297495  66.6052757  70.8012139  76.5880186  70.3809097  70.7236996
  77.7589422  70.0130306  70.5400180  76.3035867  71.5262638  71.3581352
  75.3307614  71.5831423  71.6236066  77.1533115  72.6286003  71.6650587
  78.2021999  72.3349591  71.7063764  76.9629340  73.6832389  70.4716402
  75.9373164  73.9852942  70.2595778  77.5448952  74.5566282  70.7659399
  77.5787392  73.0904329  69.1854789  78.7558822  72.7183906  69.0446107
  76.7261209  72.8644708  68.2253606  77.0473386  72.4770392  67.3496804
  75.7484011  73.0779144  68.3617667  76.7706579  73.2066780  73.0027603
  75.6657659  72.9833266  73.4463118  77.6278217  73.9382632  73.6870009
  78.5962288  73.7043162  73.5210016  77.3168765  74.8749073  74.7616491
  76.4492555  74.4972898  75.3027018  78.4892369  75.1399147  75.7726146
  79.3433079  75.5949852  75.2710431  77.9486044  76.0930674  76.8082856
  77.0947366  75.6384771  77.3106381  78.7252812  76.3134393  77.5406176
  77.6344050  77.0173167  76.3233721  78.9451715  73.7948505  76.3708756
  78.0604193  73.2007864  76.5997908  79.5499956  73.2737932  75.6287256
  79.7703928  73.9993315  77.6521075  79.1660358  74.5199543  78.3949429
  80.0753425  73.0302375  78.0470273  80.6556115  74.5929635  77.4238778
  76.7353876  76.0562761  74.0475221  75.6163049  76.4878138  74.2486422
  77.5119742  76.6569779  73.1803147  78.4631871  76.3316749  73.0829941
  77.1018745  77.8257481  72.4188802  76.0979153  77.6782787  72.0208626
  77.0941333  79.0407567  73.3034508  76.5813992  78.7593572  74.2232427
  78.1347278  79.2769862  73.5258440  76.4191815  80.2544343  72.7009429
  76.7850096  80.3252250  71.6766093  75.3522137  80.0317813  72.6905735
  76.6887951  81.8347083  73.5392588  76.4955381  81.2809071  75.2300468
  77.2422934  80.5181693  75.4506970  76.6281547  82.1250109  75.9068054
  75.4982906  80.8617614  75.3638962  77.9946024  78.0425280  71.1662636
  79.1111535  78.4825748  71.2566486  77.5051533  77.7192024  69.9513640
  76.5630504  77.3674995  70.0454205  78.1271128  77.6180505  68.7083802
  79.0837680  77.1478997  68.9361265  77.3400274  76.6972108  67.7719814
  76.3832321  77.1586132  67.5275418  77.9095580  76.5362099  66.8566597
  77.1661657  75.7403292  68.2641693  78.5005724  79.0274635  68.1230250
  77.9969007  79.4706834  67.0659437  79.4359112  79.7584015  68.7385978
  79.9421806  79.3681103  69.5205590  79.5356818  81.1963777  68.4967357
  78.5594845  81.6073950  68.2394362  80.0345692  81.8827121  69.7571719
  79.6288171  81.3529289  70.6190270  81.1059304  81.6946337  69.6870888
  79.7922263  83.3725877  69.9193379  80.1084378  83.8929118  69.0152506
  78.3215609  83.6213659  70.1545545  78.0046978  83.1017002  71.0587912
  78.1475540  84.6910696  70.2709859  77.7493081  83.2511648  69.3039204
  80.5060500  83.9028629  71.2123460  81.5784203  83.7233597  71.1355344
  80.3237335  84.9725055  71.3159151  80.1125173  83.3815711  72.0849776
  80.2185453  81.6405796  67.1936685  79.7486514  82.5283920  66.4701475
  81.3423544  80.9503131  66.8951364  81.5950359  80.1652218  67.4781314
  82.1224869  81.2043532  65.7260779  81.7042099  82.0461590  65.1742566
  83.5499495  81.5409696  66.1153578  83.9789359  80.6024777  66.4665028
  84.0502095  81.8472859  65.1966574  83.7345501  82.5856513  67.1498029
  82.9671136  83.7945136  67.1226327  82.4167106  84.0340963  66.2128216
  82.9110328  84.6643323  68.2295998  82.1156893  85.4082941  68.2748947
  83.6790618  84.3650883  69.4005765  83.6352067  85.2452113  70.4191335
  83.0727482  86.0016350  70.2373005  84.6895629  83.3373569  69.3096612
  85.4583846  83.2215172  70.0735951  84.6650282  82.4764151  68.2038465
  85.3924274  81.6683734  68.1260073  82.2552212  79.9120327  64.8846188
  82.7176605  78.9050835  65.4394630  81.9587129  80.0373380  63.5504751
  81.4444015  80.8824732  63.3471785  82.1737500  79.0764044  62.4644840
  82.5652105  78.1439875  62.8712476  80.8532117  78.7776100  61.7324714
  80.6220544  79.7300015  61.2553801  81.0424653  78.0249197  60.9671346
  79.6202909  78.3216140  62.6316215  79.3440265  79.0885854  63.3551778
  78.4684030  78.1113643  61.6469711  78.7437653  77.3441484  60.9233316
  77.5782917  77.7946410  62.1905601  78.2613042  79.0452952  61.1244929
  79.8909137  77.0656245  63.5077948  80.7201228  77.2669121  64.1860242
  78.9986896  76.8265687  64.0864913  80.1438806  76.2218094  62.8658580
  83.2900312  79.5396599  61.5241937  83.4052200  80.7252270  61.1526590
  84.0790539  78.6167799  61.0225188  84.1860961  77.7383466  61.5093415
  84.8855374  78.8437255  59.7838865  84.4350552  79.6438668  59.1965717
  86.3480768  79.2480996  60.1369378  86.6745973  78.4746776  60.8321371
  86.8858750  79.1398404  59.1950498  86.6375104  80.6192705  60.7314093
  86.0533183  80.7335527  61.6445139  87.6993717  80.6784147  60.9702703
  86.2637523  81.7632078  59.7253923  86.9759124  81.8199144  58.9021601
  85.2578809  81.6318225  59.3265687  86.3247402  83.0785587  60.5552203
  85.9632164  83.8945087  59.9294195  85.6708349  82.9675631  61.4201984
  87.7056312  83.3809742  61.0140874  88.3116268  83.4842890  60.2127167
  87.7029742  84.2389191  61.5470259  88.0406554  82.6252158  61.5943349
  84.8278065  77.5973417  58.9708492  84.5806597  76.5301373  59.4772592
  85.1010989  77.6669709  57.6402177  85.1647319  78.5826505  57.2188141
  85.1133860  76.4909718  56.7575422  85.4088547  75.5584054  57.2382889
  83.7237144  76.2934415  56.1078532  83.7638779  75.2796645  55.7094272
  82.4064345  76.4699936  56.9690500  82.3653356  77.4837409  57.3674554
  81.5340699  76.2915973  56.3403578  82.4119674  75.7563312  57.7929164
  83.5901062  77.1319985  54.9219169  82.7235546  76.9978655  54.5311523
  86.2760847  76.4346938  55.7121071  86.9282035  77.4779535  55.4353125
  86.4844148  75.2558234  55.1354052  85.9221406  74.4738270  55.4394260
  87.5352413  75.0108490  54.2126700  87.5511735  75.8245734  53.4876197
  88.8829429  74.9175512  54.8564789  89.0509847  75.7836530  55.4965796
  88.9489779  74.0074758  55.4527190  89.9250311  74.8843803  53.7761559
  89.7371635  73.9570646  53.2349606  89.6893141  75.7332144  53.1342679
  91.4586909  74.9497380  54.2002195  91.5596564  75.7328297  54.9516663
  91.7198368  73.9877922  54.6413120  92.3960308  75.2441259  53.0287373
  92.0266931  76.1180456  52.4921233  93.3928388  75.4517645  53.4177864
  92.4570856  74.1018730  52.1164491  91.5335933  73.9095744  51.7555017
  93.0801026  74.3155096  51.3507409  92.7997038  73.2920793  52.6133858
  87.1632151  73.7695607  53.4054241  87.0642738  72.6991643  53.9977409
  86.9396079  73.9051235  52.0599125  87.1280302  74.7320338  51.5114457
  86.3722441  72.7227057  51.3742869  86.1888516  73.0522071  50.3515967
  87.1735801  71.9838312  51.3792228  85.0993347  72.0798265  51.9256878
  84.1514893  72.7075600  52.3817236  85.1469466  70.7502271  52.0315542
  85.7514936  70.2786921  51.3740764  84.1773061  69.9278056  52.8189646
  83.1620721  70.3219262  52.7734893  84.1975756  68.5618339  52.1565814
  85.2491407  68.3031426  52.2806330  83.5918895  67.9483095  52.8235389
  83.7639920  68.2986692  50.6610455  83.9762520  67.1903033  50.0895075
  83.2382597  69.1904256  49.9865909  84.2048430  69.9564943  54.4019080
  83.5646037  69.1139150  55.0494414  85.0560614  70.8074940  55.0364006
  85.7904899  71.1425661  54.4294074  85.2354389  70.9421095  56.4808740
  84.4133751  70.4236227  56.9743127  86.5658367  70.3621392  56.9998974
  86.4887754  69.8484813  57.9581856  86.7915940  69.6379246  56.2171798
  87.7850113  71.2987975  57.0986730  88.1019844  72.0083585  58.3041755
  87.4480968  72.0181083  59.1762052  89.3286850  72.7190265  58.3298980
  89.5002582  73.3741162  59.1840179  90.3075470  72.6094607  57.3147691
  91.2859008  73.0880095  57.3585265  89.9591807  71.8328004  56.2080652
  90.7406300  71.6704303  55.4657222  88.6660806  71.2636997  56.0178927
  88.4000003  70.8243829  55.0564865  84.7654427  72.2781361  57.1240198
  84.6773281  73.3274065  56.5081924  84.3611392  72.1289260  58.4493609
  84.5419276  71.2252338  58.8625863  83.6981242  73.1682022  59.2859283
  83.8813235  74.1758586  58.9128790  82.1261429  72.9242378  59.4078098
  81.9663950  71.8808252  59.6796021  81.4660244  73.8443945  60.4742601
  81.6249644  74.8880396  60.2028863  80.3962915  73.6400485  60.5191481
  81.9136058  73.6507807  61.4490851  81.3428937  73.0406761  58.1689479
  80.9381797  74.0509200  58.1080005  82.0053596  72.8634948  57.3216904
  80.2058378  72.0385224  58.1391133  79.5426473  72.2153849  58.9858705
  79.6463084  72.1506258  57.2104267  80.6098276  71.0279592  58.1995628
  84.3413208  73.0948339  60.6759895  84.3252920  72.0602074  61.2739645
  84.9516387  74.2433516  61.0376912  85.0804739  75.0100464  60.3929587
  85.5281283  74.3717576  62.4262320  85.6421370  73.4002665  62.9071751
  86.9075883  75.0016140  62.2672574  87.4195668  74.3901600  61.5242221
  86.7861941  76.0142195  61.8825579  87.7476815  75.0413941  63.5718658
  87.1012032  75.1660280  64.4405619  88.4894928  73.7054780  63.6754472
  89.1365666  73.5803363  62.8072688  89.0934499  73.6940567  64.5827543
  87.7671530  72.8899280  63.7101406  88.7280348  76.1614274  63.6649833
  88.1996134  77.1131132  63.6087305  89.2629623  76.0989119  64.6126360
  89.4390512  76.0920125  62.8417359  84.6249913  75.1762891  63.3228772
  84.0473146  76.1327123  62.9030459  84.4380930  74.7312901  64.5423037
  84.9973062  73.9258204  64.7843747  83.4666026  75.2231111  65.5236010
  82.9776666  76.1312172  65.1709195  82.3602527  74.1321635  65.8083960
  82.8267986  73.2287054  66.2010760  81.3469566  74.6960014  66.8613024
  80.8796347  75.5992738  66.4691162  80.5794179  73.9490482  67.0639003
  81.8756540  74.9326218  67.7846612  81.6419812  73.7630354  64.4884466
  82.3672416  73.3657230  63.7783464  80.8792030  73.0102730  64.6874890
  81.1728238  74.6527253  64.0683941  84.1095035  75.6662683  66.8138859
  84.4694776  74.8378801  67.5957540  84.2310520  77.0270503  67.0708672
  83.9623835  77.6144562  66.2944196  84.6889978  77.6698648  68.2990110
  85.4801840  77.0920397  68.7767574  85.0444857  78.6822036  68.1069225
  83.4584049  77.7368240  69.2584153  82.6549525  78.6247608  69.1187784
  83.2221537  76.6328433  69.9954805  83.6695602  75.7911173  69.6616779
  82.2719789  76.5218452  71.1238994  81.2916977  76.9257397  70.8708831
  82.1242330  75.0193739  71.4143182  82.2154614  74.4877868  70.4671161
  82.9439625  74.7312882  72.0724597  80.7791309  74.6574344  72.0796228
  80.4280113  73.4230430  72.0517519  80.0802065  75.5252143  72.6155218
  82.6517934  77.3822722  72.3352703  83.6874691  77.0618026  72.9829300
  81.9746978  78.5338613  72.6181361  81.1140984  78.6499271  72.1023873
  82.3960378  79.5948690  73.4842129  83.2045824  80.1433382  73.0009569
  81.2319474  80.6006062  73.8116353  80.9295493  80.9577558  72.8272072
  80.4175957  80.0282473  74.2558611  81.5607556  81.7874370  74.7016374
  81.8361739  81.3824398  75.6754048  82.6648703  82.6690416  74.1965461
  82.3899613  83.0748068  73.2229556  82.8268250  83.4874035  74.8980838
  83.5810377  82.0862562  74.1011580  80.3698998  82.6989490  74.9706713
  79.5815851  82.1313022  75.4650764  80.6804379  83.5233971  75.6125066
  79.9945155  83.0951783  74.0271735  83.0234060  79.2036025  74.8178192
  83.9865084  79.8221611  75.2891491  82.4711795  78.1559441  75.4859029
  81.6540042  77.7355224  75.0668928  82.9199413  77.6559901  76.8510493
  83.8045644  78.1884672  77.2003474  81.7478931  77.9289299  77.8461533
  81.1905217  78.7986783  77.4983401  81.0915639  77.0587766  77.8590119
  82.2508822  78.1806362  79.1984077  83.1579560  77.5891572  79.3227883
  82.4974371  79.2405339  79.2610933  81.0462552  77.7495698  80.5571294
  81.1627375  75.9606009  80.4675947  82.1905801  75.6528330  80.6597338
  80.5050971  75.5153419  81.2141563  80.8633684  75.6257394  79.4744446
  83.3628056  76.2132022  76.8322007  83.3691165  75.5936475  77.8548112
  83.7036690  75.7257700  75.6527741  83.7068235  76.3459222  74.8555912
  83.9977111  74.2795477  75.4257498  84.5751465  73.8864396  76.2624896
  82.6990934  73.4744833  75.3057178  81.9035076  74.0471787  75.7823334
  82.4748907  73.3545958  74.2457838  82.8005040  72.0952164  75.9651172
  81.9346671  71.5037619  75.6674450  83.7104068  71.6086622  75.6137712
  82.8396552  72.2085650  77.4819182  83.7771476  72.6966304  77.7483751
  82.0036010  72.8395789  77.7834713  82.7476114  70.8820429  78.2335963
  81.8150688  70.5137775  78.1117588  83.5893994  70.2056956  78.9408935
  84.7986812  70.6319958  79.0664786  85.0783348  71.4895434  78.6120493
  85.4613002  70.1066207  79.6187618  83.2841447  69.0841548  79.5548443
  82.3478629  68.7120136  79.4842218  83.9873048  68.5997865  80.0943365
  84.8900367  74.0046679  74.2017604  84.9738299  72.9254010  73.6269788
  85.7224862  75.0191298  73.8677770  85.4287662  75.9071768  74.2488288
  86.8782159  75.0027591  72.9125353  87.2617903  76.0116515  72.7605290
  88.0395408  74.1040684  73.5168974  87.6485668  73.2911378  74.1287654
  88.6843022  73.6949888  72.7390563  88.7865032  74.9903487  74.3311538
  89.5155346  74.5150427  74.7363665  86.4390120  74.6055540  71.4393737
  85.4683819  75.1748323  70.9470694  87.2623939  73.8758198  70.7679250
  87.9923963  73.4154434  71.2925672  87.2372401  73.7051132  69.3444628
  86.6313433  74.5187808  68.9457983  88.6405339  73.8304904  68.7903203
  89.1856861  72.8923053  68.8938429  88.4941130  74.1722914  67.3117558
  87.9494250  75.1106590  67.2074384  89.4818970  74.2742559  66.8623266
  87.9461835  73.3766732  66.8069127  89.5285193  75.0072212  69.3705872
  89.6446167  74.8788006  70.4467525  90.5093509  74.9912597  68.8953881
  89.0434024  75.9623627  69.1694228  86.6345528  72.3351332  69.0331322
  86.9855296  71.3025481  69.6469417  85.6434307  72.2987445  68.1724604
  85.1697531  73.1678870  67.9716615  85.1655077  71.0934221  67.5316426
  85.6530728  70.1984334  67.9181328  83.6918847  71.0217862  67.8621902
  83.6826609  70.6898302  68.9003710  83.3584466  72.0582047  67.8096965
  82.7727495  70.1616017  67.0562130  82.9531028  70.3391088  65.9959938
  83.0150269  68.7204689  67.3678551  82.8344124  68.5420814  68.4278811
  82.3406530  68.1018039  66.7757619  84.0470041  68.4647493  67.1275826
  81.3206870  70.5188394  67.3824487  81.1408830  71.5666254  67.1417946
  80.6507350  69.8914151  66.7945675  81.1348572  70.3532540  68.4436498
  85.4225868  71.1223030  66.0132941  85.3008713  72.1349736  65.3359814
  85.8827051  69.9797828  65.3935298  86.0405216  69.1640821  65.9678344
  86.1186910  69.8683975  63.9356584  86.1503049  70.8668514  63.4995512
  87.4507372  69.1541194  63.6287159  88.3025525  69.7557698  63.9457755
  87.3913935  68.2564818  64.2442034  87.6247112  68.7585194  62.1724197
  86.7376491  68.1856483  61.9021596  87.8005991  69.9042390  61.1995682
  88.6877874  70.4773375  61.4689267  87.9161182  69.5098501  60.1900072
  86.9247611  70.5519485  61.2380450  88.9590898  67.9965359  62.0915252
  88.9154554  67.1171518  62.7340819  89.1385963  67.6853836  61.0624174
  89.7697967  68.6465378  62.4206923  84.9629597  69.0153708  63.3979219
  84.7075185  67.8869047  63.9209516  84.1816409  69.4882715  62.4222724
  84.3943641  70.4250656  62.1103992  83.0896237  68.7887212  61.7907729
  82.7998577  67.8481837  62.2593068  81.9799521  69.8352732  62.0545812
  82.3289832  70.3446573  62.9528041  81.9839361  70.5329323  61.2171112
  80.5521481  69.3174557  62.2822519  80.3880488  68.5270437  61.5498441
  80.2679369  68.7737277  63.6973228  80.4313859  69.5637563  64.4302881
  79.2341413  68.4331483  63.7554020  80.9371428  67.9394715  63.9077520
  79.5033522  70.3468735  62.0034042  79.5759927  70.6681206  60.9643550
  78.5169446  69.9191940  62.1828244  79.6517696  71.2045152  62.6595459
  83.3074063  68.5037428  60.2925522  84.0585708  69.1867210  59.5826004
  82.6085356  67.5059375  59.7368271  82.0466158  66.9313326  60.3485252
  82.5559033  67.2436472  58.2914937  82.9416528  68.0599875  57.6808506
  83.3664219  66.0057398  58.0079465  82.9862106  65.1771313  58.6053971
  83.2899524  65.7552077  56.9498887  84.4103448  66.1879828  58.2631168
  81.1282115  66.9485388  57.8736300  80.4152594  66.3569507  58.6185198
  80.7160139  67.2707504  56.6242794  81.2611366  68.0066604  56.1983956
  79.5316583  66.7871562  55.9164804  78.7753653  66.3858019  56.5910430
  78.9668885  68.0125628  55.2309041  78.7999323  68.7617630  56.0048059
  79.6787314  68.3975801  54.5007388  77.6519778  67.6985428  54.5386598
  76.5258090  67.2876293  55.2848146  76.5619526  67.2037689  56.3709824
  75.3041352  66.9746608  54.5752274  74.3861280  66.7811713  55.1301386
  75.2795139  67.0226909  53.1753871  74.1164709  66.5867766  52.5056591
  73.4284698  66.2877861  53.1047074  76.4051425  67.3883182  52.5216059
  76.3259404  67.3524442  51.4350790  77.5916309  67.7852234  53.1170062
  78.4179894  68.1407832  52.5015318  79.8864055  65.6113601  55.0492658
  80.7953717  65.7903096  54.2061125  79.1567421  64.5108969  55.2284305
  78.4409281  64.6269961  55.9314459  79.3125735  63.2195576  54.6232395
  80.0770427  63.2957645  53.8500133  79.7303881  62.1044176  55.6283895
  78.9209099  62.0092152  56.3521166  79.8182244  61.1794119  55.0585216
  81.0940684  62.3861648  56.3935859  81.9344995  62.2639644  55.7103265
  81.0935577  63.4014603  56.7901675  81.2279819  61.3680626  57.5703340
  82.1055267  61.6611125  58.1466462  80.3360447  61.4756592  58.1875621
  81.3717242  59.8988736  57.1275632  80.6687132  59.7081757  56.3166930
  82.3892253  59.7397301  56.7705423  81.0996506  58.9977492  58.2216271
  80.1567118  59.1447555  58.5523164  81.2006110  58.0439205  57.9052133
  81.7512418  59.1740009  58.9729348  77.9826158  62.8738875  53.9109738
  77.1279915  62.1540284  54.4985087  77.8388336  63.3322112  52.6305644
  78.8363107  64.1644618  51.8690289  79.6863290  63.5166450  51.6547801
  79.1506272  64.9664477  52.5369531  78.1793639  64.6808164  50.6266261
  78.8760812  64.6550792  49.7887587  77.8306216  65.7024786  50.7772468
  76.9788944  63.7103554  50.3994079  77.2752145  62.8688972  49.7731160
  76.1119425  64.2028330  49.9589990  76.6422757  63.2206520  51.7958833
  75.8618972  63.8416872  52.2356821  76.1452673  61.7762109  51.6905101
  74.9874324  61.5816524  51.7126782  77.0559601  60.7662532  51.6187885
  78.0315640  61.0119255  51.5296733  76.6862860  59.3602547  51.5237182
  75.9887305  59.2146778  50.6989013  77.8703378  58.5414082  51.2832292
  78.5012052  58.6191616  52.1687008  77.5320539  57.5116521  51.1680495
  78.6699624  58.9541881  50.0519152  77.9564805  58.9416444  49.2279692
  78.9846553  59.9799879  50.2437625  80.1777048  57.9200513  49.5828887
  80.6952233  58.7390613  48.0294501  80.9305499  59.7842704  48.2300949
  81.5776228  58.2385660  47.6307320  79.8860494  58.6826572  47.3013309
  75.8896855  58.8299429  52.6796325  74.7006278  58.4326059  52.4987562
  76.4562136  58.9624144  53.9023112  77.4660454  58.9630984  53.9207080
  75.7550962  58.9019500  55.1481557  75.1943028  57.9740527  55.2604790
  76.8201043  58.9533764  56.2143724  77.7766777  58.6735950  55.7730234
  76.8832452  59.9698118  56.6029239  76.4953300  58.0220506  57.3193682
  75.5162360  58.4398069  57.5537937  76.3808160  56.9861566  57.0001358
  77.3967842  58.0774219  58.5816833  77.2536865  57.1725488  59.4672665
  78.0876075  59.0423054  58.8645030  74.6098408  59.8648961  55.3239365
  73.6915178  59.5495676  56.0476276  74.5905819  60.9765966  54.5585686
  75.3818930  61.0949987  53.9422025  73.5219745  62.0207498  54.5479211
  73.7141141  62.7284446  53.7414785  72.5529821  61.5467475  54.3914766
  73.4974606  62.7822544  55.8885474  72.3944969  63.0879532  56.3564966
  74.6510162  63.1405253  56.4822656  75.5396831  62.9369740  56.0475964
  74.6529064  63.7631841  57.8446780  73.9340447  64.5824811  57.8352187
  74.2856040  62.7941822  59.0008879  74.5790711  63.3618255  59.8839267
  73.2136063  62.5997473  59.0342931  75.0158263  61.4735217  59.0118953
  74.4351003  60.4413905  59.4176287  76.2655879  61.4374667  58.7128087
  76.7579488  60.5556264  58.7189950  76.7491631  62.2911521  58.4730649
  76.0867687  64.3848072  58.0117549  77.0636016  63.9600509  57.4602992
  76.1133702  65.4593898  58.8191951  75.2681601  66.0105220  58.8636076
  77.3092354  65.9187646  59.6153681  78.0762096  66.2324142  58.9072201
  77.0321965  67.0771538  60.5832574  76.1983489  66.8572373  61.2499163
  77.9415991  67.2063017  61.1701201  76.7313916  68.4319013  59.9380601
  77.5698398  68.8268615  58.9123676  78.4796164  68.2872945  58.6491683
  77.2009364  69.9909902  58.1893430  77.7918000  70.2397045  57.3077977
  76.1335985  70.8033236  58.5641355  75.8994157  71.7182728  58.0199607
  75.3891612  70.4409497  59.6154034  74.5994086  71.1224870  59.9314697
  75.5994244  69.2012299  60.3246695  74.9076283  68.8990789  61.1109409
  77.9475297  64.7831939  60.4673344  77.3153733  63.7243570  60.7324736
  79.1807243  64.8963686  60.9186044  79.5900457  65.7952391  60.7074477
  80.0016557  63.9040855  61.6893960  79.3451780  63.2499301  62.2631702
  80.8340251  63.0511875  60.7470822  80.1439183  62.5285483  60.0847379
  81.4579528  63.7262858  60.1613720  81.7193989  62.0339306  61.4647184
  82.5886242  61.8011702  60.8495999  82.0428720  62.5459001  62.3710029
  80.9637814  60.6731168  61.8597859  80.2999348  60.5666411  62.9095619
  81.0326272  59.7521088  61.0091988  80.8794729  64.8543298  62.5532269
  81.6153323  65.7723477  62.0938206  80.9760327  64.3837293  63.8059716
  80.2808995  63.8069128  64.2578254  82.0982080  64.9515579  64.6513540
  82.3349311  65.9751461  64.3609604  81.6190929  64.9541113  66.1006308
  81.4314335  63.9146463  66.3696950  82.4420579  65.3414687  66.7012829
  80.3662254  65.7804918  66.3632475  80.3658802  66.7820162  65.9330735
  79.6140110  65.1705189  65.8630418  80.0484794  65.8651591  67.8263571
  79.2087908  66.7025010  68.2098915  80.4390057  65.0494810  68.6717076
  83.4318940  64.2597291  64.3590859  83.6040645  63.1407289  64.7928656
  84.3627374  64.9877985  63.6566369  84.1903215  65.9129223  63.2898700
  85.6712952  64.3907576  63.4353958  85.6489769  63.3185804  63.2403651
  86.3858952  65.1128120  62.2668046  86.4709825  66.1596791  62.5582318
  87.7943067  64.5610748  61.8977025  87.7099565  63.5143077  61.6057022
  88.2048804  65.1371214  61.0684256  88.4554600  64.6449944  62.7602180
  85.4880008  65.1656020  60.9878629  84.6630097  65.8542830  61.1700959
  86.0891230  65.5317012  60.1555630  84.9216822  63.7593729  60.6389247
  84.3200242  63.3927929  61.4706257  84.3015104  63.8283888  59.7452117
  85.7461383  63.0702101  60.4560950  86.5475712  64.5195803  64.7057080
  87.2391561  63.5668136  65.0086782  86.5268928  65.6727441  65.4115725
  85.9561331  66.4523622  65.1174156  87.4056926  65.8592158  66.5080912
  87.3676508  64.8984112  67.0214200  88.8605918  66.1266439  66.0695534
  88.9164489  67.0896313  65.5619755  89.5081547  66.1405003  66.9462349
  89.1864593  65.3389965  65.3901998  86.9506982  66.9831036  67.5386980
  86.3484815  67.9747363  67.1901344  87.4138737  66.9235215  68.7717996
  88.0522818  66.1693541  68.9810024  86.9529043  67.7752170  69.8801150
  86.8741518  68.8005860  69.5188455  85.5676146  67.3398028  70.4503806
  84.8353541  67.5125728  69.6616827  85.6346094  66.2713854  70.6555537
  85.1264958  68.0877717  71.7392168  84.3103572  67.5100696  72.1731281
  85.9802440  68.0751019  72.4167531  84.6853271  69.4820182  71.5295007
  85.0361675  70.0609916  72.3837838  85.1741176  69.8398430  70.6233304
  83.2561642  69.6753566  71.3932229  82.7154292  68.8445820  71.1995257
  82.6287994  70.8562756  71.4068460  83.2164806  71.9659916  71.5382283
  84.2208594  71.9929940  71.6411564  82.6793738  72.8213357  71.5397657
  81.2837055  70.8421033  71.3801889  80.7914966  69.9606326  71.3512068
  80.7722783  71.7129984  71.3892790  87.9926942  67.8823063  70.9427716
  88.3653845  66.9491774  71.6508042  88.5212795  69.0728566  71.0606084
  88.5918379  69.7085462  70.2789309  89.1003920  69.4971899  72.3758472
  89.4465181  68.6106231  72.9071618  90.2865932  70.4724856  72.2185097
  91.0370881  69.9466377  71.6283057  89.9185906  71.3305910  71.6560782
  90.9087368  70.9491994  73.5189970  90.4873702  70.5359071  74.6175796
  91.8480942  71.7717235  73.4707191  87.9489260  70.1317761  73.1808610
  87.2679719  70.9734632  72.6028703  87.6428372  69.6697709  74.3624138
  88.2144878  68.9446115  74.7716311  86.4967442  70.1799267  75.1402761
  85.6550143  70.4844465  74.5182974  86.0667625  68.9462771  75.9913257
  87.0382763  68.5274060  76.2536368  85.5320189  69.2197574  76.9009178
  85.2884305  67.8495843  75.3531617  83.8931028  67.7913775  75.5592846
  83.4260675  68.6013902  76.1195144  83.1090940  66.7335582  75.0680173
  82.0324448  66.6716002  75.2264106  83.7799009  65.7152764  74.3362522
  83.2316876  64.8376279  73.9937682  85.1965419  65.8455586  74.0454247
  85.6467929  65.1879673  73.3018200  85.9847040  66.8014339  74.7065631
  87.0708463  66.7099453  74.7016145  86.7791043  71.3535896  76.0792597
  85.8867159  71.7797679  76.7555998  88.0666160  71.7368712  76.3544559
  88.7654742  71.2479087  75.8135196  88.5013968  72.5712047  77.4207205
  88.2962113  72.1206494  78.3918014  90.0290971  72.7353416  77.2657668
  90.3540583  71.6950848  77.2466568  90.2403798  73.1992063  76.3022891
  90.8158270  73.4716665  78.3438279  91.0578460  74.6876239  78.3712036
  91.3559672  72.7086298  79.2611335  91.8926079  73.1253304  80.0084468
  91.2333308  71.7070781  79.2169152  87.7273959  73.8462813  77.6087748
  87.5906410  74.6469883  76.6712886  87.2968057  74.1775190  78.8377836
  87.3024707  73.3505731  80.0694550  88.3445793  73.1745930  80.3361777
  86.8254358  72.4016159  79.8244716  86.5222755  74.1444982  81.1771140
  87.1656899  74.8118689  81.7504666  85.9778087  73.4911383  81.8588604
  85.5724947  74.9164216  80.2985983  85.1383483  75.7730547  80.8141521
  84.7755144  74.3088866  79.8698524  86.5556543  75.4184880  79.1446721
  85.9487387  75.6767150  78.2768757  87.5124214  76.6025094  79.4795151
  87.8070720  76.8957602  80.6641982  88.0228755  77.3165958  78.4327432
  88.0966067  76.8553811  77.5372300  88.5493468  78.6867004  78.5581167
  88.8266258  78.9230530  79.5854204  89.8218568  78.7432816  77.6763895
  89.9344836  79.8271681  77.6518020  90.7177905  78.2950681  78.1059328
  89.6625375  78.2410976  76.2569781  88.6692344  78.6148848  75.6037696
  90.4184273  77.2958319  75.8956068  90.3484824  76.9277362  74.9576766
  91.0891286  76.9126636  76.5463314  87.3512565  79.6369091  78.1323468
  86.2249436  79.3058132  78.3238899  87.6587071  80.8563228  77.6339861
  88.5710623  81.2515222  77.8115381  86.6766232  81.6784579  77.0193820
  85.8060345  81.1097016  76.6927463  86.2327191  82.6752018  78.1182782
  87.0926875  83.2556323  78.4524249  85.4832342  83.3460505  77.6983563
  85.6159150  82.0581064  79.3607652  86.3176868  81.5952443  80.3981601
  87.4031828  81.6883583  80.3645755  85.4482219  81.0737480  81.3299827
  85.8080423  80.7933234  82.2310881  84.1398934  81.1956321  81.0101175
  82.9327830  81.0528631  81.6326603  82.9801963  80.6459256  82.6427358
  81.7065923  81.4245457  80.9693071  80.7467670  81.2538787  81.4568602
  81.7269646  81.9998930  79.7119803  80.8430039  82.3048279  79.1518663
  83.0172408  82.2077981  79.1052721  82.9488227  82.7536808  78.1642983
  84.2356853  81.8526358  79.6930405  87.1830409  82.2481317  75.7171033
  87.9161326  83.2595875  75.7292601  86.7008160  81.7567816  74.5732925
  86.0416632  81.0075155  74.7289113  87.0854701  82.0604215  73.2115872
  88.1663241  82.1462712  73.0998570  86.6024075  80.8861503  72.3755557
  86.6366487  79.9708122  72.9663881  85.5803553  81.0640922  72.0411218
  87.5315930  80.7400656  71.1421756  87.5954222  81.7461915  70.7277636
  88.4978806  80.4578977  71.5602325  87.0836519  79.5579633  69.7984048
  87.4450992  78.0602994  70.7493674  86.8135838  78.0318561  71.6373304
  87.2466366  77.1822722  70.1347281  88.4929945  78.0638372  71.0493744
  86.6300349  83.3934837  72.7198801  85.4229058  83.6757997  72.5528294
  87.5941143  84.1738187  72.1435805  88.5528961  83.8915960  72.2891382
  87.3379262  85.4523799  71.4472854  86.3357036  85.8150628  71.6755620
  88.3720337  86.5142721  71.9244095  88.0921059  87.4956102  71.5413753
  88.3917861  86.5421561  73.0138738  89.6270610  86.1744774  71.4489697
  90.2674791  86.8271843  71.7412678  87.3124755  85.2380206  69.8967628
  86.6484200  86.0435794  69.2588957  88.0730365  84.2510852  69.3344839
  88.6204870  83.6531438  69.9368654  88.1834958  84.0653441  67.8841136
  87.1845174  84.2237364  67.4778461  89.1433501  85.2881044  67.3972062
  90.1496176  85.1387959  67.7886557  89.1776277  85.3121986  66.3080117
  88.7459913  86.2326738  67.7686817  88.7120282  82.7256865  67.3209387
  89.4843281  82.0970528  67.9931958  88.3857659  82.2947436  66.1283461
  87.7128003  82.8445152  65.6135958  88.9028394  81.0643263  65.5074803
  89.8997568  80.7592948  65.8256167  87.9072357  79.8985894  65.8007506
  87.3764964  80.2297232  66.6933678  86.8748324  79.4470595  64.7190366
  87.4048748  79.1153277  63.8262265  86.2736357  78.6262270  65.1100572
  86.2245251  80.2840892  64.4649041  88.6758841  78.6690599  66.2515131
  89.2357256  78.9017806  67.1573391  87.9772111  77.8576035  66.4552144
  89.3672620  78.3639499  65.4660162  89.1282607  81.1077924  63.9790792
  88.4768850  81.8938887  63.2248960  90.0776521  80.2422392  63.5236809
  90.5661124  79.7318169  64.2454668  90.6084452  80.1996713  62.1683468
  89.7772911  80.1495786  61.4649459  91.4701685  81.4525693  61.8320648
  90.9005015  82.2677454  62.2782336  92.3791125  81.2862015  62.4102021
  91.8572617  81.8337482  60.3300680  92.5481415  82.6732816  60.2528049
  92.2976668  80.9566322  59.8559265  90.5387743  82.1891773  59.6248205
  89.9021315  81.2359995  59.1240962  90.1642851  83.3719376  59.6509146
  91.2690454  78.8966584  61.6532683  91.7038474  78.0034653  62.3479864
  91.3031899  78.7097575  60.3349082  91.0172659  79.4487910  59.7086684
  91.8193603  77.4509809  59.7469655  91.9922476  76.7305758  60.5464814
  90.6906573  76.9245053  58.8084524  90.3945192  77.7476968  58.1582537
  91.1282607  75.7016993  57.9350008  91.4241209  74.8778927  58.5845468
  90.2952959  75.3869349  57.3063564  91.9705569  75.9874675  57.3049429
  89.4929716  76.4095048  59.6904867  89.8215673  75.4895437  60.1740124
  89.3012942  77.1691976  60.4482638  88.2396327  76.1469558  58.9207979
  88.4304208  75.3869764  58.1630835  87.4626473  75.7954450  59.5996448
  87.9101489  77.0666305  58.4373327  93.0943376  77.7010536  58.8672283
  93.0552517  78.2571348  57.7433315  94.2968303  77.4548739  59.4234161
  94.3576822  77.1971266  60.3980764  95.5287015  77.6933258  58.6973858
  95.5629343  78.7027318  58.2874749  96.7064868  77.5288811  59.7279098
  96.6308911  76.4772219  60.0043105  97.6795044  77.7155494  59.2734962
  96.5476142  78.4279036  61.0232967  95.5897670  78.2242511  61.5019982
  97.6647808  78.0974547  61.9764128  98.6230037  78.3013019  61.4985488
  97.5698089  78.7083294  62.8741395  97.6116733  77.0430978  62.2477272
  96.4554840  79.9113338  60.6897283  95.5913209  80.0872343  60.0491188
  96.3476374  80.4852179  61.6101236  97.3614741  80.2245579  60.1709108
  95.7547524  76.8754171  57.4233213  96.2771700  77.3342168  56.3033196
  95.4102150  75.6130726  57.3735574  95.0735846  75.4041130  58.3025973
  95.3757471  74.5931096  56.4073191  94.9167360  74.9427255  55.4825615
  96.8549337  74.1719821  56.1043079  96.9830131  73.4364283  55.3101697
  97.2414935  75.1355030  55.7721951  97.6095721  73.7236325  57.3309104
  97.6027971  72.5178444  57.6090291  98.3558189  74.5421242  57.8779661
  94.6230552  73.2837326  56.8763575  93.7990519  73.3051458  57.8164601
  94.7646858  72.1656119  56.1484120  95.4029873  72.2442138  55.3696358
  94.0002280  70.9333786  56.2935176  92.9307436  71.1291606  56.3707949
  94.2616141  70.0922756  55.0042399  95.3355577  70.2784383  55.0136099
  94.0790470  69.0187475  55.0522689  93.6640650  70.6491634  53.7284907
  93.0297471  71.7139307  53.8041897  93.5327173  69.9624392  52.6909635
  94.2606455  70.1761041  57.5838071  93.3251345  69.5177891  58.0810500
  95.3550223  70.4880745  58.2784120  95.8846676  71.2708134  57.9221887
  95.8474019  69.8027565  59.4966889  95.2151481  68.9546707  59.7595668
  97.1968272  69.3075278  59.1997633  97.6591321  70.1314975  58.6562125
  97.8687617  68.9715577  59.9895279  96.9275778  68.1653147  58.2484096
  96.1438763  67.2480499  58.5416455  97.6348141  68.0375200  57.2485205
  95.9083246  70.7606533  60.7272620  96.2137803  70.2848541  61.8571513
  95.7404586  72.0976239  60.4879468  95.4300575  72.4252940  59.5844077
  96.0895664  73.0814879  61.4926503  96.1067059  72.5902331  62.4655193
  97.4836912  73.7470119  61.2439441  97.3394905  73.9941917  60.1921800
  97.8144626  74.6346429  61.7832043  98.5774008  72.6713345  61.3504409
  99.1301475  72.3439158  62.3634912  99.1017289  72.3326247  60.2282187
  99.8286784  71.6318355  60.2050104  98.7846753  72.7686246  59.3741216
  94.9812648  74.1187658  61.5514730  94.7622422  74.8351897  60.5637635
  94.4729200  74.3511073  62.7706453  94.9041451  73.8123519  63.5081322
  93.4264291  75.2928994  63.1275533  93.1825322  75.9415250  62.2861864
  92.1599704  74.4853152  63.5141736  92.2012454  74.2344378  64.5741057
  91.2491242  75.0480422  63.3097293  92.0365516  73.1612417  62.7550937
  91.8221558  73.1088108  61.3439731  91.5486785  74.0216128  60.8147258
  91.9609499  71.8880811  60.6300759  92.0224070  71.9194663  59.5422622
  92.0187296  70.6663518  61.2957402  92.0209818  69.7184952  60.7575369
  92.0756023  70.6773159  62.7114405  92.0964953  69.7230744  63.2378308
  92.1059301  71.9162964  63.4581811  92.1809721  71.8956610  64.5453990
  93.8584105  76.1452918  64.3665114  94.1819985  75.5345636  65.3571334
  93.7562738  77.4919717  64.2926029  93.3657032  77.7898223  63.4100844
  94.0518369  78.4955027  65.2815846  94.7611519  78.1684040  66.0418332
  94.7328452  79.6322084  64.4081626  95.6132197  79.0947300  64.0558034
  94.1335554  79.9465521  63.5536805  95.1713099  80.8620993  65.2025233
  94.2861433  81.3526303  65.6074433  96.1156432  80.4613123  66.3633103
  97.0013164  79.9711025  65.9591121  96.4141750  81.3533342  66.9140157
  95.5968331  79.7770966  67.0347159  95.7097694  81.9326816  64.2929278
  94.9359928  82.2328300  63.5863302  96.0137005  82.7951373  64.8861372
  96.5702858  81.5468223  63.7463721  92.8843720  79.1436856  66.0055049
  91.9321061  79.6303024  65.4066603  93.0077326  79.2445449  67.3161851
  93.7982566  78.8028359  67.7634706  92.0241643  79.9882220  68.1782824
  91.3455167  80.5541199  67.5400849  91.4536359  79.2719381  68.7694965
  92.7328840  80.9435597  69.1122992  93.9601622  80.8443983  69.3509207
  91.8791494  81.7229129  69.7591375  90.8889701  81.6821938  69.5642367
  92.3431448  82.6515531  70.7733371  93.1605761  82.1823458  71.3208311
  92.8880470  83.9124316  70.0538964  92.0789803  84.3983861  69.5085896
  93.2956247  84.6043105  70.7909745  93.6731233  83.6222045  69.3556682
  91.2658054  83.1417552  71.7869977  90.0530618  82.9730576  71.5019293
  91.6616763  83.5610281  72.9953211  92.6235959  83.8395046  73.1267013
  90.7767183  83.5642095  74.1540516  89.7421357  83.7613059  73.8731763
  90.8611627  82.1359103  74.7748507  90.1284154  82.1137863  75.5815049
  90.5554210  81.4464068  73.9879537  92.2165540  81.7200447  75.3122037
  92.2547210  80.6392906  75.4486390  92.8634364  82.0040201  74.4821433
  92.7006960  82.4219536  76.6082490  92.0361791  82.2132783  77.6642542
  93.7845047  83.0858758  76.6588258  91.0060514  84.6091111  75.2624153
  91.8210409  85.5019175  75.0788782  90.1736791  84.6737066  76.3257463
  89.5045972  83.9171214  76.3229939  89.9546778  85.7907194  77.2467994
  89.8888132  86.7127003  76.6691211  88.6386239  85.6310791  78.0890708
  87.8175666  85.2930720  77.4568404  88.8677420  84.8629438  78.8277000
  88.1858448  86.9412702  78.8470255  87.8600254  87.9279508  78.2302362
  88.1273121  86.8282675  80.1759226  87.8463222  87.6209595  80.7351934
  88.3642848  85.9505978  80.6159686  91.1821960  86.2690085  78.0731938
  91.1750031  87.3756027  78.6441531  92.1944742  85.4202045  78.1575007
  92.0517835  84.5207552  77.7207747  93.4220701  85.6285357  78.9393443
  93.2655155  86.5302401  79.5313909  93.6712559  84.4519082  79.8939212
  93.8388268  83.5433403  79.3155403  94.5490239  84.6594784  80.5059166
  92.8030574  84.3164690  80.5388916  94.6332317  85.9324568  78.0044626
  95.6892649  86.0648653  78.5766041  94.4033744  86.1076899  76.6763060
  93.5321581  85.7216500  76.3415603  95.3704642  86.6652564  75.6680352
  94.7844083  86.9397343  74.7909380  96.1822263  87.8628417  76.1000048
  97.0670040  87.5840450  76.6723161  96.4861366  88.3931533  75.1975037
  95.4285158  88.8349650  76.9301841  94.2726460  89.4653513  76.4364432
  93.9476231  89.2636375  75.4157711  93.5317164  90.3565449  77.2533926
  92.6279917  90.8212529  76.8591481  93.9482031  90.6376543  78.5419148
  93.4503567  91.4106867  79.1272948  95.0047609  89.9297229  79.0870842
  95.2097551  90.0118678  80.1544781  95.8102157  89.1104819  78.2779651
  96.7293777  88.6833367  78.6789491  96.3027230  85.5741397  75.1060463
  97.4281559  85.9247333  74.7157720  95.8870222  84.3030931  75.0288229
  95.0467734  84.0380415  75.5226134  96.6661678  83.2463113  74.3574107
  97.6928184  83.5617408  74.1714217  96.6877480  82.0520987  75.2959732
  95.6500130  81.7418712  75.4183017  97.2442333  81.2648392  74.7874001
  97.2986471  82.2664512  76.6775724  98.4902208  82.0429947  76.8650089
  96.5246910  82.6711670  77.5934185  96.8860269  82.8266321  78.5236694
  95.5494121  82.8367450  77.3896646  96.1309818  82.9119393  72.9255339
  94.9483899  82.7527556  72.7031581  97.0144824  82.8592507  71.9134387
  97.8128926  83.4682787  72.0217225  96.9312754  82.0236278  70.6994643
  95.9412892  82.0882013  70.2479593  97.9943862  82.5592842  69.6628049
  98.9474637  82.3032914  70.1256334  97.7873357  81.8633885  68.8498109
  98.0635331  83.9943561  69.1051157  98.1567838  84.7465996  69.8884004
  99.3571410  83.9701293  68.2573583  99.2644542  83.2183932  67.4735211
  99.5137461  84.9491372  67.8044575 100.2060795  83.7257605  68.8958625
  96.9290261  84.4545478  68.1523264  95.9721240  84.3959040  68.6709773
  97.1103993  85.4832057  67.8407689  96.9063009  83.8083301  67.2748384
  97.2261508  80.5641167  71.0157628  98.3479278  80.3280751  71.5199391
  96.4947605  79.6213341  70.3906043  95.6663297  80.0579757  70.0122582
  96.6168236  78.1696676  70.2955935  97.6667843  77.8801761  70.3389101
  95.8743685  77.5000678  71.4622839  95.9046942  76.4127247  71.3925380
  96.3392969  77.8168517  72.3958735  94.4123481  77.8880774  71.5525664
  93.5288824  76.9723643  70.8658504  93.9814875  76.0927668  70.4080767
  92.1189768  77.1806169  70.7721370  91.4658241  76.5294175  70.1912484
  91.5803286  78.2770968  71.4673621  90.5027500  78.4397439  71.4456800
  92.4267676  79.1756031  72.1981682  91.9780134  80.0177867  72.7249001
  93.8377744  78.9782003  72.2410873  94.4676280  79.6673140  72.8036765
  96.2336116  77.5860087  69.0028782  95.2730139  77.9299847  68.3524371
  96.9275724  76.4685588  68.6163588  97.5889313  76.0597914  69.2610392
  96.6818980  75.7888963  67.3626012  95.7672143  76.1308574  66.8783334
  97.8627286  75.9297433  66.3534842  98.7152228  75.4037526  66.7832361
  97.5691738  75.3719227  64.9639290  96.7170276  75.8977752  64.5333168
  98.4413040  75.5097866  64.3248023  97.3391859  74.3091533  65.0396146
  98.4820285  77.2492641  66.0705524  98.8896273  77.6649827  66.9920421
  99.2836510  77.1263103  65.3422782  97.7280746  77.9265290  65.6693459
  96.6025946  74.3164543  67.6981074  97.5180536  73.7768657  68.2830868
  95.4887306  73.7125388  67.3059961  94.8299308  74.3057409  66.8220607
  95.1078419  72.3649103  67.5855925  95.8781017  71.8920725  68.1948735
  93.7392417  72.3006389  68.3648426  93.4892797  71.2883979  68.6826262
  93.7206746  72.9667172  69.2274520  92.3756063  72.8413477  67.2783628
  91.4093787  72.6823969  68.1783835  95.0993207  71.6342690  66.2292457
  95.2290654  72.2459305  65.1556687  95.1687895  70.2784847  66.2565397
  95.1662936  69.7542010  67.1198008  95.3367234  69.5520272  65.0102978
  94.9839455  70.1339410  64.1588149  96.8633063  69.2885190  64.8354573
  97.2853269  70.2512050  64.5469549  97.2196472  69.0195056  65.8298179
  97.2888422  68.2447571  63.8551104  97.2423677  67.3878039  64.5271016
  96.5352263  68.1355420  63.0752147  98.6402845  68.2763147  63.2131424
  99.5019430  67.4401920  63.4225169  98.9175728  69.3206546  62.5573480
  99.8144661  69.4030085  62.1002904  98.2409129  70.0677569  62.4935452
  94.4965125  68.2577959  65.0091649  94.4354100  67.6181982  66.0546381
  93.9456953  67.8261773  63.8863120  93.9083540  68.4212467  63.0710836
  93.3004932  66.5493208  63.8248823  92.7815394  66.3577986  64.7640870
  92.2774499  66.5028440  62.6806435  91.8163709  65.5153948  62.7018431
  91.5229507  67.2602096  62.8933132  92.8710419  66.7530545  61.3102048
  93.3213643  67.7456707  61.3150579  93.6443683  66.0046555  61.1370940
  91.8469833  66.6746706  60.2183673  91.1765404  65.8208706  60.3165042
  91.2597314  67.5867329  60.1117042  92.7292915  66.4899512  58.9840460
  93.5605342  67.1877655  59.0849980  93.1071822  65.4681266  59.0182849
  92.0539866  66.7176010  57.7050715  91.7041249  67.6645254  57.6729670
  92.7080444  66.5745057  56.9488757  91.2839668  66.0708047  57.6111397
  94.5045007  65.5526981  63.7074803  95.3886043  65.7911136  62.9578771
  94.4527995  64.4889052  64.4478975  93.6578571  64.3297036  65.0502436
  95.5744320  63.5791155  64.5374361  96.0704939  63.4839698  63.5715328
  96.5545599  64.1208771  65.5261366  96.5587998  65.1466471  65.1575213
  96.1707991  64.1034948  66.5461981  97.9729843  63.5701395  65.5087443
  98.3928708  62.9267666  64.5113474  98.6108181  63.6088065  66.5874258
  95.0055361  62.1536848  64.8511665  94.6470508  61.9310141  66.0036226
  95.0007156  61.2802016  63.8126946  95.1338738  61.6740104  62.8922150
  94.4649583  59.9119870  63.9160726  94.0458465  59.7257601  64.9048922
  93.3631235  59.7749296  62.8909305  92.5635169  60.4725099  63.1401498
  93.7658216  60.0206662  61.9083076  92.8465529  58.4475893  62.8736181
  92.1495054  58.3840495  62.2165889  95.5439417  58.8428262  64.0720334
  95.3525598  57.6544432  63.8289042  96.7578134  59.2529250  64.4013866
  96.7955716  60.2550704  64.5212964  97.9633119  58.5096070  64.5483244
  98.1899504  57.9061148  63.6693868  99.0747348  59.5361901  64.7341178
  98.8665565  60.1422725  65.6158354 100.0270236  59.0219873  64.8638935
  99.1264855  60.1794210  63.8556674  97.8519595  57.5272570  65.7262697
  98.2343118  56.3282333  65.5606957  97.2770510  57.9340591  66.8467416
  97.1821597  58.9395910  66.8459300  96.9624991  57.2063873  68.0821236
  97.9377753  56.9430468  68.4914977  96.2837646  58.3049904  69.0385544
  95.3023818  58.5721259  68.6466023  96.1741897  57.8953305  70.0426820
  96.9136858  59.1937499  69.0760414  96.2129520  55.8737216  67.9639272
  95.6398310  55.4992918  66.9463405  96.2494992  55.1696480  69.1182506
  96.7362873  55.5520245  69.9163263  95.6438232  53.7726719  69.2405272
  95.2718580  53.4610346  68.2645030  96.6854903  52.7408380  69.7239436
  96.2184265  51.7598489  69.8111903  97.7922706  52.6748945  68.7409081
  98.2601521  53.6554755  68.6534584  98.5327317  51.9480685  69.0748849
  97.3992352  52.3725638  67.7702280  97.1876594  53.1503585  70.9798756
  97.8366810  52.5136461  71.2880453  94.3895258  53.5101699  70.1423518
  93.9384614  52.4226479  70.4469481  93.7409109  54.5767120  70.4928553
  94.2471253  55.4355371  70.3307878  92.3909702  54.6575280  71.1604342
  91.8527990  53.7096845  71.1524555  92.5916556  55.0828648  72.5849794
  91.5865222  55.2120974  72.9863595  93.3789199  54.1758174  73.4887725
  94.3843848  54.0464722  73.0882606  93.4386990  54.6163791  74.4839765
  92.8853808  53.2059096  73.5504052  93.2423739  56.3873105  72.6193276
  93.3697597  56.6574262  73.5316931  91.5036962  55.6368363  70.3314504
  91.9477015  56.7402448  69.9547516  90.2417789  55.3200057  70.1060859
  89.9633702  54.3706061  70.3091336  89.2447556  56.2285439  69.4937855
  89.5170543  56.4639780  68.4649398  87.8861985  55.5286196  69.4914388
  87.7292820  55.4569170  70.5676987  87.1032484  56.1459310  69.0509665
  87.8374982  54.0863286  68.8563419  87.6293530  54.0716377  67.6438331
  87.8366424  53.0430119  69.5387637  89.1697320  57.5940654  70.1743561
  89.1512812  58.6172856  69.4754304  89.1559587  57.6066435  71.4724787
  88.9687851  56.6814392  71.8317313  89.2102553  58.7218471  72.4205493
  88.3313004  59.3577472  72.3148681  89.2401548  58.1617490  73.8438947
  88.2572932  57.7184574  74.0038156  89.9951844  57.3756836  73.8324248
  89.5620466  59.1979472  75.0355058  89.5505447  58.7144842  76.0123538
  90.5860573  59.4659554  74.7753656  88.7045010  60.4559331  75.0818625
  89.1020348  61.4016674  75.8656089  87.7560539  60.6057380  74.2753735
  90.3256505  59.6866418  72.0845914  90.0768683  60.9099544  71.9284294
  91.5871600  59.2514971  72.0967963  91.7689826  58.3029308  72.3921973
  92.6954151  60.0692330  71.7303146  92.6664943  60.9891622  72.3142607
  94.0795675  59.3470593  71.9923076  94.0587908  58.9152549  72.9929137
  94.1978521  58.5517849  71.2563406  95.2681362  60.3341788  71.8808787
  95.5846550  60.2311019  70.8429520  94.8831656  61.3407136  72.0445382
  96.4336072  60.0949530  72.7821968  96.9172983  61.0678506  73.4275342
  96.8544396  58.9450172  72.7618353  92.6645678  60.4593167  70.2877017
  92.8884305  61.6574838  69.9734053  92.3538689  59.4717121  69.3850117
  92.1651613  58.5229613  69.6754608  92.2763961  59.7946562  67.9313384
  93.2587776  60.0759813  67.5520205  91.7814814  58.5400918  67.1502298
  91.0585829  58.0810270  67.8246010  91.2599414  58.9576783  66.2889995
  92.8184908  57.4420550  66.6593564  93.7148366  57.9226930  66.2673714
  93.0904046  56.7875281  67.4874623  92.1572598  56.6166036  65.5529494
  91.6322329  57.2883109  64.8737919  92.9280769  56.0754961  65.0041842
  91.1917074  55.6431924  66.0946885  90.2047669  55.7768009  65.9267702
  91.5921924  54.5146468  66.7197465  92.7754147  54.0834645  66.9442541
  93.5726035  54.6200501  66.6333427  92.9067976  53.2084943  67.4313531
  90.6218901  53.8078786  67.2572493  89.6667234  54.1271844  67.1810887
  90.8364625  52.9491259  67.7436660  91.2914086  60.9414588  67.6819404
  91.6159081  61.7180337  66.7943637  90.2391843  61.1146090  68.4744284
  89.9635213  60.2333897  68.8837714  89.3133392  62.1820704  68.4958535
  89.3689491  62.7523456  67.5686033  87.8911495  61.6165553  68.6402210
  87.2342047  62.3214774  68.1307038  87.8894484  60.6670512  68.1049275
  87.3904405  61.3959018  70.0743868  86.4489589  60.8549107  70.1694748
  88.1978531  60.7954330  70.4934623  87.2873639  62.7028514  70.8707303
  86.4975072  63.5616099  70.6131156  87.9744374  62.7768962  71.9610680
  87.9394672  63.6172114  72.5203077  88.5437257  61.9941636  72.2497578
  89.5687563  63.5305099  69.2261453  88.8602215  64.4841315  68.9726218
  90.5911175  63.7075108  70.0539793  90.9509158  62.8956150  70.5350923
  91.1007058  65.0038366  70.4256973  90.3381222  65.6688990  70.8309844
  92.0962971  64.6754655  71.5295322  92.0105534  63.8183831  72.1974821
  92.9928965  64.5710221  70.9185485  92.2993409  65.8293786  72.3645548
  91.2980574  66.6399342  72.8649804  91.9123132  67.5775591  73.5881232
  91.3477184  68.2926987  74.1863765  93.2538022  67.4265166  73.4065183
  93.9661034  67.9730655  73.8691318  93.4855758  66.4622306  72.5383084
  94.4867092  66.3261978  72.1292506  91.6364101  65.8941660  69.2644448
  92.1372600  65.3464051  68.2455010  91.5927482  67.2121191  69.4569184
  91.0418245  67.5947501  70.2120183  92.3197956  68.1121133  68.6292575
  92.5524372  67.6612994  67.6645068  91.4168066  69.3669187  68.3899417
  91.0021108  69.7706982  69.3135698  92.1286111  70.0779267  67.9705350
  90.2885437  69.1253625  67.3883277  89.7164622  68.2456724  67.6832328
  89.3724659  70.3441886  67.3696116  89.9437752  71.2242513  67.0743251
  88.5638690  70.1807006  66.6571907  88.9539759  70.5001159  68.3639220
  90.8082390  69.0686567  65.9590953  91.5292314  68.2564908  65.8660579
  89.9765668  68.8955180  65.2761270  91.2916737  70.0132885  65.7099758
  93.5561282  68.4281363  69.4608520  93.5396038  69.2791056  70.3796889
  94.7141736  67.8670983  69.1170554  94.7144309  67.3587220  68.2443282
  95.9953761  67.9418638  69.8981874  95.7599205  67.7577477  70.9464055
  97.0861436  66.9167438  69.4432893  97.3570448  67.1532105  68.4143115
  97.9559784  67.0483046  70.0868569  96.6160698  65.4918938  69.5222520
  95.6169272  65.6239643  69.1070746  97.1822848  64.8046958  68.8935538
  96.4894045  64.8892038  70.9061338  96.6817611  65.4881039  71.9756587
  96.3455932  63.6113120  71.0669318  96.2628206  63.2287372  71.9979993
  96.3169642  63.0040026  70.2604227  96.6836898  69.3415317  69.7750290
  96.8370097  69.8681243  68.6551865  97.0717663  70.0719815  70.8422276
  96.5119790  69.9958999  71.6794546  98.0072288  71.1982625  70.7302505
  97.5923456  71.9190394  70.0256571  98.2637003  71.8980640  72.0401048
  98.7787619  72.8391705  71.8474148  97.3110427  72.0995283  72.5299575
  99.1396712  71.0087589  72.9600648  99.3049853  69.9873019  72.6174314
 100.0816315  71.5566626  72.9353354  98.5947876  70.9848647  74.4091766
  97.4484122  70.6774702  74.6833680  99.4103495  71.1181236  75.3264235
  99.2494839  70.9605955  69.8606727  99.9314976  69.9593666  70.0860683
  99.5182524  71.9066977  68.9230507  98.7030676  72.4254624  68.6290160
 100.7310097  72.0334245  68.1422652 101.6609312  71.6540873  68.5658789
 100.5578514  71.4467320  66.7363366 101.5351114  71.4025327  66.2555992
  99.9207014  69.9679970  66.7939459  98.9431561  70.0114635  67.2741715
  99.8106034  69.5795486  65.7814802 100.5766882  69.3111626  67.3652177
  99.9099035  72.3500952  65.7768178 100.5057515  73.2566782  65.6711081
  99.8278439  71.8549838  64.8092278  98.9144975  72.6100929  66.1369137
 101.4848793  73.3460391  68.1393696 102.7312944  73.2573351  67.9284243
 100.7955571  74.4643069  68.2973987  99.7902654  74.5402854  68.2364455
 101.5671511  75.6754697  68.5821094 102.5589307  75.3916582  68.9341371
 101.6606360  76.2615961  67.6678798 100.8764165  76.5381881  69.6648231
  99.6672803  76.8009512  69.5652532 101.5700671  76.9800417  70.7536042
 102.5706849  76.8430335  70.7631996 100.9491157  77.7102806  71.8863127
  99.9092405  77.9582645  71.6735624 100.9921951  76.7913099  73.1067770
 102.0129423  76.6046495  73.4404419 100.4734827  77.3989090  73.8483030
 100.2583986  75.4563246  72.9368066 100.7235779  74.8758344  72.1401008
 100.3457709  74.6832466  74.2445778  99.8803528  75.2629419  75.0417215
  99.8276406  73.7300845  74.1391087 101.3919948  74.5021645  74.4910027
  98.7593971  75.6715825  72.7548332  98.5842638  76.2802078  71.8677012
  98.2650474  74.7073417  72.6366841  98.3561303  76.1812466  73.6298860
 101.7654560  78.9519179  72.2263233 102.9947537  78.8597970  72.2708408
 101.1552175  80.0723112  72.5635485 100.1630609  80.0037320  72.7396776
 101.7584381  81.3487239  72.6176733 102.6357642  81.3007489  73.2627288
 102.2017838  81.8426330  71.2121056 102.7920874  81.0753657  70.7111646
 101.2824529  82.0159640  70.6527425 102.9903972  83.1036693  71.1369706
 104.3333287  82.9785314  71.2524193 104.7000173  81.9699567  71.4432504
 105.2237974  84.0276264  71.1438874 106.2981966  83.9024553  71.2784211
 104.6962124  85.2948198  70.8476916 105.3343498  86.1513936  70.6305239
 103.2818780  85.4409742  70.8365929 102.8373181  86.4339418  70.7696444
 102.4578424  84.3063627  70.9118596 101.3797410  84.4064853  70.7862701
 100.8830898  82.4115892  73.2600678  99.7715431  82.8027746  72.8648122
 101.4345944  82.9977228  74.3055150 102.3006682  82.6263209  74.6689378
 100.7793284  84.0900696  75.0436728  99.6951024  84.0236833  74.9534172
 101.1606610  83.9645035  76.5422360 101.4637785  83.0154589  76.9844274
 102.0418821  84.5825639  76.3703325 100.3236350  84.6822123  77.5857830
 100.5758526  84.8148766  78.9759008  99.4572182  85.2719035  79.5066452
  99.4851221  85.5781485  80.5523671  98.4279218  85.2718665  78.5929237
  97.4471418  85.4664201  78.7354702  98.9749696  84.9568315  77.4380775
  98.3670107  84.9401500  76.5335285 101.0755083  85.5006391  74.4763598
 102.0952058  86.1941787  74.7523109 100.1625473  85.9356554  73.5726275
  99.4064773  85.2844717  73.4163671 100.2097332  87.1193691  72.7796878
 101.1294547  87.2089487  72.2015987  99.0646111  86.9595099  71.8333130
  99.3490341  86.0311749  71.3379375  98.1175467  86.8175484  72.3539051
  98.9100179  88.0779104  70.7802687  98.7419585  89.0095242  71.3205951
 100.1515913  88.2379698  69.8373272 100.3200091  87.3068397  69.2962810
  99.9667293  89.0427140  69.1257701 101.0327631  88.4758326  70.4331945
  97.6058190  87.8838752  70.0224584  96.7697911  87.9245090  70.7206745
  97.4961802  88.6732493  69.2788394  97.6154056  86.9145997  69.5239487
 100.1824930  88.3885882  73.6320246 100.7332412  89.4211493  73.2397504
  99.4515602  88.3836465  74.7594619  98.9704141  87.5497465  75.0647625
  99.3321212  89.6052597  75.5865783  98.8550261  89.3477763  76.5321901
 100.3290307  90.0016645  75.7792802  98.4895513  90.6874577  74.8769103
  98.6791555  91.9040268  75.0258727  97.4906883  90.2416189  74.0957353
  97.4981482  89.2609692  73.8541368  96.4676451  91.0767047  73.5254552
  96.1296241  91.8330931  74.2337753  97.0821444  91.7786693  72.3192573
  97.9072623  92.3600126  72.7307420  97.4787190  90.9709849  71.7040544
  96.1930222  92.6904508  71.4568113  96.8358451  93.2206168  70.7540996
  95.4421241  92.1243863  70.9056107  95.4989310  93.6996508  72.3738690
  96.1175322  94.3209801  73.2757916  94.2575768  93.8482563  72.2145075
  95.2348534  90.2305756  73.1799246  95.2606828  89.0336372  72.8435641
  94.0853224  90.8624230  73.1860193  94.1322080  91.8518642  73.3832683
  92.7600177  90.2487082  73.0078654  92.7845895  89.2188231  73.3640003
  91.6538109  91.0385903  73.8198640  91.9433737  91.2930209  74.8394314
  91.5368427  91.9523217  73.2371862  90.3082180  90.4124401  73.9036237
  89.2931655  90.7305432  72.8815924  89.4671167  91.4131573  72.0497998
  88.0384545  90.0948344  73.0237912  87.3187682  90.3299277  72.2396462
  87.6963187  89.2548965  74.0247879  86.6984886  88.8191007  74.0749585
  88.6467387  88.9458707  75.0086715  88.3666416  88.3729942  75.8926728
  89.9931518  89.3900221  74.8430963  90.7907115  88.9458159  75.4386459
  92.3738292  90.1594344  71.5176823  91.6778840  91.0695728  70.9855467
  92.8363843  89.0885467  70.8992743  93.5087949  88.4839643  71.3492114
  92.4230655  88.7702105  69.4787213  92.9502137  89.4527376  68.8121099
  92.8172110  87.3546300  69.1301225  92.3167027  86.6888469  69.8332039
  92.4271232  86.9498026  67.6527751  92.9276520  87.6148977  66.9490561
  92.7365794  85.9219506  67.4634142  91.3477607  87.0330077  67.5256718
  94.3315710  87.2034234  69.2084400  94.6681563  87.4312381  70.2198315
  94.6085887  86.1799393  68.9557719  94.8026842  87.8907891  68.5058153
  90.8993581  88.9668696  69.2528650  90.1639396  88.3809730  70.0405551
  90.4183544  89.5882827  68.1798044  91.1061010  89.8719560  67.4966987
  89.0005392  89.8264099  67.8805844  88.3745044  89.4712445  68.6991423
  88.7661087  91.3354128  67.7017922  89.7016948  91.8443627  67.9336281
  88.5381969  91.4595830  66.6431430  87.6611941  91.9668950  68.5096919
  86.8738108  91.3658041  69.2155602  87.5910939  93.2984742  68.4502621
  86.8742901  93.7869674  68.9676269  88.2551752  93.8114874  67.8881996
  88.5458940  89.2160515  66.5890631  87.3404219  89.1298641  66.3437085
  89.5422116  88.8760330  65.7430639  90.5058510  88.9874592  66.0242804
  89.2568500  88.6202747  64.3310528  88.6404062  87.7316720  64.1951060
  88.6644097  89.7671485  63.4809987  87.6836632  90.0496146  63.8636848
  89.6054149  90.9593500  63.5691686  90.5863076  90.6777679  63.1862040
  89.2067773  91.7821948  62.9757758  89.6983068  91.2734592  64.6087878
  88.2510712  89.5122632  62.0493110  87.4802713  88.7419597  62.0247733
  87.8590856  90.4317461  61.6145719  89.1154190  89.1790475  61.4748798
  90.5457848  87.8957778  63.7188923  91.6738667  88.4089986  63.9871637
  90.3736909  87.0020733  62.7660283  89.4443172  86.6741894  62.5449942
  91.5362704  86.4895008  61.9313473  92.4785571  86.9634677  62.2062114
  91.6338861  85.0252326  62.2251070  90.5999716  84.6809377  62.2492110
  92.1817084  84.4751903  61.4599637  92.2426574  84.6482059  63.5434364
  93.4930106  85.1702937  63.8049916  93.8913672  85.8928259  63.0927002
  94.2566394  84.8023918  64.9471112  95.2557885  85.2166119  65.0821056
  93.7378664  83.9226936  65.8858390  94.2736634  83.6320047  66.7894547
  92.4283243  83.3878286  65.6224368  91.9892779  82.6915760  66.3369792
  91.7152978  83.7503886  64.4636178  90.7298039  83.3247468  64.2745916
  91.1379606  86.7105613  60.4385802  89.9575712  86.5730774  60.1146156
  92.1083510  86.7680686  59.5353613  93.0414950  86.5559650  59.8583995
  91.9427384  87.2159265  58.1855625  91.0455619  86.7726061  57.7535433
  91.8019465  88.7348728  58.1494830  90.8951089  89.0084040  58.6888580
  92.6667960  89.1716721  58.6488244  91.6939270  89.5232054  56.5840804
  91.5905597  90.7613043  57.0587639  93.0751318  86.6806737  57.3820007
  94.1944373  87.1274530  57.5741505  92.8690369  85.6625717  56.5395595
  91.9924409  85.1635286  56.5908907  93.8359058  85.2524567  55.5401580
  94.8036241  85.1560582  56.0324259  93.5036475  83.9180344  54.8402134
  92.4928592  83.7916309  54.4523625  94.2096973  83.9471549  54.0103063
  93.8094669  82.7172662  55.6054866  94.8098112  81.7655964  55.2802949
  94.5976129  80.7772380  56.1272734  95.2499899  79.9085474  56.0385042
  93.5882899  81.0337243  56.9646567  93.2844093  80.4419665  57.7246431
  93.0217141  82.2381054  56.6296880  92.1385261  82.5916773  57.1617284
  93.9337825  86.3104873  54.3907058  92.9054634  86.6611513  53.7829857
  95.2047353  86.7200456  54.2058679  95.9933776  86.2753725  54.6535379
  95.4562123  87.8403618  53.3329413  95.2725833  87.5038960  52.3125638
  94.7403316  88.6203837  53.5921325  96.8479916  88.4049310  53.4192539
  97.4353019  88.2912465  54.4930995  97.3722610  88.9208925  52.3138846
  96.8737460  88.7737158  51.4479047  98.7412600  89.4473607  52.2481433
  99.1536419  89.5369754  53.2531357  99.6379424  88.4985213  51.4310378
  99.6624799  87.5084739  51.8863434  99.2757359  88.4176653  50.4061627
 100.9580019  89.0553252  51.4281429 101.5444636  88.4856673  50.9250005
  98.8170427  90.9486744  51.8760854  98.0541788  91.4115145  51.0115539
  99.7684749  91.7191712  52.5057333 100.2272536  91.2994958  53.3016566
 100.1170741  93.0896056  52.1502206  99.2650198  93.6146529  51.7184475
 100.5377737  93.8146625  53.4480632 101.3983367  93.2250980  53.7642029
 100.8415619  94.8514759  53.3037342  99.4685135  93.7480075  54.5055289
  99.3044863  92.6968225  54.7426071  99.8311332  94.4989871  55.7684325
  99.9948706  95.5504100  55.5322145  99.0186807  94.4114451  56.4897911
 100.7413910  94.0767548  56.1941683  98.0084706  94.1253865  54.1782421
  97.6309270  93.4710598  53.3924833  97.3942532  94.0115216  55.0714794
  97.9674553  95.1605209  53.8392532 101.2162024  93.2460583  51.1029172
 101.2226588  94.2773244  50.4651543 101.9883788  92.1860884  50.9265153
 101.8150792  91.4241618  51.5664641 103.1304224  92.0567980  49.9565823
 103.6841446  92.9954816  49.9375004 104.1335249  90.8823345  50.3403816
 103.5619579  89.9647538  50.4798668 105.1912284  90.6682813  49.2231970
 105.7635415  91.5853576  49.0834482 105.8646293  89.8604576  49.5096451
 104.6888071  90.4086052  48.2914015 104.9099051  91.1275157  51.6323393
 104.2110085  91.2375984  52.4615121 105.5714641  90.2829631  51.8251351
 105.5021879  92.0372416  51.5338466 102.4900212  91.8931807  48.5960678
 101.5401525  91.0676048  48.4505902 102.9971291  92.5743679  47.5321948
 103.6913333  93.2800135  47.7328045 102.6412442  92.3168610  46.1047758
 101.6039187  92.5528797  45.8673938 103.5816319  93.3212135  45.3189151
 103.2308036  94.3218911  45.5712305 104.5830731  93.1750454  45.7236996
 103.6174678  93.1678508  43.8475213 104.2263581  94.0090079  43.5161483
 104.1694273  92.2397151  43.6991739 102.0775194  93.1155057  42.8624950
 101.8306843  94.9222840  43.0131522 102.6832763  95.4435403  42.5778619
 100.9213582  95.2105134  42.4857524 101.7401688  95.1906309  44.0657196
 102.9343986  90.8993577  45.6100568 103.9352117  90.2474757  45.9604752
 102.0704388  90.3602135  44.7278510 101.2886905  90.9134590  44.4070890
 102.0978411  88.9222805  44.3872374 102.5444015  88.3545891  45.2035765
 100.6860884  88.4126247  44.1572043 100.7569544  87.3281101  44.2403031
 100.1022268  88.8029924  44.9907622  99.9727700  88.7941425  42.7850815
  98.9054825  88.8870637  42.9859889 100.3466217  89.7300447  42.3698417
 100.1832679  87.6727137  41.7431433 101.0994242  86.9119327  41.7352193
  99.2985619  87.6429837  40.8041053  99.3588873  86.9418131  40.0796592
  98.5500137  88.3210253  40.7980649 103.0613173  88.5829637  43.3132295
 103.0693173  89.2886585  42.3184050 103.9142436  87.6078671  43.5943744
 103.8111088  87.0606530  44.4370008 105.1412944  87.4490407  42.8084804
 105.0186567  87.9325527  41.8393182 106.3244801  88.0761636  43.5159248
 105.9804453  88.9788169  44.0208568 106.6666096  87.3538520  44.2570815
 107.5053084  88.4426130  42.6067354 107.4611573  88.6635840  41.3981542
 108.5866540  88.5307970  43.1842129 109.4172633  88.7681707  42.6609141
 108.6392877  88.3654532  44.1791963 105.3708889  85.9989856  42.3511046
 105.2271192  85.0186431  43.0499235 105.7762153  85.8039736  41.0596915
 105.6602565  86.5986487  40.4472012 106.2223525  84.5371895  40.4763555
 105.6039217  83.7552991  40.9171389 106.1450366  84.4151608  38.9026150
 105.2423667  84.8028125  38.4303730 107.0096799  84.9759649  38.5476633
 106.3182434  82.8970807  38.5338679 106.1009879  82.2984915  39.4185101
 105.3742689  82.4869428  37.3942829 105.5912466  83.0848220  36.5090937
 105.5192793  81.4315192  37.1637317 104.3412586  82.6529428  37.6999528
 107.7062953  82.6415029  37.9059355 108.4841483  82.9217317  38.6162283
 107.8046521  81.5845356  37.6584534 107.8108989  83.2376476  36.9994210
 107.6580864  84.1025972  40.9183494 107.8785751  82.9106372  41.2721715
 108.5821940  85.0323490  41.0338813 108.3654706  85.9907632  40.8002735
 109.9150479  84.7244953  41.4899478 110.3373591  83.9759755  40.8195221
 110.5097950  85.6363643  41.4363750 109.9534444  84.1919715  42.9126147
 109.1165079  84.5195913  43.7444389 110.9261584  83.3561341  43.2037973
 111.4807062  83.0938263  42.4014440 111.2619550  82.7564094  44.5159280
 110.3957839  82.2485975  44.9401613 112.3669194  81.7431235  44.3173976
 113.0855578  82.2570691  43.6790261 112.7917429  81.6164941  45.3131837
 112.0378715  80.3347524  43.7061675 112.9214688  79.6965334  43.7119265
 111.2734911  79.9019541  44.3515413 111.4913617  80.4455495  42.2624895
 112.1845930  81.0797003  41.4528500 110.4335030  79.8683638  41.9351233
 111.7138646  83.8198084  45.5834565 112.7748905  84.4479644  45.4117616
 110.9602506  84.0521154  46.6080703 110.0303770  83.6697779  46.5118806
 111.2623840  84.8572769  47.7988647 111.5146485  85.8534002  47.4352713
 110.0781441  84.9710672  48.7452983 109.1840921  84.9236063  48.1235921
 109.9946859  83.8788582  49.8624250 110.8882432  83.9260134  50.4848649
 109.1133296  84.0555711  50.4789336 109.9242604  82.8929862  49.4028630
 110.2105206  86.1865669  49.4340328 109.4758051  86.2909244  50.0430508
 112.5068176  84.2834550  48.5125759 113.0149957  83.2014834  48.2007567
 113.0912289  85.0167993  49.4634548 112.7187236  85.9451797  49.6029143
 114.2105004  84.6086493  50.2564207 114.5200822  83.6039871  49.9684760
 115.3826217  85.5558852  50.0513820 115.0846379  86.5710324  50.3136432
 116.2175554  85.2487003  50.6811623 115.7688110  85.5174014  48.7224498
 116.5088208  86.1137291  48.5868817 113.9598836  84.5204175  51.7546521
 114.6874278  83.7778053  52.4753016 112.8256113  85.0030617  52.2124498
 112.3208241  85.6732429  51.6501808 112.3948371  84.7951552  53.6064206
 113.2974704  84.9503321  54.1974134 111.3264735  85.7467209  54.0969253
 111.7177270  86.7586193  53.9916516 109.9580297  85.6250018  53.3069435
 109.5659034  84.6134342  53.4121464 109.2391326  86.3368184  53.7126565
 110.1265091  85.8409143  52.2519094 110.9224391  85.5298568  55.3895119
 110.2470734  86.1700651  55.6253400 112.0599069  83.3059917  53.9505511
 111.3613660  82.7193549  53.1272864 112.3215968  82.7396702  55.1866067
 113.1065836  83.2822431  56.3127418 112.6508315  84.2102665  56.6579416
 114.1260363  83.4799691  55.9815024 113.0399529  82.1820830  57.3484277
 112.1777959  82.3148581  58.0019987 113.9496752  82.1576763  57.9483536
 112.9082047  80.9006087  56.4933534 112.6035909  79.9623647  56.9570425
 113.8612401  80.7605891  55.9832380 111.8546133  81.3517354  55.5045709
 112.0103471  80.8131821  54.5697953 110.4253567  81.0876107  56.0167603
 110.0606144  80.1687182  56.7448026 109.5091411  81.9522538  55.5094662
 109.8018802  82.5157706  54.7240670 108.1075986  82.1341302  56.0373381
 107.7123069  81.3938245  56.7328890 107.9771787  83.5211956  56.6727412
 106.9096934  83.6976927  56.8047413 108.6998793  83.7104543  58.0219717
 109.7675494  83.5345638  57.8906604 108.5411011  84.7275705  58.3802499
 108.3024902  83.0031771  58.7499424 108.2882909  84.5747052  55.7196054
 108.1977537  85.4296471  56.1467794 107.1026136  81.9808083  54.8212729
 107.4404406  82.2959803  53.6822609 105.8640043  81.4830556  55.0870590
 105.6665675  81.3983145  56.0739415 104.8337578  81.0294369  54.1228524
 104.8443719  81.6374115  53.2182235 105.1642396  79.5709637  53.7408150
 106.2220043  79.6236694  53.4830256 105.0472518  79.0421692  54.6867485
 104.4018243  78.8154682  52.6317815 103.9811798  79.4933656  51.8890742
 105.1464387  78.1754991  52.1583990 103.2798834  77.9356100  53.1806241
 102.9402772  77.9274523  54.3632259 102.5885820  77.2078188  52.3032482
 101.8386013  76.6127798  52.6250540 102.8180079  77.2548286  51.3207742
 103.4798821  81.1647124  54.7568951 103.2103627  80.8781231  55.9114668
 102.5164697  81.5905028  53.8780936 102.6891801  81.6419857  52.8843029
 101.2115664  81.9805743  54.3690779 100.5116944  81.9811024  53.5334476
 100.8880905  81.2523267  55.1127970 101.2260838  83.3741056  55.0086501
 102.2868812  83.9473313  55.3872674 100.0430568  83.9634227  55.1468591
  99.3066537  83.4177935  54.7224789  99.6880714  85.2976841  55.7451673
 100.3544580  85.5097678  56.5812585  99.8244503  86.4131599  54.7197578
 100.8084851  86.3285050  54.2586630  99.0548415  86.2695950  53.9613441
  99.6817722  87.7121140  55.3039250  99.7748698  88.3815466  54.6221679
  98.2587448  85.1369298  56.3100688  97.2786768  84.9891782  55.5601947
  98.2029613  85.1336564  57.6759104  98.9987452  84.7103983  58.1316296
  96.9469027  85.4342129  58.5246226  96.2051140  85.8576549  57.8474626
  96.2863033  84.2833520  59.3259676  96.9026665  84.0703775  60.1993733
  94.8802066  84.6576580  59.7763274  94.2630830  84.8703386  58.9033862
  94.4447032  83.8295337  60.3354763  94.9251780  85.5413447  60.4128627
  96.2164503  83.0081749  58.5115176  97.2237119  82.6993818  58.2319232
  95.7477030  82.2228872  59.1045596  95.6275986  83.1833086  57.6111384
  97.1445275  86.7294349  59.3602992  97.8699765  86.7057778  60.3239143
  96.6130773  87.8818158  58.8685117  96.3999194  87.9148024  57.8818127
  96.4996855  89.1518390  59.6650519  97.4308027  89.3377646  60.2003571
  96.2344446  90.2881137  58.7780907  95.2000027  90.2154463  58.4423101
  96.3637094  91.2005817  59.3601498  97.2009301  90.3242344  57.5139391
  97.5526905  89.3051494  57.3532183  96.5482385  90.8452135  56.2342066
  96.1966164  91.8644881  56.3940189  97.2773606  90.8357773  55.4240260
  95.7045123  90.2075161  55.9704481  98.3594057  91.2477254  57.8752890
  98.8787845  90.8549780  58.7494140  99.0533661  91.3061076  57.0367714
  97.9752961  92.2431196  58.0983342  95.5171921  88.8862275  60.7493098
  94.4532599  88.4084970  60.4466982  95.7512815  89.2744199  62.0008392
  96.7056840  89.5808275  62.1246519  94.8995608  89.1864378  63.1723169
  93.9055757  88.8399520  62.8894026  95.4720459  88.2357118  64.1300642
  94.8167928  87.9197727  64.9418062  95.6325103  87.4011110  63.4475741
  96.8388007  88.5544453  64.7655549  96.9486746  89.2726282  65.9563408
  96.0904520  89.8068272  66.3639991  98.1769434  89.3031635  66.6293075
  98.2536978  89.9315190  67.5166513  99.2843215  88.5616446  66.1983360
 100.2016290  88.4808805  66.7815377  99.1776622  87.8969751  64.9425656
 100.0581880  87.4035368  64.5311132  97.9600003  87.8706823  64.2343924
  97.8897565  87.3291644  63.2910346  94.5942836  90.5507522  63.7883989
  95.5127407  91.3646493  63.9324924  93.2909325  90.8536943  64.0386550
  92.5770344  90.1446259  63.9510718  92.8878026  92.1912317  64.4354157
  93.7065469  92.8952427  64.2866689  92.0217779  92.5146420  63.8579156
  92.5347836  92.1678730  65.8433240  92.0430576  91.1682128  66.3206858
  92.8620721  93.2955334  66.4658424  93.2616083  94.0895399  65.9862344
  92.7793120  93.3368428  67.9232299  92.0804582  92.5952244  68.3101469
  94.1113144  93.1457393  68.6048881  93.8999837  92.9195653  69.6500124
  94.9929745  92.0276322  68.0043207  95.2051251  92.2533598  66.9592663
  95.9290609  91.9648301  68.5592056  94.4674843  91.0749470  68.0702863
  94.8797580  94.3019652  68.6602519  95.7100659  94.1134106  69.1036888
  92.0821153  94.6030138  68.4945344  91.9213661  95.6311003  67.7898225
  91.6589821  94.5199165  69.7948448  91.6484147  93.6505925  70.3089104
  91.0305998  95.7055780  70.4114351  90.2744293  96.2275173  69.8250183
  90.3819827  95.1997153  71.7111693  91.1401522  94.6101783  72.2266540
  89.8516701  96.3067979  72.6631201  89.0930742  96.8965030  72.1484541
  89.4140332  95.8461524  73.5487725  90.6752631  96.9556682  72.9610523
  89.2714798  94.1947683  71.4360896  89.6809157  93.3370853  70.9023815
  88.8395963  93.8623011  72.3800397  88.4978930  94.6645487  70.8286601
  91.8749992  96.9491532  70.6141652  91.4046373  98.0756888  70.4973180
  93.2091037  96.8436450  70.9319251  93.6503634  95.9403858  71.0294553
  93.9944824  98.0495563  71.2790089  93.3641500  98.8362677  71.6935754
  95.0326148  97.6073542  72.3749845  95.4315662  96.6630505  72.0045421
  95.8472629  98.3201680  72.5028318  94.3987954  97.3688538  73.6969090
  93.5599306  98.1931652  74.0770479  94.7308578  96.4140302  74.5310556
  94.2445887  96.3253959  75.4118428  95.4714724  95.7713084  74.2891890
  94.5785876  98.6664415  70.0311613  95.5549744  99.4343406  70.0940001
  94.1911735  98.3484190  68.7620608  93.4650671  97.6481792  68.7117302
  94.7061709  98.9025490  67.5132683  93.8864169  98.8557239  66.7963932
  94.9497723  99.9450134  67.7182698  95.8971721  98.2335647  66.9299587
  96.1803061  98.5975669  65.8008605  96.5123144  97.3104764  67.6364938
  96.3204930  97.2008127  68.6220281  97.5575369  96.5471611  67.0682249
  98.2033288  97.1776459  66.4570449  98.4124742  95.9220585  68.2173128
  98.9220499  96.7081757  68.7744946  97.7727702  95.3545901  68.8932260
  99.4441215  94.9915000  67.5945787  99.7021031  95.4052605  66.6197205
 100.3223691  95.0086491  68.2399384  98.8924633  93.2839345  67.3877759
  99.1807324  92.4982964  68.9471096  98.6097771  93.0086842  69.7227469
  98.8674449  91.4557089  68.8926770 100.2427822  92.5459158  69.1877003
  96.9550170  95.5428761  66.0733328  95.8961961  94.9780197  66.2865525
  97.7176386  95.3147963  64.9928621  98.6023629  95.7979316  64.9300727
  97.4040033  94.3219541  63.9849820  96.6293893  93.6196037  64.2928395
  97.0245828  94.9404091  62.6710831  97.8799837  95.5562566  62.3933756
  96.6544753  93.9818160  61.4709457  95.7988080  93.3659334  61.7477534
  96.4038596  94.5776693  60.5933060  97.5050568  93.3395700  61.2426252
  95.8910273  95.9842794  62.8363096  95.1681187  95.5080424  63.4986557
  96.3579694  96.8233093  63.3521519  95.1657649  96.4985943  61.5633648
  94.6981521  95.6601344  61.0472029  94.4012840  97.2218092  61.8473162
  95.8880038  96.9753996  60.9006978  98.7179782  93.6345191  63.7482312
  99.7010471  94.2867133  63.3605273  98.7402051  92.3436350  63.9850393
  97.9032718  91.9648431  64.4047519  99.8810932  91.4027250  63.6906485
 100.7253817  92.0408482  63.4297370 100.0887429  90.8929143  64.6314322
  99.6860261  90.3461434  62.5779931  98.7714901  90.4595479  61.8104534
 100.6326814  89.4494845  62.4233073 101.3519223  89.4952863  63.1309047
 100.7616060  88.4607808  61.3794048  99.8199051  88.2982937  60.8550990
 101.7993043  89.0268188  60.3719544 101.5130999  90.0245674  60.0392625
 102.6810171  89.0958211  61.0090739 102.1159112  88.1576128  59.1582736
 102.3023274  87.1279759  59.4635567 100.9042242  88.2022117  58.2386941
 100.7174498  89.2315418  57.9325997 101.0939497  87.5902144  57.3568980
 100.0321442  87.8168697  58.7669823 103.1724184  88.7358821  58.3779237
 104.0701561  88.8243294  58.9897600 103.3804963  88.0987461  57.5183526
 102.8701851  89.7244042  58.0321230 101.2042471  87.1066791  61.8462595
 102.1516844  87.0361575  62.6742687 100.5540652  86.0537003  61.4118862
  99.6737756  86.2441958  60.9548294 100.9568036  84.6490241  61.5934007
 101.7933135  84.6270821  62.2918768  99.7831290  83.8408823  62.2011110
  98.9154581  83.8165184  61.5418289 100.3729611  82.3640234  62.3595690
 101.2404436  82.3875121  63.0191321  99.6107886  81.7116037  62.7856467
 100.6705111  81.9842532  61.3821540  99.3247485  84.3142873  63.5981679
  98.9946824  85.3515215  63.5406903  98.5001368  83.6896364  63.9415720
 100.1555103  84.2362426  64.2994844 101.4300512  84.0444178  60.2398890
 100.6563072  84.2396892  59.3216296 102.5892193  83.4479830  60.1223220
 103.2443976  83.6813169  60.8547126 103.0451341  82.5667818  59.0308844
 102.1793729  82.3990016  58.3902546 104.1904081  83.1959194  58.1693378
 104.2800508  82.5977379  57.2625614 103.9467869  84.6572055  57.7932827
 103.8574938  85.2561270  58.6996047 104.7824689  85.0236738  57.1970984
 103.0264114  84.7354086  57.2145826 105.3431734  83.1588753  58.9881992
 106.0867293  83.5346067  58.5111763 103.5021654  81.1897069  59.5593521
 103.7640874  81.0032719  60.7203399 103.6024291  80.2064220  58.6346603
 102.9407952  80.1993722  57.8715809 104.5198708  79.0660034  58.7721931
 104.4046395  78.5394788  59.7196068 104.0987654  78.0980237  57.6042442
 103.0169861  77.9841755  57.6741823 104.3504461  78.6094671  56.6751680
 104.6987706  76.8429820  57.6195741 104.3819155  76.3277064  56.8741253
 106.0165096  79.4038391  58.8290032 106.3783591  80.4369708  58.3124272
 106.8829124  78.5114781  59.3192562 106.5141935  77.7087434  59.8089120
 108.3505178  78.7373579  59.3424664 108.6646196  79.4493959  58.5792881
 108.6839034  79.3509131  60.7825504 108.1967044  80.3219929  60.8705295
 108.2792236  78.6725842  61.5336857 110.2067267  79.5161705  61.0040910
 110.6487598  78.5202923  60.9735266 110.8945320  80.4167116  59.9548251
 110.4533164  81.4129596  59.9851148 111.9596986  80.4847673  60.1759342
 110.7567233  79.9889136  58.9618004 110.5106816  80.1500662  62.3451341
 110.1139730  79.5219635  63.1427611 111.5895575  80.2496557  62.4643396
 110.0476368  81.1355585  62.3950684 109.0886731  77.4777752  58.9225091
 108.7434654  76.4114809  59.4243101 110.1210351  77.6026256  58.0141501
 110.3488501  78.5076242  57.6279156 110.9261296  76.4516578  57.6056345
 110.3268563  75.7897985  56.9804043 112.1464186  76.8963945  56.8128924
 111.8311792  77.3256808  55.8618737 112.7027037  77.6420450  57.3809173
 112.9573102  75.7956116  56.5769134 113.7299120  76.0686594  56.0767823
 111.4348075  75.6888707  58.9025110 112.1378424  76.1935920  59.7131400
 111.1838312  74.3848322  58.7942496 110.4638770  74.0677559  58.1608240
 111.8070138  73.3951009  59.6992868 111.5569889  73.6249674  60.7350224
 111.3040776  72.0287078  59.3798404 110.2177088  72.0230507  59.4685545
 111.5858638  71.7793708  58.3568411 111.9117670  70.9734786  60.3590058
 112.9666279  70.9198210  60.0897658 111.8124000  71.4153321  61.3504648
 111.3080487  69.5469388  60.3669664 111.6195901  68.6768655  61.1901459
 110.4710163  69.2507946  59.5044316 113.3884555  73.5474133  59.6852127
 114.0397303  73.4857246  60.7225894 113.9317064  73.8126520  58.4807888
 113.3262836  73.7197924  57.6777074 115.4045430  74.0597034  58.2434872
 115.9769812  73.3238468  58.8082250 115.7973120  73.9516668  56.7495486
 115.6866512  74.9430931  56.3103138 116.8442800  73.6512692  56.7080840
 115.0172748  73.0309314  56.0294511 115.3088771  73.0106783  55.1150345
 115.8222997  75.4024761  58.9194677 117.0098331  75.6456064  58.9528314
 114.9861417  76.2537833  59.4814551 114.0039849  76.0187386  59.4963323
 115.4507332  77.5675613  60.2155716 116.5370826  77.6035903  60.2970963
 114.9660106  78.8104270  59.3643191 114.0073281  78.8134865  58.8456500
 114.9777074  79.6054986  60.1098555 116.0142698  79.1660769  58.3368851
 115.8230230  79.3791924  56.9890518 114.8150782  79.1966480  56.6164600
 117.0140362  79.8006368  56.3687115 117.1389471  79.9125247  55.3727307
 118.0029840  79.9834537  57.3342835 119.3879264  80.4008695  57.2662260
 119.7061531  80.8034287  56.3045730 120.2125046  80.2813538  58.3611176
 121.2809228  80.4940850  58.3246768 119.6316515  79.8583996  59.5973835
 120.2527508  79.7828219  60.4899210 118.2919408  79.5357705  59.7096632
 118.0298456  79.0745999  60.6618861 117.3756433  79.5932276  58.5756268
 114.7730671  77.7110817  61.5748941 115.3757799  78.3309730  62.4463783
 113.6622307  77.0158016  61.8510269 113.3025299  76.4532540  61.0932309
 112.9347624  77.0195032  63.1151840 112.5999071  78.0306411  63.3466388
 111.6939137  76.0948590  63.0268915 111.2075685  76.5103444  62.1443161
 111.9901409  75.0651111  62.8269695 110.7059047  76.1256817  64.2247685
 109.6416463  77.0678204  64.2081941 109.4433215  77.6367090  63.2998260
 108.8554912  77.2668367  65.3397088 108.0301216  77.9778444  65.3762460
 109.0968774  76.3849273  66.4539899 108.3656423  76.5398746  67.6068522
 107.7314623  77.2587143  67.5550365 110.1260355  75.4222339  66.4955736
 110.3009507  74.7580836  67.3419834 110.9573428  75.3461116  65.3528197
 111.8116817  74.6692546  65.3444746 113.7791063  76.5558116  64.3052140
 113.9467425  77.2841415  65.2699257 114.3989244  75.3727360  64.2332437
 114.0774187  74.7415777  63.5132628 115.2523834  74.8149202  65.3437531
 114.7413766  74.9813054  66.2920606 115.5299380  73.2808173  65.1869797
 116.1254406  73.0640628  64.3001351 116.1149437  73.0598173  66.0797436
 114.2885440  72.3768123  65.1775017 113.5778740  72.3168164  66.1680140
 113.9952052  71.8026721  64.0146679 113.1905904  71.1964003  63.9430486
 114.5783418  71.9754554  63.2083191 116.4443427  75.7390609  65.6968919
 116.6666296  76.0499251  66.8355938 117.1070782  76.3229868  64.7236020
 116.9987464  75.9431606  63.7940346 118.1334795  77.3683902  64.9396462
 118.8122536  77.0846422  65.7439173 118.9449070  77.5264445  63.6455743
 119.2810858  76.5470470  63.3051871 118.2596836  77.9501880  62.9114010
 120.1536074  78.4521830  63.8090418 120.4949278  78.3382512  64.8379348
 121.3079141  78.1830668  62.8606349 120.9674555  78.2972689  61.8314874
 122.1129571  78.8911523  63.0571582 121.6733585  77.1672642  63.0112862
 119.9366946  79.8785518  63.5658078 119.1842040  80.2554641  64.2584799
 120.8710932  80.4194282  63.7156519 119.5929604  80.0248901  62.5418298
 117.4478312  78.6663689  65.5245119 118.1394196  79.2595769  66.3626925
 116.3044377  79.0701799  64.9753006 115.9124944  78.6370273  64.1513719
 115.6941948  80.3709803  65.4636724 116.4685229  81.1051856  65.6860634
 114.7991184  80.9253623  64.3527085 114.1788665  80.1162093  63.9671464
 114.1607138  81.7097938  64.7591650 115.6711136  81.5115580  63.1932379
 116.4886917  80.8267796  62.9679704 114.7852970  81.6945042  61.9284214
 113.9677098  82.3795640  62.1527938 115.3886178  82.1028143  61.1176270
 114.3777371  80.7295579  61.6269681 116.2723076  82.8675618  63.5884700
 116.9012189  82.7436648  64.4700706 116.8736622  83.2528434  62.7650429
 115.4695407  83.5704084  63.8113398 115.0320611  80.2655222  66.8857521
 115.1027280  81.1942842  67.6114388 114.5187579  79.0683577  67.2579119
 114.3345504  78.3840157  66.5382988 114.1792855  78.7096319  68.7006119
 113.3260304  79.2943520  69.0443522 113.8118540  77.1843773  68.7907305
 112.9646281  76.9253435  68.1557430 114.7221779  76.7522044  68.3752342
 113.5776472  76.6218404  70.2223779 114.3856409  76.9622170  70.8699818
 112.2513848  77.0967595  70.7783904 111.4428141  76.7563502  70.1315259
 112.1102862  76.6904537  71.7799430 112.2451640  78.1857687  70.8244419
 113.3601936  75.0734726  70.1578018 114.2417794  74.5999476  69.7257371
 113.1968652  74.6867242  71.1637098 112.4902577  74.8537242  69.5389148
 115.3473464  79.0054758  69.6522763 115.0433983  79.4938910  70.7355765
 116.5638428  78.5845871  69.3396835 116.6039834  78.0119867  68.5086498
 117.8306885  78.8064956  70.1125208 117.7049413  78.4974230  71.1501917
 118.9636492  77.9601721  69.4773741 118.6567191  76.9194965  69.5817171
 119.0379268  78.2122100  68.4195179 120.3066987  78.1565579  70.1363405
 121.2847149  78.1834686  69.3644636 120.4587719  78.2548461  71.3719676
 118.1536200  80.3038420  70.1363754 118.5755068  80.8915338  71.1488105
 118.0633218  81.0496678  68.9327712 117.9402176  80.5392076  68.0699995
 118.2497347  82.5511283  68.8585302 119.2234653  82.8459990  69.2496813
 118.1703475  82.9585896  67.3904635 118.9300288  82.3588282  66.8891953
 117.1811964  82.6398004  67.0617484 118.3713429  84.4231868  67.0427295
 118.1203812  84.5134751  65.9858628 117.6405550  84.9714161  67.6372845
 120.0067073  85.1210969  67.3243586 120.6203603  85.0664668  65.6808306
 119.9810024  85.6667907  65.0335812 121.6351184  85.4637609  65.6579372
 120.6265871  84.0348719  65.3288725 117.2235864  83.3306420  69.7668518
 117.6626455  84.3067041  70.3739011 115.9438278  82.9260535  69.9195842
 115.5114844  82.3082539  69.2476451 115.0967285  83.4682140  71.0379866
 114.8639997  84.5208359  70.8769782 113.7591712  82.6597954  71.0677493
 113.5030941  82.4753977  70.0244271 113.9970608  81.7144786  71.5554834
 112.5684525  83.3155649  71.7778236 112.7085017  83.3392850  72.8585292
 112.5374442  84.3351037  71.3935305 111.2406106  82.6419374  71.4749740
 110.3299697  83.2801327  71.0063496 111.0545582  81.3052181  71.6356974
 110.1566235  80.8943310  71.4235973 111.8150709  80.7287761  71.9665093
 115.8825316  83.4222868  72.3991623 115.9297054  84.4034582  73.1551036
 116.4672059  82.2757565  72.8048397 116.2231942  81.3946767  72.3755892
 117.2780800  82.2525122  74.0399919 116.7456467  82.7211213  74.8676509
 117.5486614  80.7799793  74.3997787 118.1876981  80.6132924  73.5326300
 118.1281281  80.6327301  75.3111710 116.4300713  79.7737414  74.3733110
 115.3442761  79.9396363  74.9766896 116.6689403  78.5668678  73.9488859
 115.9237166  77.8854710  73.9279159 117.5984205  78.3173197  73.6424659
 118.4750426  83.1398377  74.0635285 118.6256569  83.9944774  74.9549387
 119.2087045  83.0969092  72.9334456 118.9240910  82.5143701  72.1590150
 120.4788074  83.7923033  72.8407116 121.1405642  83.5302814  73.6662549
 121.1348206  83.3473482  71.5258551 120.3312199  83.4089255  70.7920067
 121.8738657  84.1217624  71.3204406 121.8152820  81.9405613  71.4371022
 122.6081683  81.8549104  72.1801339 121.0799220  81.1523800  71.5987125
 122.4063291  81.8020027  70.0509745 121.6465413  82.0401886  69.3066030
 123.2465938  82.4880295  69.9441011 122.8827782  80.4351745  69.8153329
 122.1544471  79.8788246  69.3909417 124.0994916  79.8704803  70.0060630
 125.0834682  80.5389624  70.4154500 124.9749097  81.5240102  70.6103751
 125.9772157  80.0873475  70.5472036 124.1271038  78.6013977  69.8138761
 123.2833354  78.1160587  69.5444302 124.9924619  78.0943940  69.9330455
 120.2548399  85.3153299  72.9708253 121.0683607  86.0436557  73.3371482
 119.0583363  85.8081854  72.6516127 118.4990326  85.1252675  72.1607951
 118.5522534  87.1433899  72.7681713 119.3742010  87.8560386  72.7001041
 117.5584341  87.4389529  71.6531341 116.8823489  86.5840121  71.6439597
 116.9910605  88.3480595  71.8524139 118.2622877  87.5593532  70.2671818
 118.8857208  86.6790848  70.1104669 117.2232479  87.6595374  69.1364216
 116.5996967  88.5398856  69.2922089 117.7355093  87.7427727  68.1779014
 116.5975469  86.7670139  69.1371082 119.2482093  88.7227102  70.1479763
 120.0367942  88.6090135  70.8918221 119.6879799  88.7262123  69.1506344
 118.7234295  89.6631020  70.3164055 118.0329440  87.3732878  74.1737109
 118.4895434  88.2495103  74.8530334 117.1973153  86.5579010  74.7381026
 116.8211625  85.8644725  74.1074162 116.6500260  86.6259502  76.1176974
 116.1150357  87.5625181  76.2749398 115.6694289  85.4625663  76.3128084
 114.8897718  85.6197969  75.5674811 116.1615789  84.5078759  76.1271891
 115.0251648  85.4171782  77.6865841 115.5366671  85.7847957  78.7389233
 113.8638677  84.8840228  77.7500450 113.3860836  84.8258891  78.6379879
 113.4304405  84.5238175  76.9118960 117.7010109  86.6996708  77.1818360
 117.6524945  87.5824554  78.0438549 118.7652967  85.9397144  76.9372139
 118.6915581  85.3630129  76.1113342 119.9599770  85.8387534  77.7364603
 119.7132803  85.5512767  78.7585156 120.8967958  84.7405405  77.1185798
 120.7751322  84.7160435  76.0356684 121.9362850  84.9603197  77.3620122
 120.5249786  83.4253850  77.6863050 120.6544843  83.4698838  78.7676694
 119.4770845  83.2356276  77.4539000 121.3589942  82.3320278  77.1338152
 120.7861740  81.4081467  77.0536926 121.7532830  82.6006069  76.1537636
 122.4808844  82.1362773  78.0800736 123.1934836  82.9561728  77.9902161
 122.1048909  82.0927522  79.1022446 123.1515605  80.8628380  77.7478691
 123.5004155  80.9031224  76.8008860 123.9212987  80.7117726  78.3840942
 122.4915319  80.1029238  77.8314864 120.7293655  87.1475784  77.8461160
 121.4844415  87.2874892  78.8126905 120.6007978  88.0905770  76.8616929
 119.9584381  87.8050216  76.1364816 121.4316989  89.3149848  76.6322720
 122.0350020  89.6028407  77.4932387 122.3542814  89.1109682  75.4378957
 121.7801182  88.6177601  74.6535605 122.9293799  90.4269054  74.8994128
 123.5041004  90.9204982  75.6830986 123.5790494  90.2191497  74.0491966
 122.1142784  91.0776067  74.5827123 123.4842638  88.1332499  75.7601014
 123.0617794  87.1673548  76.0369690 124.1219158  88.0127399  74.8843292
 124.0760013  88.5214781  76.5890926 120.6467157  90.6386036  76.6231309
 121.1341669  91.5597739  77.2973672 119.5235674  90.7290988  75.8920067
 119.1245709  89.8924069  75.4909484 118.8952666  92.0389560  75.5628542
 119.5519560  92.8725985  75.3140602 117.8168994  91.8492795  74.4057670
 117.2000361  90.9838478  74.6478583 116.9072416  93.1113782  74.2555317
 117.5233885  93.9771870  74.0129646 116.1839709  92.9456324  73.4570904
 116.3790856  93.2927328  75.1916198 118.4503684  91.3501372  73.1443662
 118.9718877  90.4270245  73.3973116 117.6394996  91.1301603  72.4499589
 119.4428763  92.3389382  72.4823709 120.2543276  92.5590446  73.1760565
 119.8515238  91.8921422  71.5760157 118.9219395  93.2621818  72.2287058
 118.3031782  92.6581631  76.8365056 117.7170127  91.9335539  77.5907539
 118.4696330  93.9412398  77.0977660 119.1132226  94.4101388  76.4764565
 117.8696707  94.7052937  78.1652902 118.0678766  94.2278731  79.1249168
 118.4845209  96.1764595  78.1913973 118.5186750  96.5913806  77.1840378
 117.8872735  96.8260336  78.8312793 119.8968715  96.0778198  78.7468152
 119.8790692  95.4238638  79.6186670 120.5386576  95.6432919  77.9803962
 120.4360202  97.4362813  79.1458339 119.6774902  98.0080791  79.6804164
 121.3195881  97.3285881  79.7749677 120.8177228  98.1776946  77.8448548
 121.4912035  97.5371750  77.2754174 119.9061658  98.3463580  77.2715175
 121.4835669  99.4832548  78.1139092 122.3284861  99.3271507  78.6447980
 121.7140107  99.9304324  77.2381080 120.8595101 100.0770826  78.6411859
 116.3311741  94.7920265  78.0119424 115.7802328  94.8741076  76.8829560
 115.5644266  94.8618033  79.1172562 115.9041095  94.4868795  79.9914112
 114.1767593  95.3164643  79.0507897 114.0313142  95.9437179  78.1713024
 113.2219568  94.0980925  78.9539744 113.5802334  93.4254188  78.1747137
 113.2141440  93.5744281  79.9099109 111.9371757  94.5176666  78.6468831
 111.3566208  93.7552325  78.5898738 113.8058013  96.2753288  80.1634343
 114.1599480  95.9990932  81.2852886 113.0667782  97.3200073  79.7518693
 112.9132869  97.4623453  78.7638007 112.4824455  98.2830200  80.6925663
 113.2626465  98.7804116  81.2687495 111.6989236  99.3672810  79.8673818
 111.0938732  98.8239816  79.1415449 110.7935028 100.3032778  80.6927764
 111.3979554 100.8472992  81.4185716 110.3001330 101.0119522  80.0275943
 110.0414073  99.7132396  81.2165215 112.6437689 100.3054991  79.1113937
 113.2542852  99.7262887  78.4186546 112.0600317 101.0386786  78.5547984
 113.2905583 100.8203689  79.8217973 111.5312776  97.6173349  81.6846238
 110.8006206  96.7449090  81.2352362 111.6426198  97.9856438  83.0256729
 112.3064924  98.7295449  83.1868672 110.9391745  97.4392957  84.1600020
 111.1176352  98.0705264  85.0305183 109.8714547  97.4151998  83.9420727
 111.4215681  96.0036396  84.4720742 111.0169819  95.4499390  85.4909641
 112.3867821  95.4376367  83.7194483 112.4689031  95.8724032  82.8115201
 113.1416151  94.1980686  83.9709538 113.7725974  93.9707167  83.1117264
 114.0168141  94.3476268  85.1832240 113.3942580  94.7220529  85.9958299
 114.3946600  93.3584545  85.4418175 115.1695044  95.2815133  84.9660927
 115.8797293  94.9309082  84.2172553 114.8659507  96.3011680  84.7288975
 115.8302323  95.2540931  86.3487090 115.0591068  95.5070098  87.0763748
 116.1699474  94.2326890  86.5202516 117.0093062  96.2153467  86.5012248
 117.6103691  96.1355486  85.5954343 116.5978406  97.2219189  86.5761088
 117.8890662  95.9306950  87.7248917 118.2707842  94.9981855  87.6554855
 118.6433257  96.6014539  87.7606005 117.3323954  96.0050064  88.5643525
 112.2693707  92.9583205  83.9567655 112.6871099  91.9699199  84.5921507
 111.1706221  92.9841922  83.3190515 110.8020765  93.9003429  83.1070580
 110.3069622  91.7777848  83.0237926 110.1275449  91.1849152  83.9206841
 108.9476166  92.2571677  82.4390485 109.0301680  92.6180544  81.4138429
 108.0919022  90.9482834  82.4632913 108.0085118  90.5870250  83.4882981
 107.0969322  91.1567225  82.0699865 108.5730299  90.1875863  81.8485107
 108.2993114  93.4193735  83.2353550 108.2068380  93.1051162  84.2749664
 108.9637751  94.2812880  83.1746021 106.9605107  93.7887703  82.7092451
 106.2953143  92.9274287  82.7701076 106.5499709  94.6067826  83.3012014
 107.0522513  94.1035984  81.6697420 111.0458423  90.7161856  82.1681944
 112.0183191  90.9837605  81.4406349 110.8030640  89.4327183  82.4827599
 110.3965455  89.3411143  83.4027875 111.1278301  88.1982199  81.7328235
 112.1478481  88.2121097  81.3488059 110.9922874  87.0050256  82.7671844
 111.6428416  87.2528370  83.6059143 109.9544360  87.0063205  83.1002953
 111.3544627  85.6181091  82.2339744 111.4352771  85.0759558  83.1761207
 110.6843886  85.0810538  81.5626537 112.7016976  85.7277522  81.6073347
 112.8560050  85.1574448  80.4906979 113.7410669  86.1384421  82.2101483
 110.2471878  87.9721887  80.4086370 109.0186137  87.7688558  80.4882504
 110.8525559  88.0655805  79.2502789 111.8327094  88.3043531  79.2014325
 110.1477552  87.7525988  77.9976207 109.3523890  88.4716834  77.8016383
 111.1847367  87.8329319  76.8441967 111.3730460  88.8961969  76.6955145
 112.1277281  87.3206950  77.0351961 110.6631287  87.3012060  75.5368353
 110.8072504  85.9981589  75.1242262 110.1384529  85.8936748  74.0161279
 110.1003480  84.9251037  73.5176130 109.5954694  87.0721655  73.6878740
 109.0533189  87.2447139  72.8533683 109.8817883  88.0087670  74.6472587
 109.4918304  89.0222547  74.5530422 109.5776415  86.2168948  78.0238823
 108.4685105  85.9446135  77.5091276 110.3314870  85.2799939  78.6577496
 111.2831039  85.4645846  78.9413884 109.8505274  83.8976857  78.6992197
 109.4410700  83.6889294  77.7108550 110.8555789  82.8138832  79.0468695
 110.3034267  81.8878612  78.8865243 111.6226667  82.9164656  78.2793063
 111.4628153  82.7836257  80.3148925 112.0660573  82.0383901  80.3630883
 108.5757663  83.7946834  79.5129247 107.5725775  83.2877961  78.9202128
 108.5289284  84.4049799  80.7221746 109.3744389  84.8194698  81.0874271
 107.3372393  84.4737527  81.5203114 107.0210660  83.4712402  81.8085860
 107.6020755  85.2714901  82.7676550 108.5078857  84.9452580  83.2787123
 107.7018509  86.3197769  82.4861594 106.4951358  85.2014284  83.7719168
 105.7074053  86.3410577  84.0402613 106.0152221  87.2908635  83.6029770
 104.5619339  86.2780991  84.8403398 103.9244855  87.1566323  84.9400380
 104.2279951  85.0784268  85.5203943 103.3940734  85.0260413  86.2203446
 104.9962120  83.9534620  85.2735014 104.7083087  83.0000620  85.7164915
 106.1189581  84.0320583  84.4735734 106.7676739  83.1637764  84.3580136
 106.1840955  85.1165922  80.7620946 105.0499988  84.7448220  80.9879745
 106.3994367  86.0858856  79.9121750 107.3629630  86.3871297  79.8810552
 105.4149762  86.8475469  79.1624033 104.5466097  87.0967087  79.7722862
 106.1118859  88.1626418  78.7326923 105.8741125  88.8217732  79.5676227
 107.1940992  88.0876514  78.6264348 105.5913297  88.8576020  77.4605627
 106.3802628  89.0001273  76.3369574 107.3490466  88.5005705  76.3379360
 105.7573094  89.7539130  75.4509630 106.1328909  89.9795380  74.5409457
 104.5143534  90.1948464  75.9579345 103.4717034  91.0493125  75.4964201
 103.6414360  91.5345732  74.5352690 102.3332928  91.2205590  76.2567476
 101.5135299  91.8370218  75.8878814 102.2087205  90.5943974  77.5383078
 101.3470714  90.7177497  78.1943906 103.2462899  89.7819305  77.9717107
 103.0818348  89.3432689  78.9559014 104.4265724  89.5659565  77.2179552
 104.7209314  86.0750652  78.0026160 103.5039174  86.1503167  77.9112526
 105.5027075  85.2981263  77.2027085 106.4972378  85.4540521  77.2845373
 105.0306334  84.3916106  76.1714431 104.1143233  84.7797264  75.7266497
 106.1056560  84.2431860  75.0495756 106.9613534  83.7764903  75.5375062
 105.6721019  83.5460139  74.3325805 106.5651889  85.5145060  74.3147055
 107.3690446  86.0103415  74.8588232 106.9011350  85.2809640  73.3044083
 105.2995187  86.4785213  74.2433525 104.3926717  85.8889213  74.1088184
 105.2228995  87.0570394  75.1639750 105.4268488  87.3938155  73.1298838
 106.3771319  87.4893311  72.8013443 104.4973744  88.2219204  72.6429652
 103.2692998  88.2737877  73.0721735 102.9722203  87.6617841  73.8186957
 102.6194544  88.9257825  72.6565975 104.7707731  88.9048357  71.5184041
 105.6639118  88.7842120  71.0624948 104.0818815  89.5356396  71.1341991
 104.5743644  83.0586916  76.7032050 104.0511224  82.2982183  75.9007287
 104.7489115  82.6131472  77.9390923 105.3440054  83.1665356  78.5388622
 104.3009038  81.2983259  78.4225507 104.4987008  80.5472977  77.6577423
 105.0365695  80.8890099  79.7185825 106.0313642  81.3340810  79.6987232
 104.4778748  81.2870168  80.5656661 105.1514037  79.4801230  79.8478720
 105.6127401  79.2701589  80.6631534 102.8001105  81.1976222  78.5211375
 102.1242832  82.0897287  78.9937297 102.2480789  80.0752395  78.1254114
 102.8608793  79.3026219  77.9071520 100.7804861  79.9109901  77.8730556
 100.3701558  80.7630320  77.3310659 100.6131092  78.6599485  77.0141808
 101.3281792  78.7206355  76.1937594 100.8892670  77.8392355  77.6761982
  99.3240902  78.3033116  76.4204931  98.5013798  77.2789494  76.8351805
  98.8175492  76.6360736  77.6566715  97.2324778  77.0542727  76.1923320
  96.5760319  76.2613726  76.5507855  96.8465476  77.8402108  75.1244250
  95.8567422  77.6912502  74.6929208  97.6925915  78.8046944  74.6009071
  97.5195044  79.3333893  73.6635583  98.8358642  79.0857688  75.3640949
  99.4259834  79.9776881  75.1535261 100.0634685  79.8882130  79.2339993
 100.4158312  79.0626874  80.0575192  99.0837671  80.7658242  79.4078201
  99.0020224  81.4815323  78.6998800  98.2860828  80.8869036  80.5908896
  98.0188725  79.9012482  80.9719162  99.1176567  81.6547764  81.7071966
 100.0515174  81.1771325  82.0036080  99.3144166  82.6864402  81.4155541
  98.2841659  81.7105996  82.8952184  98.3724006  82.7642605  83.8408998
  97.5286516  82.4794903  84.8627083  97.4573713  83.1078691  85.7504910
  96.8955257  81.3746242  84.5347013  96.1561324  80.9666058  85.0887035
  97.3496435  80.8824706  83.4055853  96.9601858  79.9373228  83.0272740
  96.9098304  81.4380382  80.3168864  96.7037139  82.6506088  80.3306927
  96.0501287  80.5375433  79.8034236  96.4426033  79.6399737  79.5575946
  94.6603460  80.7922920  79.4784372  94.4848163  81.7618175  79.0122733
  94.1150468  79.6867553  78.5414146  93.2022790  80.0882007  78.1011911
  95.0683916  79.2141680  77.4129888  95.9812527  78.8121397  77.8524857
  94.5781490  78.4397543  76.8230356  95.3167196  80.0580140  76.7692826
  93.6520102  78.4966224  79.1685565  93.3383412  77.8836474  78.4996217
  93.8005391  80.9589235  80.7340311  94.2919319  80.9318830  81.9097670
  92.4939541  81.0916307  80.4631743  92.1990926  81.4135912  79.5524068
  91.5066003  80.9942651  81.5046341  91.7581742  81.6598383  82.3303593
  90.1184528  81.4093140  80.9365507  89.8859282  80.7496096  80.1005951
  89.3776289  81.2718219  81.7241901  90.0920587  82.9004234  80.4486878
  91.1232767  82.9665634  80.1018223  89.4160282  83.0951419  79.6161216
  89.8575783  83.9346628  81.5466872  90.6873482  83.9805420  82.4127785
  88.7384760  84.5801546  81.6733179  91.4538894  79.6648149  82.3203852
  90.8632517  79.6992318  83.3997372  91.9790649  78.5177907  81.8061400
  92.4214482  78.5916744  80.9011884  91.9386116  77.1990416  82.4571603
  91.7661080  77.2497747  83.5322268  90.7299770  76.5370754  81.7997989
  89.9531184  77.3000934  81.8487219  91.0374033  76.3982416  80.7633075
  90.1803395  75.2086149  82.3545270  89.2529226  74.9902392  81.8250832
  90.9141465  74.4327865  82.1360785  89.9091501  75.2462201  83.8705293
  89.3725363  74.3389205  84.1479317  90.8659498  75.2755930  84.3918460
  89.1350028  76.3760464  84.2716759  88.7257149  76.8402356  83.4734835
  88.9424155  76.8576720  85.4006891  89.2640633  76.2812930  86.5558874
  89.7049713  75.3726147  86.5578450  89.0658484  76.7550713  87.4255682
  88.3654240  77.9462212  85.4688315  88.0690740  78.4110814  84.6225563
  88.1923398  78.3669968  86.3705456  93.2155979  76.3686653  82.2516604
  93.3307067  75.3015648  82.8626501  94.2100823  76.8662852  81.5024686
  94.2214536  77.8166837  81.1608361  95.3655104  75.9851117  81.1767386
  95.4985452  75.1880810  81.9082733  95.0112260  75.3375776  79.7859971
  93.9415697  75.1311842  79.8225531  95.2062036  76.1117240  79.0438508
  95.7467082  74.0905675  79.4102074  96.8126017  74.3179750  79.4262579
  95.5252916  73.3360791  80.1650743  95.3522490  73.5478883  78.0016769
  94.3428250  73.1738772  78.1727843  95.3051658  74.4605259  77.4075597
  96.1395970  72.5270865  77.2754636  97.1810583  72.8433094  77.2166256
  96.0786429  71.5754876  77.8035199  95.5935977  72.3679232  75.9060364
  95.6503828  73.2494798  75.4164108  96.1298461  71.6713922  75.4086610
  94.6286883  72.0744936  75.9603309  96.7154524  76.7407564  81.0453317
  96.7765502  77.7793834  80.3386840  97.7017865  76.0701770  81.6306815
  97.5706853  75.1269670  81.9672326  99.0157421  76.6704788  81.7612508
  98.9300076  77.6248062  81.2416279  99.3050941  76.9452662  83.2537602
  99.0342828  76.0383417  83.7943611 100.7343641  77.3154666  83.5758550
 101.0057680  78.2226227  83.0359407 100.8328653  77.4879296  84.6476073
 101.3968585  76.5032529  83.2766720  98.6726766  78.1056425  83.7620160
  98.8966503  78.2119272  84.6894531 100.1348514  75.7521591  81.2662101
 100.2030258  74.5625941  81.6875643 100.8730599  76.2076626  80.2489142
 100.8491066  77.1921755  80.0247271 101.6610269  75.3279297  79.4035197
 102.0206211  74.5087037  80.0261432 100.9010453  74.7332202  78.1946167
 100.7592406  75.6038051  77.5542475 101.6457912  74.0731575  77.7499024
  99.5571952  73.9732029  78.3380971  98.9079423  74.6293936  78.9177395
  99.1601676  73.8697313  77.3282645  99.6160758  72.6442461  78.9825938
  98.5440631  72.1777596  79.3349189 100.7143112  72.0181872  79.1677273
 102.9172315  76.0056059  78.8603116 102.9225294  77.1965076  78.5570889
 104.0178825  75.2856670  78.7062553 104.1789270  73.9761596  79.2746910
 103.2200156  73.4592116  79.2378941 104.4942548  74.0823630  80.3126641
 105.2346278  73.3072919  78.4151354 104.7703637  72.8295359  77.5524031
 105.7750991  72.5602107  78.9963943 106.1590364  74.4397453  77.9925884
 106.5983934  74.2849249  77.0071468 106.9513971  74.6223087  78.7184912
 105.1767134  75.6639916  77.9526072 105.6346902  76.5133105  78.4595717
 104.8524110  76.0566390  76.4572256 104.2644311  75.2241438  75.7549234
 105.2067615  77.2974818  76.0965210 105.5669747  77.9293140  76.7973305
 105.0463145  77.8015279  74.7117051 103.9851898  77.7386677  74.4705368
 105.4773421  79.2694104  74.6442574 106.5398743  79.3475705  74.8745100
 105.2938175  79.6568320  73.6420980 104.9055744  79.8501437  75.3680873
 105.8335445  77.0123066  73.6460150 106.9567202  76.6099280  73.8970884
 105.3066401  76.7319588  72.4293840 104.3923710  77.1387059  72.2923870
 105.8563065  75.8296057  71.3532187 106.9228377  76.0106483  71.2196744
 105.6525992  74.3737297  71.6809631 106.0807177  74.1740915  72.6632865
 104.1401185  74.0071190  71.6903877 103.7113828  74.2060653  70.7081934
 104.0234090  72.9501806  71.9298856 103.6247507  74.6079827  72.4396937
 106.3087432  73.4866485  70.7637515 106.1428639  72.5775421  71.0237706
 105.2416162  76.2152531  69.9397019 104.3417970  77.0136308  69.9365993
 105.7035613  75.6206941  68.8323310 106.4271615  74.9238115  68.9365270
 105.2250737  75.9201026  67.4974313 105.8733287  75.3489757  66.8328421
 104.2164415  75.5083508  67.4624906 105.1856445  77.3724783  67.0260543
 104.6931689  77.5427900  65.9231274 105.7650721  78.3573868  67.6768006
 106.3548608  78.0301923  68.4285934 105.7363553  79.8346873  67.3827313
 105.6212312  79.9442490  66.3043798 104.6070138  80.6473996  68.0900180
 104.6116121  80.1290875  69.0488875 104.7455386  81.7159713  68.2545336
 103.2075778  80.4732859  67.5062481 102.6812125  81.2253055  66.4581530
 103.3998679  81.8987007  65.9910629 101.3630686  81.1757493  65.9912850
 101.0300686  81.7494886  65.1263949 100.4592696  80.3528589  66.6763104
  99.4216954  80.2650893  66.3540742 100.9110786  79.6327270  67.7977576
 100.2047326  79.0172345  68.3548433 102.2533276  79.7002084  68.2013909
 102.5875964  79.1444238  69.0774433 106.9426823  80.4589171  67.9116341
 107.3907289  80.0682905  68.9651397 107.3589124  81.4724018  67.1228766
 106.9541397  81.6405411  66.2129384 108.5524262  82.2178314  67.4957364
 108.6821180  82.0608150  68.5665422 109.8456901  81.7557772  66.7398049
 109.7424501  81.9001856  65.6643571 111.0022773  82.6401049  67.2707209
 111.1064365  82.4958773  68.3461045 111.9317583  82.3595045  66.7753128
 110.7832890  83.6878165  67.0647024 110.2308479  80.2628992  67.0060860
 110.5222285  80.1948206  68.0542097 109.3306912  79.6709341  66.8405717
 111.3546506  79.7303508  66.1326322 112.2553351  80.3215669  66.2979527
 111.5520137  78.6892908  66.3882513 111.0637983  79.7976828  65.0843139
 108.3011018  83.6923917  67.4079129 107.7309808  84.1781039  66.4202066
 108.7585691  84.4852688  68.3734220 109.4608909  84.1365350  69.0099973
 108.2992484  85.8971835  68.5306109 107.2397566  86.0085798  68.3000311
 108.5165324  86.2495086  69.9813816 108.2159286  85.5050915  70.7186603
 109.6037611  86.3254245  69.9649299 107.9138299  87.6126952  70.3552759
 107.2567620  88.2767743  69.5128124 107.8964479  87.9356587  71.5222161
 109.1630854  86.8401022  67.6320831 110.3196086  87.1417015  67.9509950
 108.5261762  87.3358131  66.5238307 107.5877439  87.0309025  66.3082535
 109.1569903  88.2925022  65.6396115 110.0891349  87.8322552  65.3119252
 108.4873957  88.4029076  64.7866443 109.4652769  89.6962148  66.2245118
 110.3960992  90.3474796  65.8050205 108.6700604  90.0676069  67.2530679
 107.8110299  89.5944557  67.4945094 109.0248160  91.2542618  67.9862940
 109.2454424  92.0817470  67.3119859 107.8207448  91.6420542  68.8633116
 107.5764988  90.7699914  69.4699000 108.1537221  92.4529187  69.5111734
 106.5971746  92.0804897  68.0981586 106.6326570  92.3189447  66.8848012
 105.5015684  92.2010282  68.7368577 110.3220383  91.0934462  68.8339612
 110.9358267  92.1629255  69.0085803 110.7689718  89.9827141  69.3925045
 110.1444832  89.1896035  69.3595051 112.0720627  89.8394713  70.1508926
 112.2683661  90.7771134  70.6708843 112.0636359  88.6800284  71.1981916
 111.2025359  88.9256966  71.8196844 111.8905414  87.7267039  70.6988812
 113.3157379  88.5760489  72.0780273 114.1645781  88.4940618  71.3991685
 113.5393434  89.7335474  73.0273843 112.6910684  89.8158844  73.7069055
 114.4494067  89.5620453  73.6022517 113.6388066  90.6574399  72.4576210
 113.2803596  87.2614762  72.8488424 113.2574884  86.4283111  72.1464093
 114.1686238  87.1832438  73.4757137 112.3896320  87.2315124  73.4763817
 113.2513842  89.6744872  69.2495257 114.2485747  90.3444212  69.4500963
 113.1188069  88.8320136  68.2427653 112.2342349  88.3678438  68.0938424
 114.2785965  88.4361083  67.3893766 115.2479792  88.2900271  67.8658811
 113.9450256  87.1870879  66.4812426 112.8677716  87.2186570  66.3180630
 114.6526454  87.1076623  65.1512228 115.7300032  87.0755882  65.3136177
 114.3380678  86.2064472  64.6249596 114.4018544  87.9834845  64.5527761
 114.0106208  85.9460128  67.3870853 115.0376550  85.8298454  67.7332163
 113.3560995  86.1127574  68.2425954 113.5835491  84.7045325  66.6667643
 114.2379404  84.5368640  65.8113351 113.6450231  83.8520276  67.3431929
 112.5563849  84.8197772  66.3207120 114.8476858  89.5792794  66.5326080
 116.0144509  89.5146685  66.1898507 114.0071787  90.5875332  66.2895074
 113.0212413  90.5596640  66.5068785 114.5334983  91.7690159  65.6184401
 115.0094208  91.5631505  64.6596824 113.2213707  92.5833445  65.3610183
 113.5436730  93.4023910  64.7180694 112.5959243  91.8977844  64.7892454
 112.4370215  93.1318446  66.5118433 111.4573549  93.3232151  66.0739718
 112.3283065  92.4638754  67.3663006 113.0686931  94.4800622  66.9826365
 113.8658010  94.4299943  67.9560235 112.5954592  95.5235764  66.4271001
 115.5838791  92.5249877  66.4326827 116.3431361  93.2009918  65.8088870
 115.7300628  92.3034133  67.7287109 115.0011888  91.8263909  68.2398779
 116.8622858  92.8370387  68.4757156 116.9142609  93.9160695  68.3304903
 116.7311828  92.5564101  69.9449305 117.5233458  93.0617628  70.4973757
 115.7614919  92.8963626  70.3085676 116.8394473  91.1917940  70.1300943
 116.7583878  90.9882782  71.0647657 118.3077456  92.3976846  68.0103458
 119.3331503  93.1151709  68.1548474 118.3945072  91.2188618  67.2646614
 117.5846527  90.6155804  67.2815879 119.6380705  90.6873249  66.7353375
 120.3818697  90.6159413  67.5289157 119.4055107  89.2921748  66.1571564
 119.0167382  88.5605534  66.8654539 118.6967495  89.4167548  65.3384761
 120.6786015  88.6812822  65.5478338 121.6096803  88.0937583  66.4024318
 121.4592626  88.0721965  67.4817879 122.7620839  87.5212868  65.8431534
 123.5279798  87.0844229  66.4839764 122.9277506  87.5133428  64.4277452
 123.7874654  87.0302548  63.9633999 121.9726637  88.1337623  63.6395812
 122.1875850  88.2136110  62.5739672 120.7910480  88.6398009  64.1457246
 120.0087837  88.9798119  63.4670825 120.3533292  91.6825073  65.9247415
 121.5841376  91.6681867  65.9208047 119.6256068  92.4752882  65.1670235
 118.6443034  92.4213325  65.3999010 120.0190169  93.2733001  64.0121627
 120.6626265  92.6833561  63.3596046 118.7945904  93.7128604  63.2201024
 118.2382819  94.4282851  63.8257324 119.1365141  94.1993066  62.3065607
 117.8564059  92.4948031  62.8489794 117.6479902  91.8755276  63.7214251
 116.5305634  93.1231441  62.3306811 116.7381224  93.7422338  61.4579005
 115.8351201  92.3300873  62.0558716 116.0883872  93.7378852  63.1146927
 118.4423168  91.5849154  61.7760657 119.3894816  91.1737307  62.1252152
 117.7473240  90.7708769  61.5700860 118.6098205  92.1584059  60.8643913
 120.9328443  94.4580028  64.3837441 121.3000240  95.2345514  63.4518459
 121.0931884  94.7306573  65.7008756 120.4378901  94.2709567  66.3167967
 122.0233466  95.7212605  66.2811618 122.8290628  95.9127319  65.5724592
 121.3171258  97.0549900  66.5963172 120.7401224  97.3096481  65.7073202
 120.6382032  96.8687635  67.4284733 122.2455069  98.2116065  66.9475675
 123.4025277  98.1637827  66.5253605 121.7766974  99.1507680  67.6641340
 122.8508613  95.2620417  67.5350571 122.4686100  95.5842373  68.6305496
 123.9658944  94.5237053  67.3911836 124.1582231  94.2795661  66.4301919
 124.8840036  94.1098834  68.3850563 124.9060543  94.8290298  69.2038611
 124.5507320  92.7126890  68.9385739 124.6069337  92.0244011  68.0952462
 125.4871090  92.2057235  70.0899349 125.4310828  92.8933023  70.9338526
 125.1675682  91.2135039  70.4085170 126.5144187  92.1575046  69.7288134
 123.0542823  92.5767352  69.4953872 123.0115147  93.1711204  70.4080635
 122.4049862  93.0220916  68.7416155 122.5696511  91.1010893  69.8037423
 123.2182325  90.6552121  70.5578216 121.5449479  91.1246702  70.1745879
 122.6117063  90.5061824  68.8913734 126.2148251  94.0225563  67.7395920
 126.3397106  93.4251292  66.6792480 127.2197169  94.6092971  68.3387471
 126.9724024  95.1218386  69.1731547 128.6477546  94.6124345  67.9033571
 128.7988228  95.2806314  67.0555420 129.4827393  95.1071810  69.0634753
 129.5491125  94.2896011  69.7812893 130.4757458  95.3275423  68.6717112
 128.9607614  96.2622662  69.7080692 129.5409734  96.5156970  70.4296832
 129.1689066  93.2595770  67.4644411 128.9886717  92.2473412  68.1436871
 129.9524717  93.1851639  66.3503708 130.1317533  94.0163679  65.8053412
 130.3694659  91.9405860  65.8299521 129.5115568  91.2759823  65.7280069
 131.0253816  92.1300459  64.4218024 131.7851870  92.9067983  64.5081194
 131.4989919  91.1885514  64.1436274 129.9931779  92.5336997  63.3294155
 129.4764074  93.4323823  63.6661922 130.5384273  92.7513444  62.4110278
 128.9430266  91.3967639  63.0577495 129.4598550  90.5195579  62.6685234
 128.4458583  91.1396596  63.9930679 127.9323405  91.8120756  62.0895926
 127.1755296  92.4049223  62.3992204 127.9028866  91.3468038  60.8563142
 128.7150302  90.4230146  60.3389997 129.4380537  90.0125017  60.9124247
 128.6030032  90.1385402  59.3763866 127.1218989  91.8614194  60.0016224
 126.5220131  92.6290935  60.2679184 127.1029751  91.5014954  59.0581207
 131.2315020  91.0652873  66.7319499 130.8630133  89.9150227  66.9548478
 132.2117890  91.6702895  67.4659239 132.8044152  92.9821229  67.2896618
 132.2638855  93.7018353  67.9044316 132.7262235  93.2695440  66.2411513
 134.3104953  92.7927180  67.7546450 134.7847492  93.6957947  68.1388778
 134.9594689  92.3304635  67.0108335 133.9854993  91.8126730  68.8783861
 133.5736149  92.3395362  69.7391215 134.8916096  91.2847631  69.1756655
 132.9840348  90.8453270  68.3502871 133.3708777  90.0393676  67.7266845
 132.2846488  90.2597394  69.5501890 132.7473714  89.1980692  69.9996789
 131.1700047  90.8643313  70.0616292 131.1311671  91.8404400  69.8051085
 130.1008302  90.3218422  70.9922766 130.5876781  89.6793852  71.7259845
 129.3142195  91.4004183  71.7337407 128.8934737  92.0866471  70.9987834
 128.5063704  90.9197700  72.2855170 130.2308034  92.2014830  72.7359355
 130.5063617  91.5978832  73.6007105 131.1332525  92.5713779  72.2492474
 129.3888093  93.3678791  73.1855533 129.1790855  94.0067483  72.3276716
 128.4514651  92.9925259  73.5961569 130.1374356  94.1887386  74.2712969
 130.1589136  93.6078635  75.1933726 131.1574759  94.3669847  73.9309364
 129.4494327  95.5192023  74.5271274 128.5043632  95.3542508  74.8429348
 129.9568490  96.0298587  75.2355473 129.4298058  96.0577863  73.6729370
 129.1088306  89.3661219  70.2401479 129.0064744  88.2378716  70.6669646
 128.4230628  89.7577031  69.0855399 128.5464069  90.7285414  68.8358228
 127.5348948  88.9310037  68.2537018 126.6166392  88.6406296  68.7641807
 127.1688742  89.8721545  67.0679662 126.6059189  90.7102684  67.4787527
 128.1030353  90.2370403  66.6409984 126.3431349  89.1896939  65.9778262
 126.8987655  88.2826243  65.7399181 125.4070062  88.9235107  66.4686538
 125.9805502  90.0793069  64.4532262 124.5470061  91.0416379  65.0688561
 124.8606618  91.6674472  65.9043691 124.1612022  91.6723538  64.2679482
 123.7655083  90.3581578  65.4008461 128.1375154  87.5982593  67.7541283
 127.3714415  86.6344514  67.7178085 129.4581616  87.4996133  67.4394289
 130.0139372  88.3424551  67.4106094 130.0548206  86.2652263  66.9626650
 129.3815850  85.8034993  66.2404038 131.4323226  86.5014563  66.2781407
 131.6406018  85.5984769  65.7042530 131.2883614  87.3395690  65.5962738
 132.6574765  86.8092709  67.2448413 132.3908791  87.5775495  67.9706336
 132.8811937  85.8789538  67.7669167 133.9104677  87.2611742  66.4926109
 133.8869624  87.3952933  65.2730522 134.9337668  87.5282810  67.2490723
 135.8010245  87.8334428  66.8309315 134.8565557  87.4293434  68.2512456
 130.0764456  85.2195316  68.0775749 130.1208149  84.0192554  67.8377449
 130.2916282  85.6996096  69.3188301 130.5717834  86.6604531  69.4544479
 130.2663840  84.8051422  70.4937700 130.6144386  83.8108959  70.2137138
 131.1869828  85.3558151  71.5943359 132.1717808  85.4801274  71.1439821
 130.7899808  86.3317430  71.8737179 131.3021689  84.4916943  72.8208938
 131.5240800  83.4599058  72.5483707 132.2054683  84.9688666  73.2009674
 130.2255418  84.5115913  73.8990108 130.3960921  83.8977057  74.9597431
 129.2572687  85.3319519  73.7669594 128.8315265  84.5484225  70.9788338
 128.4815418  83.4984700  71.4865616 127.8508863  85.3952948  70.6963923
 128.1421024  86.3072768  70.3745517 126.3919769  85.1434584  70.8826925
 126.2442312  84.8478274  71.9213805 125.4135149  86.3253856  70.5536850
 125.7350130  86.7545973  69.6047300 123.9010558  85.8965850  70.4501299
 123.5786839  85.4676757  71.3989261 123.2902423  86.7696594  70.2204598
 123.7863505  85.1553272  69.6592563 125.5070107  87.3760086  71.5862231
 126.5263780  87.7602390  71.6230930 124.8218525  88.1878927  71.3422929
 125.2419459  86.9568439  72.5568634 125.9765076  83.9205727  70.0419946
 125.3182704  83.0825656  70.6396364 126.3441303  83.8630389  68.7793072
 126.7376981  84.6953413  68.3640043 126.0668287  82.7200254  67.9112393
 125.4261544  81.9414761  68.3253607 125.4137883  83.2557602  66.5871655
 125.0852032  82.3941947  66.0059288 124.2096597  84.1919438  66.8466523
 124.5375812  85.0540353  67.4274850 123.8000854  84.5302645  65.8948706
 123.4417741  83.6520274  67.4006773 126.4289763  83.9334979  65.6176945
 127.1960813  83.2135092  65.3326185 125.9057328  84.2784020  64.7258666
 126.8960119  84.7831735  66.1157206 127.2637626  81.7519190  67.6364499
 127.4394734  81.2118060  66.4880611 127.9976548  81.4611798  68.7358770
 127.8546656  81.9721874  69.5952515 129.1212079  80.5214530  68.6645178
 129.7185664  80.8752497  67.8242262 129.9847983  80.6060775  69.9605905
 129.4032063  80.2465269  70.8094569 130.8764092  79.9898993  69.8445967
 130.2791480  81.6410291  70.1347536 128.7027946  79.0463185  68.3269836
 127.5919872  78.6487524  68.6834246 129.6587346  78.2774729  67.8086351
 130.4950751  78.6356098  67.3700329 129.3826781  76.8801345  67.7006904
 130.0959201  76.4089224  67.0244181 129.5013625  76.2125109  69.0849396
 130.4350778  76.6188854  69.4737002 128.6878151  76.4543254  69.7688741
 129.6255872  74.7403604  68.9995584 130.0362016  74.1964120  67.9856151
 129.1522091  73.9896246  69.9909931 129.2324661  72.9840336  69.9415416
 128.7148205  74.4288354  70.7884177 128.0313828  76.4980833  66.9552866
 127.2235451  75.8933830  67.5987723 127.7682529  76.8334868  65.6947200
 128.5258099  77.2104116  65.1432362 126.4306300  76.7944400  65.1015106
 125.8852533  75.9263104  65.4716655 125.6207647  78.1041986  65.4864529
 125.8439837  78.3943239  66.5131466 125.9595635  78.8860083  64.8066817
 124.0925309  77.9078496  65.3263700 123.9268787  77.5160094  64.3228156
 123.4624346  76.9658170  66.3509554 123.6272858  77.3572606  67.3547954
 122.3915504  76.8878519  66.1632612 123.9182955  75.9793011  66.2668267
 123.4230838  79.2664911  65.5359977 123.7934792  79.9730812  64.7932749
 122.3435126  79.1605090  65.4292502 123.6543603  79.6357802  66.5351152
 126.4775038  76.5759374  63.5867930 127.3857982  76.8724767  62.9024388
 125.4786351  75.9076936  62.9902826 124.7040682  75.7427712  63.6171367
 125.3688703  75.4327153  61.6154382 126.0313745  75.9620321  60.9305943
 125.8117035  73.9617503  61.6891047 125.1598115  73.5292137  62.4480830
 125.5473262  73.5589002  60.7113949 127.2955044  73.6054262  62.0141000
 127.6177542  74.3075701  62.7830278 127.4392635  72.5855407  62.3708478
 128.1041916  73.8007286  60.8479580 127.9167974  73.0404452  59.8744373
 129.1019262  74.6978040  60.8051760 129.6470799  74.8023606  59.9613889
 129.3029075  75.2641086  61.6169685 123.9063461  75.5355508  61.1077277
 122.9930883  75.5333653  61.8796555 123.7433112  75.5195141  59.7967646
 124.5423782  75.8933128  59.3049660 122.5085322  75.2643193  59.0322187
 121.9417638  74.4821669  59.5373032 121.6102738  76.5218788  58.9021688
 120.6343237  76.1721363  58.5655670 121.4985628  77.0564892  59.8454675
 122.2151675  77.4769471  57.8338125 123.1756956  78.4460621  58.1893946
 123.4890754  78.4908952  59.2324107 123.7408809  79.3593548  57.2266604
 124.5320533  80.0435919  57.5332017 123.2523509  79.3933147  55.9037276
 123.6378413  80.3434324  55.0641304 124.2555708  80.9639151  55.4578449
 122.3682783  78.3550677  55.5118643 122.1288748  78.2241237  54.4565729
 121.7833308  77.4699340  56.5048727 120.9890219  76.7801318  56.2196597
 122.8583549  74.5144255  57.7392201 124.0389685  74.4302526  57.3939035
 121.8713926  73.8657319  57.0752855 121.1062026  73.7641492  57.7266414
 121.8612905  73.0425833  55.8497320 122.4625533  72.1386978  55.9475751
 120.3853738  72.6350074  55.6632844 119.9964555  72.2373725  56.6006895
 119.9322039  73.6063964  55.4654451 120.0497354  71.6796268  54.5301587
 118.8797989  71.4034935  54.1909598 121.0286804  71.2547669  53.8565083
 122.7913679  73.5126527  54.6496271 122.7807742  74.6731927  54.2443670
 123.5215802  72.5696170  54.0263747 123.6601203  71.7228646  54.5592126
 124.3275970  72.7729400  52.8329281 123.9617862  73.6535460  52.3048991
 125.7817629  72.9763353  53.1565112 125.7652660  73.6922750  53.9782516
 126.1904000  72.0291801  53.5086657 126.6752456  73.5311184  52.0005812
 127.7832108  72.9983906  51.7777825 126.2761946  74.5363738  51.3660121
 124.0373696  71.7731413  51.6704108 124.7227590  71.8187199  50.6130552
 123.0967424  70.8163681  51.8283271 122.7194147  70.6661410  52.7530730
 122.5852923  69.9690413  50.7079147 121.4993956  69.9449371  50.7992736
 122.8602893  70.4709454  49.7802464 123.1100754  68.5442864  50.6733136
 124.3395651  68.3732129  50.7510944 122.2109225  67.5652459  50.5901220
 121.2416323  67.8264684  50.7012017 122.5549610  66.0965491  50.5401097
 121.6460666  65.4950669  50.5552490 123.3355702  65.7875844  49.2245580
 124.1618455  66.4984149  49.2339529 123.7221563  64.7798572  49.3766669
 122.6834399  65.8528262  48.0010505 123.3001496  65.6366424  47.2978198
 123.2271649  65.6604003  51.8388972 123.9267093  64.6496765  51.8773289
 122.9362996  66.3466194  52.9228778 122.4092182  67.2069673  52.8772049
 123.3873001  65.8594472  54.2680839 122.5194470  65.9065835  54.9258896
 123.6895259  64.8200337  54.1401049 124.5396029  66.6380913  54.9072526
 124.9762856  66.4282322  56.0668290 125.0745940  67.5401424  54.0483642
 124.8532345  67.4163343  53.0707289 126.0113523  68.5795036  54.4128053
 126.7634392  68.1921237  55.1001199 126.7246043  69.0890586  53.1337278
 125.9865015  69.1917990  52.3382733 127.1689292  70.0618678  53.3442453
 127.8158131  68.1161816  52.6925580 128.7548652  68.5407324  53.0475772
 127.6159460  67.1843711  53.2215989 127.9479058  67.7792934  50.9312849
 126.9106572  66.2801937  50.8766069 125.9051168  66.5206963  51.2217823
 126.8635584  65.9074480  49.8534046 127.3424944  65.5152092  51.5219104
 125.4181710  69.7588957  55.2154348 124.2615402  70.0867849  55.0877798
 126.2505582  70.3783866  56.0581872 127.0726051  69.8632813  56.3392652
 125.9549324  71.6913410  56.7506040 125.0926681  72.1738729  56.2904275
 125.6403900  71.4346701  58.2373982 126.5274452  70.9837430  58.6822544
 125.4549724  72.4038145  58.7005176 124.3854430  70.4838327  58.4762145
 123.5636278  70.8491390  57.8603640 124.6588444  69.4781310  58.1569687
 123.9411300  70.4515687  59.9677118 124.8612797  70.4369443  60.5518432
 123.4157242  71.3905712  60.1418452 123.0178172  69.2407418  60.4067934
 122.3260592  69.5692255  61.1824672 122.4537494  68.8788474  59.5471660
 123.8803681  68.1328587  60.9418617 124.4028085  68.4678679  61.7386833
 123.2969062  67.3580066  61.2234223 124.5211507  67.8280425  60.2231240
 127.0309138  72.7564576  56.5110363 128.0971305  72.4702019  56.0222873
 126.7932208  73.9795732  56.9602973 125.8961358  74.0347904  57.4210457
 127.5589517  75.2395803  56.7527978 128.6231954  75.0040993  56.7470366
 127.2026527  75.9427776  55.4273603 127.9863391  76.6737962  55.2284967
 127.2089839  75.1825275  54.6462844 125.8255905  76.6538964  55.4445296
 125.0743220  75.9361461  55.7739699 125.8756663  77.4787208  56.1553455
 125.4370908  77.2037871  54.0366652 125.5017864  76.4207428  53.2811818
 124.4287625  77.6176801  54.0447878 126.4071833  78.3016721  53.6789333
 127.3782940  78.1597837  53.9174934 126.0796778  79.3742463  52.9724308
 124.9163737  79.5407886  52.3426148 124.2132858  78.8170678  52.3872863
 124.7435680  80.3899039  51.8237303 126.9604852  80.3343759  53.0477597
 127.7917307  80.2101642  53.6078513 126.8067488  81.1971111  52.5456126
 127.3919080  76.1527671  58.0469185 126.3662561  76.1855303  58.7078185
 128.3968820  76.9465986  58.3764768 129.2038504  76.9289932  57.7693595
 128.4864305  77.6821814  59.6071766 128.0012590  77.1020085  60.3921017
 129.9195470  77.9691386  60.0299529 129.9215756  78.0823358  61.1140570
 130.5190207  77.1014187  59.7546470 130.5201346  79.2393800  59.3773289
 130.4689483  78.9514241  58.3272993 129.9210386  80.1358086  59.5373255
 131.9713785  79.5232354  59.7566222 132.4159893  80.6377525  59.5397677
 132.7736682  78.5993529  60.1334647 127.6199115  78.9271393  59.5791307
 127.4264734  79.5710670  58.5654262 126.8617263  79.1490572  60.6607636
 127.0559638  78.5673561  61.4632565 125.7038882  80.0551289  60.7198397
 125.3311363  80.2512038  59.7144990 124.5862182  79.5247648  61.5462462
 124.9417504  79.3320824  62.5584568 123.7786359  80.2561167  61.5784238
 124.2182467  78.5969729  61.1081841 126.2949895  81.3580739  61.1639788
 126.1556962  81.8254030  62.3174943 127.1837885  81.9080005  60.3503929
 127.4760073  81.4358019  59.5067484 127.8830309  83.0743060  60.7431594
 128.2271898  82.9633014  61.7714258 129.0781230  83.3944383  59.8635042
 129.7547314  82.5431580  59.9384924 128.7453068  83.6679071  58.3495488
 128.0690626  84.5194025  58.2737255 129.6658874  83.8863837  57.8083478
 128.2701703  82.7875772  57.9166919 129.8444396  84.5354065  60.2728859
 130.5759947  84.6644428  59.6647929 126.9831631  84.2898523  60.9282703
 125.9415959  84.3194069  60.2897084 127.4339350  85.3156263  61.6801835
 128.2398238  85.0769007  62.2402304 126.8775301  86.6279710  61.8160071
 125.9987788  86.6139033  62.4607530 127.9570471  87.4612551  62.4849366
 128.8403367  87.4922925  61.8470211 127.5883766  88.4746530  62.6437039
 128.2181971  87.0156388  63.4447940 126.4237005  87.2082091  60.4931782
 125.2781263  87.6758770  60.5412663 127.2847822  87.1999875  59.4289862
 128.2496450  86.9399751  59.5757262 126.8973825  87.7316870  58.1106364
 126.7097045  88.8022948  58.1923375 127.9885858  87.5091321  57.0881011
 128.2664712  86.4555416  57.1168416 127.5207479  87.7349522  56.1298564
 129.2582262  88.3833479  57.2620441 130.4020750  87.9271748  56.9682755
 129.1026803  89.5888013  57.6714942 125.4904172  87.2001573  57.6603022
 124.5580868  87.9877258  57.5123197 125.3879752  85.8908246  57.4741016
 126.2302786  85.4256520  57.7810848 124.2708027  85.0577283  56.9602398
 124.1066832  85.3658958  55.9276718 124.4555682  83.5736259  56.9925488
 124.8791496  83.3614636  57.9742133 123.5149394  83.0346961  56.8790930
 125.4576072  83.1131212  55.8816981 125.8989517  83.8441972  54.9797303
 125.7330918  81.9348708  55.8926142 122.9794717  85.2224785  57.7699452
 121.8398856  85.3620789  57.3016983 123.1722702  85.3306478  59.0918035
 124.1239570  85.2103206  59.4078936 122.1021287  85.5842859  60.1247424
 121.2486442  84.9290089  59.9507437 122.6458810  85.3092966  61.4948589
 123.6065188  85.7817868  61.6998641 121.8847298  85.7365905  62.1476750
 122.7501953  83.8368711  61.7473320 123.3689355  83.3269534  61.0089246
 123.4317003  83.7714820  63.1160672 122.8132860  84.2808260  63.8551419
 123.5620938  82.7294835  63.4081927 124.4057979  84.2574998  63.0611035
 121.4661639  83.0732864  61.9584807 120.8360084  83.1695219  61.0743189
 121.6926213  82.0209268  62.1298211 120.9409019  83.4769796  62.8240618
 121.5568147  87.0358499  60.0941839 120.3065474  87.2182794  60.0113697
 122.4700101  87.9917795  59.9814427 123.4402640  87.7904550  60.1768273
 122.0865694  89.4049738  59.6759118 121.3980011  89.8195159  60.4122050
 123.3045822  90.3685317  59.5018339 124.1786142  89.7446539  59.3148980
 123.1516649  91.3906273  58.3628735 122.2780452  92.0152176  58.5493574
 124.0421212  92.0174013  58.3144716 123.0262947  90.8646900  57.4164214
 123.6498841  91.0527153  60.8045293 124.0071726  90.2499120  61.4494731
 124.4795261  91.7142465  60.5551902 122.5527918  91.8572592  61.5424471
 121.7229617  91.1962489  61.7925414 122.9663571  92.2823633  62.4569686
 122.1953134  92.6605824  60.8982570 121.1621301  89.4202883  58.4088841
 120.2349398  90.2555941  58.3360596 121.3909389  88.5905059  57.4296202
 122.1931433  87.9908900  57.5601124 120.7329261  88.5790901  56.1534059
 120.5033625  89.5954586  55.8334141 121.6760983  87.9264028  55.0993137
 122.6535202  88.4062337  55.1493919 121.7811592  86.8648400  55.3232484
 121.0915778  88.0972687  53.6812466 120.1805685  87.5090050  53.5712068
 120.8720718  89.1464610  53.4834724 122.2158633  87.5654654  52.6171538
 123.0351323  88.2813661  52.5509463 122.6040732  86.5983423  52.9366303
 121.5415251  87.4182890  51.2212419 122.3678803  87.1676557  50.5560949
 120.8910870  86.5509961  51.3345223 120.7816813  88.5237214  50.6554126
 121.3843169  89.3273446  50.5499619 120.4179550  88.2548318  49.7523613
 120.0156596  88.7558403  51.2713920 119.4082744  88.0023725  56.2695984
 118.4165591  88.7415412  56.0108058 119.3030744  86.7551718  56.7993846
 120.1551054  86.2824981  57.0653210 118.0380690  85.9890881  56.8274193
 117.5795515  86.2591183  55.8761335 118.2185844  84.4124688  56.8741692
 118.9405698  84.1533020  56.0997862 118.6799492  83.8863994  58.1714839
 117.9581943  84.1447906  58.9463418 118.7752087  82.8022349  58.1113721
 119.6481072  84.3225969  58.4174585 116.8846184  83.7230671  56.7408089
 116.4261770  83.9982553  55.7909642 117.0281528  82.6431002  56.7749984
 116.2336174  84.0286631  57.5598997 117.1528607  86.5416640  57.9331241
 115.9587636  86.7423255  57.7265299 117.7185722  87.0923826  59.0893592
 118.6836973  86.8771377  59.2950349 116.8944269  87.7012875  60.1539258
 115.9993074  87.0793218  60.1495731 117.4738885  87.7115314  61.5645995
 118.3712158  88.3285125  61.5172996 116.5498684  88.2367778  62.6727011
 115.6524682  87.6199724  62.7209198 117.0699089  88.1961419  63.6297837
 116.2703372  89.2676203  62.4551516 117.7372539  86.2739112  62.0045302
 118.4459343  85.8079287  61.3198883 118.1518614  86.2720467  63.0125960
 116.8023112  85.7136386  61.9957205 116.2654290  89.0301975  59.8062664
 115.2349850  89.4102600  60.3150804 116.8560543  89.7640761  58.8552539
 117.8522832  89.6522619  58.7322706 116.1844582  90.8233591  58.1174461
 115.6660526  91.5003610  58.7964331 117.2899847  91.6557002  57.3096253
 118.1393636  91.8033299  57.9766037 117.5982840  91.0485885  56.4584690
 116.7816080  93.0369769  56.8041139 117.4392258  93.3472657  55.9921037
 115.7723435  92.8925677  56.4185876 116.7629133  94.1709169  57.9399988
 117.9471762  94.5820276  58.2182316 115.7363481  94.6301449  58.5164425
 115.0315188  90.4245129  57.2546122 113.9074004  90.8672343  57.5067183
 115.2388543  89.5105402  56.2990103 116.2146516  89.3379049  56.1037770
 114.2332470  88.8189394  55.4839158 113.8042077  89.5104883  54.7588058
 114.8711076  87.6554084  54.7299195 115.3842940  87.0078145  55.4408070
 114.0909806  87.0892471  54.2210350 115.8672542  88.1747546  53.7083856
 116.5607179  88.8987226  54.1362632 116.4011820  87.2525362  53.4791833
 115.2834325  88.7257842  52.4696397 114.1035574  89.1145554  52.3998644
 115.9344785  88.9615362  51.5096677 113.0799221  88.3534415  56.3127935
 111.9313490  88.6949942  55.9953560 113.3081553  87.6190661  57.3672106
 114.2564406  87.2974408  57.4991628 112.2939665  87.1836876  58.3151176
 111.5895381  86.4660653  57.8945251 113.1192818  86.4795947  59.4114505
 113.6420740  85.6902005  58.8714095 113.8468951  87.1635085  59.8484184
 112.2537873  85.8483581  60.5447857 111.5047381  86.5517379  60.9084931
 111.5702635  84.6656101  59.9282524 112.3187199  83.9615200  59.5647017
 110.9447517  84.1767177  60.6751258 110.9494993  84.9971809  59.0958985
 113.2448216  85.5664655  61.7059354 113.7044178  86.5012161  62.0270459
 112.7074429  85.1201642  62.5426793 114.0194472  84.8798047  61.3645393
 111.4247014  88.3706463  58.8358864 110.2122935  88.2782831  58.9026403
 112.0679465  89.4163992  59.4055692 113.0768236  89.3842346  59.3704718
 111.4325639  90.5108177  60.1467858 110.4536709  90.2489555  60.5484022
 112.2993482  91.0041215  61.2750967 111.7792966  91.8378029  61.7469250
 112.5969076  89.9483174  62.3087413 113.1174038  89.1144590  61.8377175
 113.2254004  90.3725956  63.0917380 111.6634153  89.5932627  62.7453521
 113.5619921  91.6116611  60.8921646 114.0349302  91.8902432  61.6797698
 110.9923848  91.7148722  59.2768099 110.2300212  92.6058937  59.7255005
 111.2186319  91.6861518  57.9717346 111.8020468  90.9032383  57.7133303
 110.9487453  92.7453894  56.9392856 110.5246286  93.6333375  57.4080845
 112.2799655  93.1381199  56.2475763 113.0213446  93.2934247  57.0313726
 112.5830946  92.2979866  55.6227653 112.1732475  94.4123630  55.3802927
 111.5379641  94.2123203  54.5174493 111.7390561  95.2187288  55.9713545
 113.5733707  94.8261323  54.9002240 113.5088041  95.8149068  54.4460708
 114.2404330  94.8652723  55.7613834 114.1330296  93.8888521  53.9122191
 113.4650018  93.2268794  53.5439389 115.3134153  93.9342671  53.3831963
 116.3388890  94.5921066  53.8487948 116.2466371  95.1292666  54.6991175
 117.2204379  94.5612815  53.3568386 115.6079721  93.1631248  52.3915815
 114.9147147  92.5240550  52.0295262 116.5304128  93.2021960  51.9820997
 109.7315836  92.3357520  56.0716518 109.8795765  91.8623098  54.9333989
 108.5944871  92.4264532  56.7217218 108.7395454  92.6016833  57.7057705
 107.2924052  92.2633383  56.2669139 107.1891619  91.3663378  55.6563156
 106.1759277  92.2758473  57.3710762 106.1580774  93.2739607  57.8087421
 104.8235878  91.9401633  56.8462467 104.8405342  90.9419348  56.4088073
 104.1000997  91.9669815  57.6610758 104.5387231  92.6654807  56.0841011
 106.5583247  91.3807903  58.5924093 107.4536140  91.8426213  59.0086665
 105.7315457  91.4954316  59.2934038 106.8181988  89.8929284  58.3499027
 107.6452094  89.7774758  57.6493144 107.0716797  89.4093485  59.2932992
 105.9231412  89.4302864  57.9340492 107.0010497  93.3727107  55.2285846
 106.5112562  92.9957871  54.1421262 107.1962268  94.6740861  55.5202454
 107.4662834  94.8782859  56.4718079 106.9218254  95.8276816  54.5931585
 106.1287050  95.5395728  53.9031929 106.4834247  97.1078731  55.3436782
 107.2891668  97.6884862  55.7928634 105.9437360  97.7288520  54.6286807
 105.5293617  96.7902710  56.4352640 104.3709817  95.9868872  56.2930380
 103.7716974  95.8785944  57.4997484 102.8886349  95.2606810  57.6624830
 104.4967998  96.6706713  58.3695194 104.2913551  96.7866303  59.3515814
 105.5355814  97.2760387  57.7049990 106.1692277  97.9952107  58.2240223
 108.1090009  96.0918498  53.6819068 109.2122317  96.3659112  54.2570190
 107.9637256  96.0338905  52.4784103  59.5699023  53.7412192  91.5594407
  58.5912908  54.2321005  90.6389120  59.4433019  54.9784474  89.2896884
  60.3665079  55.9816457  89.5313346  61.0868897  56.5083929  88.4728010
  59.2368617  54.5054927  88.0037809  59.9672728  55.0452159  86.9585525
  60.8997040  56.0480414  87.1767732  61.7593914  56.5582650  86.0461081
  62.8903055  55.6778674  85.7853740  62.9775399  54.9372924  84.6776900
  64.1645197  54.0321491  84.5570355  65.1893273  54.0481762  85.4969517
  66.2384068  53.1493946  85.4141393  64.2215333  53.0937155  83.5310136
  65.2723098  52.1960227  83.4517976  66.3011533  52.2026917  84.3920862
  67.3816345  51.1835048  84.3589878  67.4137416  50.1941408  83.3757065
  68.3789097  49.2012090  83.3885164  69.3460845  49.1646249  84.3882367
  70.3507040  48.0832531  84.4578615  71.0271452  48.0023426  85.5450697
  71.6526186  46.7126694  85.8750073  72.3500784  46.8091892  87.2350264
  72.2192863  48.1667488  87.8634101  72.9994263  49.0547581  87.2548372
  72.9541947  50.4028795  87.7767489  71.5031079  48.4346330  88.7909115
  70.5790826  45.6291690  85.8623468  70.1289881  44.9070541  86.8641602
  69.1947558  44.0144719  86.3476022  69.1059170  44.2195118  85.0564909
  68.2255478  43.4776782  84.1190972  69.9641028  45.2372068  84.6913116
  70.2474242  45.8614078  83.4714029  70.4596626  47.1946345  83.3419220
  70.8003614  47.5365457  81.9843675  71.1192198  48.9239605  81.5131823
  70.8238280  46.4508111  81.1650193  71.1360252  46.3810420  79.7014083
  70.4381823  44.9920609  82.0068455  69.3224735  50.1503047  85.3694583
  68.3575290  51.1410409  85.3527587  62.1303424  54.9843421  83.7900230
  57.8030071  55.4243966  91.4312678  56.4472833  55.8444882  91.2884563
  55.5119707  55.0942209  90.5789027  54.2125311  55.5464336  90.4345654
  53.7832589  56.7512468  90.9803222  52.3664644  57.2156951  90.7611443
  54.7108004  57.5142290  91.7069328  56.0314253  57.0550938  91.8558814
  56.7192570  57.9755661  92.6073328  55.8769724  59.0092496  92.9421103
  54.6312773  58.7694695  92.4093859  53.4947180  59.6383400  92.5436437
  52.5607662  60.2958630  92.6201396  57.6179771  53.3312628  90.1021429
  60.5193291  56.3243962  90.4356890  61.7376194  57.2168026  88.6528166
  58.5844006  53.7979320  87.8262715  59.8189118  54.7081393  86.0517663
  61.2281967  56.6314689  85.2266330  62.0925847  57.4575864  86.2425368
  63.5296020  55.6471014  86.3922368  65.1898573  54.6946549  86.2319115
  66.9453078  53.1858266  86.0908236  63.5155450  53.0625782  82.8539641
  65.2808730  51.5500354  82.7165690  66.7468796  50.1926191  82.6589955
  68.3664898  48.5238112  82.6821511  72.3139276  46.5065952  85.1835206
  73.3064840  46.6168595  87.1764464  71.9995872  46.1506353  87.8683602
  73.6361425  50.9592312  87.3471607  72.0622811  50.7896051  87.6604117
  73.1459937  50.3615323  88.7356073  68.0145448  44.0415741  83.3470007
  68.6717559  42.6767823  83.7761800  67.3771564  43.2354200  84.5407631
  71.3784695  48.9274533  80.5687150  70.3464599  49.5181611  81.5920104
  71.8476612  49.3058095  82.0434420  71.1836422  45.4499136  79.4013708
  70.4561864  46.8274285  79.1563593  71.9998269  46.8068982  79.5266397
  69.9939055  50.1482785  86.0817503  68.3744919  51.8180659  86.0595957
  58.0728826  55.4461804  92.2710569  55.7479134  54.2374616  90.1711031
  53.5836998  54.9918500  89.9298899  51.9809982  57.5991873  91.5735054
  52.3417062  57.9110711  90.0715695  51.8092367  56.4615065  90.4796857
  57.5098463  57.8133614  92.9654379  56.2119089  59.7560041  93.4803010
  98.6594035  65.3653171  78.0911713 116.6397151 100.9504524  64.1023448
  78.5211674 130.7228352  85.4634787  83.3877952  83.5359114 103.8699013
 103.8747397  69.8061798  54.0465723  66.4397446 103.4117933  83.9492202
  97.4983511 123.3713640  64.5468014 104.6684986  62.1954254  69.6459695
  81.0349334 113.7623765  52.5064699  86.8472944  39.9456876  85.5529071
  56.9985381  85.4565719  51.8746473 115.9764677 121.0507522  77.1341897
  54.4621381  76.6070997  86.2985924  82.5739351 135.7011040 106.6475069
  62.3126887 110.1387717  57.9815572 125.3824830  72.0334906  46.0722373
  56.9841554  94.8722817  79.9790786  96.0636411  98.7414117  34.8758790
 107.4108921 127.9879770  86.6946657  68.7570430  60.7013648  57.8933637
  95.7410292 125.7203772 114.3238512 105.5241966  78.1186771  46.1539008
 135.1515168  83.5180784  57.1464572  91.5578368  56.7879456 159.7134298
  90.9066348  57.3733536 159.3268312  92.3522731  57.3185651 159.7729335
  97.8245092  53.2804391 160.9739135  97.0474534  52.9415551 160.5294297
  98.5036573  53.2857015 160.2994100  89.2296153  52.3769563 155.5173669
  88.3223214  52.1458816 155.7164818  89.7267185  51.5807182 155.7047651
  92.1364232  61.0867070 158.4370355  91.4625930  61.3898766 159.0455313
  92.5230054  61.8896150 158.0875813  90.1060474  54.0190901 157.3785738
  89.6679904  53.3026760 156.9191375  90.8470915  54.2467016 156.8170829
  90.3355447  61.2546742 160.6517435  90.5107202  60.7834785 161.4663057
  89.6488235  61.8812508 160.8798695  94.2271702  52.8775283 156.9717796
  93.6100872  52.1522111 156.8750848  93.7588190  53.6384643 156.6284870
  95.0509387  56.2014455 161.0910435  95.3269231  56.0871049 162.0004309
  94.1813886  55.8031939 161.0522608  92.0205616  59.3768991 161.9958297
  92.5493383  58.8661445 161.3828459  92.2833836  59.0611521 162.8603830
  95.1145800  59.3485789 162.6113280  95.2882677  58.7832211 161.8587133
  95.6074691  60.1486684 162.4292770  96.1020972  58.6652553 159.7110179
  96.7971877  59.2859246 159.9297493  96.4444122  57.8147904 159.9862557
  98.0012395  56.1152259 161.2397509  98.5263720  56.4539531 160.5146829
  97.9134748  55.1799274 161.0560644  90.1935841  58.7714305 158.6185272
  89.6209808  59.3904492 158.1655744  90.7668634  59.3213667 159.1525194
  93.4133101  59.0551455 159.7493855  94.3463774  58.9897017 159.9526730
  93.3256313  59.8907722 159.2908387  96.0421117  58.3717325 156.7097802
  95.9634749  58.0377189 157.6033560  96.8630784  58.8639093 156.7089274
  90.5782639  50.1075118 155.9601325  91.5241744  49.9781326 156.0289743
  90.1996884  49.3689780 156.4370753  93.6125069  55.6885321 156.3307780
  94.3160919  55.8935323 156.9465436  92.8887718  56.2562083 156.5956864
  95.5211766  56.1267850 158.3806240  96.3557370  55.6949048 158.1983715
  95.3596109  55.9549864 159.3083135  95.1757659  52.6299963 159.7462580
  95.1206462  52.4644235 158.8051024  94.5503714  53.3375996 159.9024769
  98.6594027  65.3653177 157.7439882  98.9119548  64.8434698 156.9823345
  97.7218586  65.2019322 157.8466566 100.3627344  61.7581329 158.6472295
 100.5301746  62.6261566 159.0142766 100.1724513  61.9208611 157.7233584
  96.9825622  62.5805397 158.8941193  96.1462934  62.9180084 159.2150468
  96.8430391  62.4454377 157.9568330 100.0689907  67.7061480 155.5173669
  99.1616969  67.4750734 155.7164818 100.5660939  66.9099099 155.7047651
  96.8564002  62.4252625 156.0939100  95.9793468  62.3041425 155.7301346
  97.3321755  61.6338703 155.8417988  91.5842696  64.0194480 161.5352005
  91.8796137  63.1105158 161.4819059  90.6830732  63.9982219 161.2133008
  93.3130537  61.7008578 161.6591331  92.9843244  60.8205956 161.4766437
  93.6669908  61.6456246 162.5467720  98.4140508  60.4856169 160.2260101
  99.1348870  60.8637422 159.7223818  97.7905812  61.2045046 160.3295079
  94.5582470  63.3651627 159.6520755  93.8651715  63.4395982 158.9960791
  94.3134222  62.6011971 160.1742272 101.4176394  65.4367035 155.9601325
 102.3635499  65.3073243 156.0289743 101.0390639  64.6981697 156.4370753
  99.6019311  63.3617012 155.8956210  98.6950766  63.0650124 155.9718924
  99.8795292  63.0646830 155.0290496  98.3718096  60.2203947 156.0368189
  99.2337260  60.5458845 156.2964006  98.5568440  59.4335443 155.5241255
  99.3247539  57.4599990 159.3247898  99.3126208  58.4041830 159.4816169
 100.2170960  57.2770135 159.0307359  91.5578369  33.7941578 146.4379604
  90.9066349  34.3795659 146.0513618  92.3522732  34.3247773 146.4974642
  97.8245093  30.2866514 147.6984441  97.0474536  29.9477674 147.2539603
  98.5036574  30.2919137 147.0239406  89.2296154  29.3831685 142.2418976
  88.3223216  29.1520939 142.4410125  89.7267186  28.5869304 142.4292957
  92.1364233  38.0929192 145.1615662  91.4625932  38.3960889 145.7700620
  92.5230055  38.8958273 144.8121119  90.1060475  31.0253024 144.1031045
  89.6679905  30.3088883 143.6436682  90.8470916  31.2529138 143.5416136
  90.3355448  38.2608865 147.3762741  90.5107204  37.7896908 148.1908364
  89.6488236  38.8874631 147.6044002  94.2271703  29.8837405 143.6963102
  93.6100874  29.1584233 143.5996155  93.7588191  30.6446766 143.3530176
  95.0509388  33.2076577 147.8155742  95.3269232  33.0933172 148.7249616
  94.1813887  32.8094062 147.7767915  92.0205618  36.3831113 148.7203604
  92.5493384  35.8723568 148.1073766  92.2833837  36.0673643 149.5849137
  95.1145801  36.3547911 149.3358587  95.2882679  35.7894334 148.5832439
  95.6074692  37.1548806 149.1538077  96.1020974  35.6714676 146.4355485
  96.7971878  36.2921368 146.6542800  96.4444124  34.8210027 146.7107863
  98.0012397  33.1214381 147.9642816  98.5263721  33.4601654 147.2392136
  97.9134749  32.1861397 147.7805951  90.1935842  35.7776427 145.3430579
  89.6209809  36.3966615 144.8901051  90.7668636  36.3275789 145.8770501
  93.4133102  36.0613578 146.4739161  94.3463775  35.9959139 146.6772037
  93.3256315  36.8969844 146.0153694  96.0421119  35.3779448 143.4343109
  95.9634750  35.0439312 144.3278867  96.8630785  35.8701216 143.4334581
  90.5782641  27.1137240 142.6846631  91.5241745  26.9843448 142.7535049
  90.1996886  26.3751902 143.1616060  93.6125070  32.6947443 143.0553087
  94.3160920  32.8997446 143.6710743  92.8887719  33.2624205 143.3202171
  95.5211768  33.1329973 145.1051547  96.3557372  32.7011171 144.9229022
  95.3596111  32.9611986 146.0328442  95.1757660  29.6362086 146.4707886
  95.1206464  29.4706357 145.5296331  94.5503715  30.3438119 146.6270076
  96.8172565  45.4562528 151.1265139  96.2537430  45.3652465 150.3581427
  96.7024960  44.6362433 151.6067632  94.3636997  46.9513720 153.9649360
  95.1558289  46.6104544 153.5495659  94.6033647  47.0608695 154.8851513
 102.3972124  49.1233496 146.4379604 101.7460103  49.7087576 146.0513618
 103.1916486  49.6539691 146.4974642  96.3227751  46.2122633 146.8366739
  97.0958627  45.6651620 146.6979615  96.6753150  47.0766882 147.0481200
  98.6594028  42.3715299 144.4685189  98.9119549  41.8496820 143.7068652
  97.7218588  42.2081445 144.5711872 103.8747389  46.8123928 146.9748589
 103.2393222  46.8858554 147.6869493 103.5444795  47.4017527 146.2967668
  98.3790317  44.2743405 146.6709564  98.2626575  43.5988308 147.3390648
  98.4892577  43.7875779 145.8541717 100.7221858  43.7353552 150.3756253
 100.3580065  43.2084173 151.0869174 101.5788974  43.3452021 150.2022738
 100.3627345  38.7643452 145.3717601 100.5301747  39.6323688 145.7388072
 100.1724514  38.9270734 144.4478891  96.5715160  43.6774228 153.0720136
  95.6465656  43.5450442 153.2797828  96.8199573  44.4568447 153.5690079
 100.3416566  41.2201109 146.3564268 100.2216191  41.6658160 147.1949748
  99.6469154  41.5686427 145.7977806  93.9323971  43.3207501 153.9063925
  94.0616352  43.5741980 154.8203337  93.2521422  43.9135209 153.5868580
  98.1023458  53.9904751 150.0054399  98.0247488  54.9412576 150.0842880
  97.4985102  53.6450624 150.6629326 106.0401632  41.6922583 147.1844602
 106.9519488  41.9249969 147.0092300 105.5311279  42.2759627 146.6219681
 100.1999176  46.4122809 151.8408269 100.6637522  46.6910512 151.0512891
  99.9355974  45.5106254 151.6581359  97.0923257  45.9594291 154.7788032
  97.6624614  46.3881559 154.1405517  97.6831369  45.6776875 155.4772218
  99.1368062  42.5345962 148.6497834  99.8392106  42.9867005 149.1171760
  98.8048691  41.8929780 149.2777727  94.8308142  41.1574093 150.9098444
  94.0339305  41.2692788 151.4281940  94.6033734  41.4960746 150.0439335
 100.3761827  49.3486904 148.7259939 100.2407502  50.1938440 149.1544787
 100.9171640  49.5506182 147.9625873  93.8291224  46.8662342 149.2987864
  94.3415745  47.6605592 149.4493429  94.4813937  46.1688633 149.2321466
  95.6386109  49.9828098 151.3810617  95.8152737  50.9046063 151.1931601
  96.4342943  49.6686518 151.8104997  96.7617425  51.5006272 157.3820960
  97.3124850  51.3723336 156.6097954  95.9228900  51.8001161 157.0315853
  91.7940141  45.1950996 150.0747435  92.6315363  45.6048005 149.8581142
  91.9718409  44.2550439 150.0447629 103.6904573  42.8626077 145.7631268
 103.1751197  43.6330682 146.0019655 103.4181882  42.1891213 146.3864329
 101.2751684  37.7075778 150.8216506 100.4193281  37.3182628 150.6422145
 101.6878636  37.7867739 149.9616292 108.6638847  45.6158432 147.6984441
 107.8868290  45.2769591 147.2539603 109.3430328  45.6211055 147.0239406
 103.4790876  40.7353169 147.5891049 103.1741012  41.0499318 148.4401192
 104.4321319  40.8134589 147.6318382 101.9237308  46.8943393 149.2384003
 101.3958670  46.1596152 148.9257240 101.4224811  47.6718069 148.9923971
  96.6556036  37.5563059 151.5990614  97.2299788  37.3338240 150.8663807
  97.2427018  37.6251753 152.3519216  96.9825623  39.5867520 145.6186500
  96.1462935  39.9242206 145.9395774  96.8430393  39.4516500 144.6813637
 100.0689908  44.7123603 142.2418976  99.1616970  44.4812856 142.4410125
 100.5660940  43.9161222 142.4292957 102.9757987  53.4221110 145.1615662
 102.3019686  53.7252807 145.7700620 103.3623809  54.2250190 144.8121119
 102.9751492  42.3177657 149.7816012 103.7223311  42.8299054 149.4723134
 103.2443081  41.9961710 150.6420405 101.2478142  44.8136198 146.7642966
 100.3389361  44.5295230 146.8615436 101.2773226  45.2335276 145.9046273
 106.4797409  48.4242787 150.5334134 106.0259736  47.5833697 150.5899324
 105.8491376  49.0604186 150.8708914 104.9230349  50.2619284 151.4683952
 105.2153323  50.8224341 150.7496317 105.4328969  50.5547845 152.2237111
  91.8166312  42.5341712 150.7458168  91.6190712  41.9411072 150.0209235
  91.2612976  42.2293922 151.4634107  99.7963036  42.4264818 152.8652761
  99.8511646  41.4738655 152.7895238  98.9854238  42.5824257 153.3494060
 100.9454230  46.3544941 144.1031045 100.5073660  45.6380800 143.6436682
 101.6864671  46.5821056 143.5416136  97.7355396  41.0441878 150.6243140
  96.9223261  41.3436049 151.0308332  98.2314390  40.6497567 151.3417622
  99.8863974  51.0399635 152.5577405  99.8440153  51.2660481 151.6285937
 100.8026673  50.8063010 152.7063206  98.0029775  47.9162664 152.3539368
  98.7970373  47.4212984 152.1521943  97.2921467  47.3880527 151.9907073
 102.8224619  50.2980759 156.7051735 102.8761641  50.8671696 157.4729451
 101.9539400  50.4682645 156.3405772  94.3112538  42.0605746 148.4299120
  93.3810126  41.9990201 148.6469082  94.4070010  41.5381698 147.6335762
  94.2298087  38.5860559 151.0177362  94.4904904  39.5005892 150.9086522
  95.0515259  38.1185001 151.1673975 100.5801051  48.4891686 156.0337205
 100.4412136  48.1210470 156.9063143  99.7915647  49.0039325 155.8621163
 101.1749203  53.5900782 147.3762741 101.3500958  53.1188826 148.1908364
 100.4881991  54.2166549 147.6044002 102.1306266  47.8673289 153.4226043
 101.7956098  47.8274059 154.3183692 101.6310211  47.2018005 152.9496453
 105.0665457  45.2129323 143.6963102 104.4494628  44.4876151 143.5996155
 104.5981946  45.9738683 143.3530176  95.7410288  56.7390145 154.1502601
  95.9806886  57.3708669 154.8281620  94.8979484  56.3878185 154.4367961
  96.8564003  39.4314747 142.8184406  95.9793470  39.3103548 142.4546653
  97.3321756  38.6400826 142.5663295 100.2538150  52.5469268 156.5544105
 100.1808321  53.3524239 157.0663410  99.8115543  52.7461233 155.7292127
 100.0427929  51.7841038 150.0646927  99.2595451  52.3262718 150.1585151
 100.7420674  52.3015017 150.4641168 104.4354360  46.3507354 150.2819556
 103.5010639  46.4708817 150.1124260 104.6131029  45.4479821 150.0179566
  99.9359548  39.7353050 152.4352817  99.5657336  39.1824090 153.1233723
 100.4318641  39.1311184 151.8827817  97.7648747  50.1950545 159.5307835
  98.4658206  50.8287028 159.6837229  97.2943862  50.5365277 158.7703474
 105.8903143  48.5368495 147.8155742 106.1662986  48.4225089 148.7249616
 105.0207641  48.1385980 147.7767915 102.5257207  52.7854846 151.4588556
 102.7079601  51.9676502 151.9216308 103.3490193  53.0022538 151.0213446
 102.8599372  51.7123031 148.7203604 103.3887139  51.2015485 148.1073766
 103.1227592  51.3965561 149.5849137  93.3616465  49.7286900 156.4638938
  93.9469902  48.9830588 156.5966842  93.1641303  50.0390857 157.3475601
  96.2155120  52.7638148 151.4801380  95.5465495  53.2484275 150.9965420
  96.0767990  53.0107368 152.3944759 100.3560389  54.7981891 158.0784038
 100.9078697  54.9613513 158.8433124 100.6966582  55.3886329 157.4064063
  91.5842697  41.0256603 148.2597312  91.8796138  40.1167281 148.2064366
  90.6830733  41.0044342 147.9378314 103.4928776  52.7463867 155.0647721
 103.3679915  51.9453606 154.5558666 104.1507867  53.2410060 154.5761690
  93.3130539  38.7070700 148.3836637  92.9843245  37.8268079 148.2011743
  93.6669909  38.6518369 149.2713027 102.5610118  50.3425603 152.8931623
 102.4135080  49.4142310 153.0739193 103.3863611  50.3645694 152.4088698
  96.4272362  38.9943670 148.7512115  96.7668434  39.5229591 148.0290723
  96.8744482  39.3324076 149.5270681 106.1644239  51.1654162 153.9796496
 107.0890787  50.9597023 153.8420947 105.9959543  50.9170563 154.8885837
  98.4140509  37.4918292 146.9505408  99.1348871  37.8699544 146.4469125
  97.7905813  38.2107168 147.0540386 102.5571632  38.1963441 147.8863740
 102.7735246  39.0788078 147.5852568 102.0765699  37.8049654 147.1569382
 105.9539556  51.6839829 149.3358587 106.1276433  51.1186252 148.5832439
 106.4468447  52.4840724 149.1538077  98.5604132  37.0266082 149.7802944
  98.6820043  36.0982728 149.9793832  98.2706174  37.0404768 148.8681260
 106.9414728  51.0006593 146.4355485 107.6365633  51.6213286 146.6542800
 107.2837878  50.1501945 146.7107863 108.8406151  48.4506299 147.9642816
 109.3657475  48.7893572 147.2392136 108.7528504  47.5153314 147.7805951
 100.5246812  54.5178282 152.3238069 100.0851802  54.0254661 153.0170926
 101.2754929  53.9751250 152.0830144  93.0039151  50.7089823 152.3262697
  93.8297171  50.4093595 151.9461341  92.6533203  49.9397446 152.7752486
  97.9720684  50.0616291 154.3960371  97.3500693  49.3986996 154.0962599
  98.6425551  50.0877423 153.7134019  91.2047756  48.6276150 153.2851631
  90.3679664  48.1998324 153.1035632  91.1771401  48.8208593 154.2222422
  97.5334191  48.6120215 147.8718831  97.6822311  49.2955679 147.2185504
  98.3400634  48.5925305 148.3868287  95.2886824  44.6385392 148.8779900
  95.0432866  43.7347722 149.0760111  95.4582739  44.6402543 147.9359378
  94.5582472  40.3713750 146.3766062  93.8651716  40.4458105 145.7206098
  94.3134223  39.6074094 146.8987579 101.0329597  51.1068345 145.3430579
 100.4603564  51.7258532 144.8901051 101.6062390  51.6567707 145.8770501
 104.2526856  51.3905495 146.4739161 105.1857529  51.3251057 146.6772037
 104.1650069  52.2261762 146.0153694 106.8814873  50.7071366 143.4343109
 106.8028505  50.3731229 144.3278867 107.7024540  51.1993134 143.4334581
 101.4176395  42.4429158 142.6846631 102.3635500  42.3135366 142.7535049
 101.0390640  41.7043820 143.1616060  99.6019312  40.3679134 142.6201517
  98.6950768  40.0712247 142.6964230  99.8795293  40.0708952 141.7535803
  98.3718097  37.2266070 142.7613496  99.2337261  37.5520968 143.0209313
  98.5568441  36.4397565 142.2486562  92.3022255  45.2406663 152.9159699
  92.2792943  45.3394350 151.9641583  92.6122892  46.0871814 153.2376866
  93.3159862  52.8402438 154.0476512  93.1814330  52.0802838 153.4814510
  92.8991924  53.5643337 153.5805301 104.4518825  48.0239361 143.0553087
 105.1554675  48.2289364 143.6710743 103.7281474  48.5916123 143.3202171
 105.2816635  43.7749222 149.1755357 105.2251836  44.2317774 148.3362990
 105.8344978  43.0139907 148.9978200  96.4728988  53.7371755 154.2594954
  96.3561372  54.6817187 154.1573645  95.6521434  53.4345316 154.6480754
 106.3605522  48.4621890 145.1051547 107.1951126  48.0303089 144.9229022
 106.1989865  48.2903904 146.0328442 106.0151414  44.9654004 146.4707886
 105.9600218  44.7998275 145.5296331 105.3897470  45.6730036 146.6270076
  99.3247540  34.4662113 146.0493205  99.3126210  35.4103952 146.2061476
 100.2170962  34.2832258 145.7552666  97.4983502  54.3900016 157.4750883
  98.4010748  54.4223627 157.7917378  97.2720872  53.4600467 157.4897219
  99.2537104  53.1431003 154.1360961  98.3032735  53.1432865 154.0225334
  99.5569590  52.3963738 153.6196996 107.6566319  60.7854446 151.1265139
 107.0931184  60.6944383 150.3581427 107.5418714  59.9654350 151.6067632
 105.2030751  62.2805637 153.9649360 105.9952043  61.9396462 153.5495659
 105.4427401  62.3900613 154.8851513 113.2365878  64.4525414 146.4379604
 112.5853858  65.0379494 146.0513618 114.0310241  64.9831608 146.4974642
 107.1621505  61.5414551 146.8366739 107.9352381  60.9943538 146.6979615
 107.5146904  62.4058800 147.0481200 109.4987783  57.7007217 144.4685189
 109.7513304  57.1788738 143.7068652 108.5612342  57.5373362 144.5711872
 114.7141143  62.1415846 146.9748589 114.0786976  62.2150472 147.6869493
 114.3838550  62.7309444 146.2967668 109.2184072  59.6035323 146.6709564
 109.1020330  58.9280226 147.3390648 109.3286332  59.1167697 145.8541717
 111.5615613  59.0645470 150.3756253 111.1973820  58.5376091 151.0869174
 112.4182729  58.6743939 150.2022738 111.2021100  54.0935370 145.3717601
 111.3695502  54.9615606 145.7388072 111.0118269  54.2562651 144.4478891
 107.4108914  59.0066145 153.0720136 106.4859411  58.8742359 153.2797828
 107.6593327  59.7860365 153.5690079 111.1810320  56.5493027 146.3564268
 111.0609946  56.9950078 147.1949748 110.4862909  56.8978345 145.7977806
 104.7717725  58.6499419 153.9063925 104.9010106  58.9033898 154.8203337
 104.0915177  59.2427127 153.5868580 108.9417213  69.3196669 150.0054399
 108.8641242  70.2704494 150.0842880 108.3378856  68.9742541 150.6629326
 116.8795387  57.0214500 147.1844602 117.7913243  57.2541887 147.0092300
 116.3705034  57.6051544 146.6219681 111.0392931  61.7414727 151.8408269
 111.5031276  62.0202430 151.0512891 110.7749729  60.8398171 151.6581359
 107.9317012  61.2886208 154.7788032 108.5018369  61.7173477 154.1405517
 108.5225124  61.0068793 155.4772218 109.9761817  57.8637879 148.6497834
 110.6785860  58.3158923 149.1171760 109.6442445  57.2221698 149.2777727
 103.7187151  56.1221432 153.9514967 102.9286205  56.3778960 153.4755078
 104.2098398  56.9369770 154.0567008 105.6701896  56.4866011 150.9098444
 104.8733060  56.5984705 151.4281940 105.4427488  56.8252663 150.0439335
 102.0024854  56.3751922 156.3829958 102.2532892  57.2598932 156.6487534
 102.5384402  56.1956524 155.6105050 111.2155581  64.6778822 148.7259939
 111.0801256  65.5230358 149.1544787 111.7565394  64.8798099 147.9625873
 104.6684979  62.1954260 149.2987864 105.1809499  62.9897510 149.4493429
 105.3207692  61.4980550 149.2321466 106.4779864  65.3120016 151.3810617
 106.6546492  66.2337981 151.1931601 107.2736697  64.9978435 151.8104997
 102.6333896  60.5242914 150.0747435 103.4709118  60.9339923 149.8581142
 102.8112163  59.5842356 150.0447629 114.5298328  58.1917995 145.7631268
 114.0144951  58.9622599 146.0019655 114.2575636  57.5183131 146.3864329
 112.1145439  53.0367696 150.8216506 111.2587035  52.6474546 150.6422145
 112.5272391  53.1159656 149.9616292 119.5032602  60.9450349 147.6984441
 118.7262045  60.6061509 147.2539603 120.1824083  60.9502973 147.0239406
 114.3184631  56.0645087 147.5891049 114.0134767  56.3791236 148.4401192
 115.2715073  56.1426507 147.6318382 112.7631063  62.2235310 149.2384003
 112.2352424  61.4888070 148.9257240 112.2618566  63.0009987 148.9923971
 107.4949790  52.8854976 151.5990614 108.0693542  52.6630158 150.8663807
 108.0820773  52.9543671 152.3519216 107.8219378  54.9159438 145.6186500
 106.9856690  55.2534124 145.9395774 107.6824147  54.7808417 144.6813637
 110.9083663  60.0415520 142.2418976 110.0010725  59.8104774 142.4410125
 111.4054695  59.2453140 142.4292957 113.8151742  68.7513028 145.1615662
 113.1413441  69.0544724 145.7700620 114.2017564  69.5542108 144.8121119
 113.8145246  57.6469575 149.7816012 114.5617065  58.1590972 149.4723134
 114.0836836  57.3253627 150.6420405 112.0871896  60.1428115 146.7642966
 111.1783116  59.8587148 146.8615436 112.1166980  60.5627194 145.9046273
 117.3191164  63.7534705 150.5334134 116.8653491  62.9125615 150.5899324
 116.6885131  64.3896103 150.8708914 115.7624103  65.5911202 151.4683952
 116.0547077  66.1516259 150.7496317 116.2722724  65.8839763 152.2237111
 102.6560067  57.8633629 150.7458168 102.4584467  57.2702990 150.0209235
 102.1006731  57.5585840 151.4634107 110.6356790  57.7556736 152.8652761
 110.6905400  56.8030572 152.7895238 109.8247992  57.9116175 153.3494060
 111.7847984  61.6836859 144.1031045 111.3467414  60.9672718 143.6436682
 112.5258425  61.9112974 143.5416136 108.5749150  56.3733796 150.6243140
 107.7617016  56.6727966 151.0308332 109.0708145  55.9789484 151.3417622
 110.7257728  66.3691553 152.5577405 110.6833907  66.5952399 151.6285937
 111.6420427  66.1354927 152.7063206 108.8423529  63.2454582 152.3539368
 109.6364128  62.7504902 152.1521943 108.1315221  62.7172445 151.9907073
 105.1506293  57.3897663 148.4299120 104.2203881  57.3282119 148.6469082
 105.2463765  56.8673616 147.6335762 105.0691842  53.9152476 151.0177362
 105.3298659  54.8297809 150.9086522 105.8909014  53.4476919 151.1673975
 112.0142957  68.9192700 147.3762741 112.1894713  68.4480743 148.1908364
 111.3275745  69.5458466 147.6044002 112.9700020  63.1965206 153.4226043
 112.6349853  63.1565976 154.3183692 112.4703966  62.5309922 152.9496453
 115.9059212  60.5421241 143.6963102 115.2888382  59.8168069 143.5996155
 115.4375700  61.3030601 143.3530176 107.6957758  54.7606665 142.8184406
 106.8187224  54.6395466 142.4546653 108.1715511  53.9692743 142.5663295
  99.2159898  59.5483825 152.9125914  99.9030938  59.2345555 152.3246929
  99.0608027  60.4525189 152.6393165 104.0194620  54.4374021 157.3410937
 103.9352809  53.8299691 156.6061347 103.1977326  54.9283040 157.3420434
 110.8821684  67.1132955 150.0646927 110.0989206  67.6554635 150.1585151
 111.5814429  67.6306935 150.4641168 115.2748115  61.6799272 150.2819556
 114.3404393  61.8000734 150.1124260 115.4524783  60.7771739 150.0179566
 110.7753303  55.0644968 152.4352817 110.4051090  54.5116008 153.1233723
 111.2712395  54.4603101 151.8827817 116.7296897  63.8660413 147.8155742
 117.0056741  63.7517007 148.7249616 115.8601396  63.4677897 147.7767915
 113.3650961  68.1146763 151.4588556 113.5473356  67.2968419 151.9216308
 114.1883947  68.3314456 151.0213446 113.6993127  67.0414949 148.7203604
 114.2280893  66.5307403 148.1073766 113.9621346  66.7257479 149.5849137
 104.2010219  65.0578818 156.4638938 104.7863656  64.3122506 156.5966842
 104.0035058  65.3682775 157.3475601 107.0548875  68.0930065 151.4801380
 106.3859250  68.5776193 150.9965420 106.9161744  68.3399286 152.3944759
  98.7927874  57.6284418 155.1843381  98.8311974  57.0948009 155.9780499
  98.2868167  57.1019624 154.5654358 102.4236452  56.3548520 148.2597312
 102.7189893  55.4459199 148.2064366 101.5224487  56.3336260 147.9378314
 105.9530699  54.4304517 154.2424861 105.2317284  55.0440484 154.1032334
 106.7423954  54.9662282 154.1641507 104.1524293  54.0362618 148.3836637
 103.8236999  53.1559997 148.2011743 104.5063664  53.9810287 149.2713027
 113.4003872  65.6717521 152.8931623 113.2528834  64.7434228 153.0739193
 114.2257366  65.6937611 152.4088698 107.2666116  54.3235588 148.7512115
 107.6062189  54.8521509 148.0290723 107.7138237  54.6615994 149.5270681
 109.2534263  52.8210209 146.9505408 109.9742626  53.1991462 146.4469125
 108.6299568  53.5399086 147.0540386 113.3965386  53.5255358 147.8863740
 113.6129001  54.4079996 147.5852568 112.9159454  53.1341572 147.1569382
 108.1364608  56.4841071 154.4634485 107.9909188  56.7981375 155.3558766
 107.6589811  57.1025972 153.9105383 116.7933310  67.0131747 149.3358587
 116.9670188  66.4478169 148.5832439 117.2862201  67.8132642 149.1538077
 102.6110270  59.0246416 157.4022146 102.0663738  59.8006224 157.5342420
 103.4889620  59.3717220 157.2441267 109.3997887  52.3558000 149.7802944
 109.5213798  51.4274646 149.9793832 109.1099929  52.3696686 148.8681260
 117.7808483  66.3298511 146.4355485 118.4759387  66.9505204 146.6542800
 118.1231633  65.4793862 146.7107863 103.3976292  58.1516312 160.2952303
 102.6558028  58.2998947 160.8816933 103.0769036  58.4124578 159.4319052
 119.6799906  63.7798217 147.9642816 120.2051230  64.1185489 147.2392136
 119.5922258  62.8445232 147.7805951 103.8432905  66.0381741 152.3262697
 104.6690925  65.7385513 151.9461341 103.4926957  65.2689363 152.7752486
 108.8114439  65.3908209 154.3960371 108.1894448  64.7278914 154.0962599
 109.4819306  65.4169341 153.7134019 102.0441510  63.9568067 153.2851631
 101.2073419  63.5290242 153.1035632 102.0165156  64.1500511 154.2222422
 108.3727946  63.9412132 147.8718831 108.5216066  64.6247597 147.2185504
 109.1794389  63.9217222 148.3868287 106.1280579  59.9677310 148.8779900
 105.8826620  59.0639640 149.0760111 106.2976493  59.9694460 147.9359378
 105.3976226  55.7005668 146.3766062 104.7045471  55.7750023 145.7206098
 105.1527978  54.9366011 146.8987579 111.8723351  66.4360263 145.3430579
 111.2997318  67.0550450 144.8901051 112.4456145  66.9859625 145.8770501
 115.0920611  66.7197413 146.4739161 116.0251284  66.6542975 146.6772037
 115.0043824  67.5553680 146.0153694 117.7208628  66.0363283 143.4343109
 117.6422259  65.7023147 144.3278867 118.5418294  66.5285051 143.4334581
 112.2570150  57.7721076 142.6846631 113.2029254  57.6427284 142.7535049
 111.8784395  57.0335737 143.1616060 110.4413067  55.6971052 142.6201517
 109.5344522  55.4004165 142.6964230 110.7189048  55.4000870 141.7535803
 101.3591007  57.0177415 153.0700563 101.0393791  56.1642724 152.7774937
 100.8124435  57.2325994 153.8258530 105.1370915  59.7339856 156.7870070
 105.3556924  60.6656964 156.8058103 105.5496688  59.3747831 157.5724873
 109.2111851  52.5557987 142.7613496 110.0731015  52.8812886 143.0209313
 109.3962195  51.7689483 142.2486562 101.2279267  60.6380327 155.0393685
 100.5342739  60.2234280 154.5263639 101.9752258  60.6800863 154.4427103
 103.1416010  60.5698581 152.9159699 103.1186698  60.6686268 151.9641583
 103.4516646  61.4163731 153.2376866 105.8003387  62.6274736 157.0306314
 106.7546641  62.5958678 156.9636245 105.6015911  62.1665359 157.8456540
 104.1553616  68.1694355 154.0476512 104.0208084  67.4094756 153.4814510
 103.7385679  68.8935255 153.5805301 115.2912579  63.3531279 143.0553087
 115.9948429  63.5581281 143.6710743 114.5675228  63.9208041 143.3202171
 116.1210390  59.1041140 149.1755357 116.0645591  59.5609691 148.3362990
 116.6738732  58.3431825 148.9978200 117.1999277  63.7913808 145.1051547
 118.0344881  63.3595006 144.9229022 117.0383620  63.6195822 146.0328442
 116.8545169  60.2945921 146.4707886 116.7993973  60.1290193 145.5296331
 116.2291224  61.0021954 146.6270076 110.1641294  49.7954030 146.0493205
 110.1519964  50.7395870 146.2061476 111.0564716  49.6124176 145.7552666
 120.3381537  73.0299135 144.4685189 120.5907058  72.5080656 143.7068652
 119.4006097  72.8665280 144.5711872 122.0414854  69.4227287 145.3717601
 122.2089256  70.2907524 145.7388072 121.8512023  69.5854569 144.4478891
 118.6613132  70.2451355 145.6186500 117.8250444  70.5826042 145.9395774
 118.5217902  70.1100335 144.6813637 121.7477417  75.3707438 142.2418976
 120.8404479  75.1396692 142.4410125 122.2448449  74.5745057 142.4292957
 118.5351512  70.0898583 142.8184406 117.6580979  69.9687383 142.4546653
 119.0109265  69.2984661 142.5663295 113.2630206  71.6840438 148.2597312
 113.5583647  70.7751116 148.2064366 112.3618242  71.6628177 147.9378314
 114.9918048  69.3654536 148.3836637 114.6630754  68.4851914 148.2011743
 115.3457418  69.3102204 149.2713027 120.0928018  68.1502127 146.9505408
 120.8136380  68.5283380 146.4469125 119.4693322  68.8691004 147.0540386
 116.2369981  71.0297585 146.3766062 115.5439225  71.1041940 145.7206098
 115.9921732  70.2657929 146.8987579 123.0963904  73.1012993 142.6846631
 124.0423009  72.9719201 142.7535049 122.7178149  72.3627655 143.1616060
 121.2806821  71.0262970 142.6201517 120.3738277  70.7296082 142.6964230
 121.5582802  70.7292788 141.7535803 120.0505606  67.8849905 142.7613496
 120.9124770  68.2104803 143.0209313 120.2355950  67.0981401 142.2486562
 121.0035049  65.1245948 146.0493205 120.9913719  66.0687788 146.2061476
 121.8958471  64.9416093 145.7552666  91.5578370  10.8003701 133.1624911
  90.9066350  11.3857781 132.7758925  92.3522733  11.3309896 133.2219948
  97.8245094   7.2928637 134.4229748  97.0474537   6.9539796 133.9784910
  98.5036575   7.2981260 133.7484713  89.2296155   6.3893808 128.9664283
  88.3223217   6.1583061 129.1655432  89.7267187   5.5931427 129.1538264
  92.1364234  15.0991315 131.8860969  91.4625933  15.4023012 132.4945927
  92.5230056  15.9020395 131.5366426  90.1060477   8.0315146 130.8276351
  89.6679906   7.3151005 130.3681989  90.8470917   8.2591261 130.2661443
  90.3355449  15.2670987 134.1008048  90.5107205  14.7959031 134.9153671
  89.6488237  15.8936754 134.3289309  94.2271704   6.8899528 130.4208409
  93.6100875   6.1646356 130.3241461  93.7588193   7.6508888 130.0775483
  95.0509389  10.2138700 134.5401049  95.3269233  10.0995294 135.4494923
  94.1813888   9.8156185 134.5013222  92.0205619  13.3893236 135.4448911
  92.5493385  12.8785690 134.8319073  92.2833838  13.0735766 136.3094444
  95.1145802  13.3610034 136.0603894  95.2882680  12.7956456 135.3077746
  95.6074694  14.1610929 135.8783384  96.1020975  12.6776798 133.1600792
  96.7971880  13.2983491 133.3788107  96.4444125  11.8272150 133.4353170
  98.0012398  10.1276504 134.6888123  98.5263722  10.4663777 133.9637443
  97.9134751   9.1923519 134.5051257  90.1935843  12.7838550 132.0675886
  89.6209810  13.4028737 131.6146357  90.7668637  13.3337912 132.6015807
  93.4133103  13.0675700 133.1984468  94.3463776  13.0021262 133.4017343
  93.3256316  13.9031967 132.7399000  96.0421120  12.3841571 130.1588415
  95.9634751  12.0501434 131.0524173  96.8630787  12.8763338 130.1579888
  90.5782642   4.1199363 129.4091938  91.5241747   3.9905571 129.4780356
  90.1996887   3.3814025 129.8861366  93.6125072   9.7009566 129.7798394
  94.3160922   9.9059568 130.3956049  92.8887720  10.2686328 130.0447477
  95.5211769  10.1392095 131.8296854  96.3557373   9.7073294 131.6474329
  95.3596112   9.9674109 132.7573748  95.1757661   6.6424208 133.1953193
  95.1206465   6.4768480 132.2541637  94.5503716   7.3500241 133.3515383
  96.8172566  22.4624651 137.8510446  96.2537431  22.3714588 137.0826734
  96.7024961  21.6424555 138.3312939  94.3636998  23.9575842 140.6894667
  95.1558290  23.6166667 140.2740966  94.6033648  24.0670817 141.6096820
 102.3972125  26.1295618 133.1624911 101.7460105  26.7149699 132.7758925
 103.1916488  26.6601813 133.2219948  96.3227752  23.2184756 133.5612045
  97.0958628  22.6713743 133.4224921  96.6753151  24.0829005 133.7726507
  98.6594030  19.3777422 131.1930495  98.9119550  18.8558943 130.4313958
  97.7218589  19.2143567 131.2957179 103.8747390  23.8186050 133.6993895
 103.2393223  23.8920677 134.4114800 103.5444796  24.4079649 133.0212975
  98.3790318  21.2805528 133.3954870  98.2626577  20.6050431 134.0635955
  98.4892578  20.7937902 132.5787023 100.7221859  20.7415675 137.1001559
 100.3580067  20.2146296 137.8114481 101.5788975  20.3514144 136.9268045
 100.3627346  15.7705575 132.0962908 100.5301749  16.6385811 132.4633379
 100.1724515  15.9332856 131.1724197  96.5715161  20.6836350 139.7965443
  95.6465658  20.5512564 140.0043135  96.8199574  21.4630569 140.2935385
 100.3416567  18.2263232 133.0809575 100.2216192  18.6720283 133.9195055
  99.6469156  18.5748550 132.5223113  93.9323972  20.3269624 140.6309232
  94.0616353  20.5804103 141.5448644  93.2521423  20.9197332 140.3113887
  98.1023459  30.9966874 136.7299706  98.0247489  31.9474699 136.8088187
  97.4985103  30.6512746 137.3874632 106.0401633  18.6984705 133.9089909
 106.9519490  18.9312092 133.7337606 105.5311280  19.2821749 133.3464987
 100.1999178  23.4184932 138.5653575 100.6637523  23.6972635 137.7758198
  99.9355976  22.5168376 138.3826666  97.0923259  22.9656413 141.5033339
  97.6624616  23.3943682 140.8650823  97.6831371  22.6838998 142.2017524
  99.1368064  19.5408084 135.3743141  99.8392107  19.9929128 135.8417067
  98.8048692  18.8991903 136.0023034  94.8308143  18.1636216 137.6343751
  94.0339306  18.2754910 138.1527247  94.6033735  18.5022868 136.7684641
 100.3761828  26.3549027 135.4505246 100.2407503  27.2000562 135.8790094
 100.9171641  26.5568304 134.6871180  93.8291226  23.8724465 136.0233171
  94.3415746  24.6667715 136.1738736  94.4813938  23.1750755 135.9566772
  95.6386110  26.9890221 138.1055924  95.8152739  27.9108186 137.9176908
  96.4342944  26.6748640 138.5350304  96.7617426  28.5068395 144.1066266
  97.3124851  28.3785458 143.3343260  95.9228902  28.8063284 143.7561159
  91.7940142  22.2013119 136.7992741  92.6315364  22.6110127 136.5826449
  91.9718410  21.2612561 136.7692935 103.6904575  19.8688200 132.4876574
 103.1751198  20.6392804 132.7264962 103.4181883  19.1953336 133.1109636
 101.2751686  14.7137900 137.5461813 100.4193282  14.3244751 137.3667451
 101.6878637  14.7929861 136.6861598 108.6638849  22.6220554 134.4229748
 107.8868291  22.2831714 133.9784910 109.3430330  22.6273178 133.7484713
 103.4790878  17.7415292 134.3136356 103.1741013  18.0561441 135.1646499
 104.4321320  17.8196712 134.3563689 101.9237310  23.9005515 135.9629310
 101.3958671  23.1658275 135.6502547 101.4224812  24.6780191 135.7169278
  96.6556037  14.5625181 138.3235921  97.2299789  14.3400363 137.5909114
  97.2427020  14.6313876 139.0764522  96.9825624  16.5929642 132.3431806
  96.1462937  16.9304329 132.6641081  96.8430394  16.4578622 131.4058943
 100.0689910  21.7185725 128.9664283  99.1616972  21.4874979 129.1655432
 100.5660942  20.9223345 129.1538264 102.9757989  30.4283233 131.8860969
 102.3019687  30.7314929 132.4945927 103.3623811  31.2312313 131.5366426
 102.9751493  19.3239780 136.5061318 103.7223312  19.8361177 136.1968440
 103.2443083  19.0023832 137.3665712 101.2478143  21.8198320 133.4888273
 100.3389362  21.5357353 133.5860742 101.2773227  22.2397399 132.6291580
 106.4797411  25.4304910 137.2579440 106.0259738  24.5895820 137.3144631
 105.8491377  26.0666308 137.5954220 104.9230350  27.2681406 138.1929258
 105.2153324  27.8286464 137.4741624 105.4328970  27.5609967 138.9482417
  91.8166314  19.5403834 137.4703475  91.6190713  18.9473195 136.7454541
  91.2612978  19.2356045 138.1879414  99.7963037  19.4326941 139.5898068
  99.8511647  18.4800777 139.5140545  98.9854239  19.5886380 140.0739366
 100.9454231  23.3607064 130.8276351 100.5073661  22.6442923 130.3681989
 101.6864672  23.5883179 130.2661443  97.7355397  18.0504001 137.3488447
  96.9223263  18.3498171 137.7553639  98.2314391  17.6559689 138.0662929
  99.8863975  28.0461758 139.2822712  99.8440154  28.2722604 138.3531244
 100.8026674  27.8125132 139.4308513  98.0029776  24.9224787 139.0784674
  98.7970374  24.4275107 138.8767249  97.2921468  24.3942650 138.7152380
 102.8224620  27.3042882 143.4297042 102.8761643  27.8733818 144.1974758
 101.9539402  27.4744767 143.0651079  94.3112539  19.0667868 135.1544427
  93.3810127  19.0052324 135.3714389  94.4070011  18.5443821 134.3581068
  94.2298088  15.5922681 137.7422669  94.4904906  16.5068014 137.6331829
  95.0515261  15.1247124 137.8919281 100.5801052  25.4953809 142.7582511
 100.4412138  25.1272593 143.6308449  99.7915648  26.0101448 142.5866469
 101.1749204  30.5962905 134.1008048 101.3500959  30.1250948 134.9153671
 100.4881992  31.2228671 134.3289309 102.1306267  24.8735411 140.1471349
 101.7956100  24.8336181 141.0428999 101.6310213  24.2080127 139.6741759
 105.0665459  22.2191446 130.4208409 104.4494629  21.4938274 130.3241461
 104.5981947  22.9800806 130.0775483  95.7410289  33.7452268 140.8747908
  95.9806887  34.3770792 141.5526927  94.8979486  33.3940308 141.1613267
  96.8564005  16.4376870 129.5429713  95.9793471  16.3165671 129.1791960
  97.3321758  15.6462948 129.2908602 100.2538151  29.5531390 143.2789412
 100.1808322  30.3586362 143.7908717  99.8115544  29.7523356 142.4537433
 100.0427931  28.7903160 136.7892234  99.2595452  29.3324840 136.8830458
 100.7420676  29.3077140 137.1886475 104.4354361  23.3569477 137.0064862
 103.5010640  23.4770939 136.8369567 104.6131030  22.4541944 136.7424872
  99.9359549  16.7415173 139.1598124  99.5657337  16.1886213 139.8479029
 100.4318642  16.1373306 138.6073124  97.7648748  27.2012668 146.2553142
  98.4658207  27.8349151 146.4082536  97.2943863  27.5427399 145.4948781
 105.8903144  25.5430617 134.5401049 106.1662988  25.4287212 135.4494923
 105.0207643  25.1448102 134.5013222 102.5257208  29.7916968 138.1833862
 102.7079602  28.9738624 138.6461615 103.3490194  30.0084661 137.7458752
 102.8599373  28.7185153 135.4448911 103.3887140  28.2077608 134.8319073
 103.1227593  28.4027684 136.3094444  93.3616466  26.7349023 143.1884244
  93.9469903  25.9892711 143.3212148  93.1641305  27.0452979 144.0720908
  96.2155121  29.7700270 138.2046687  95.5465497  30.2546398 137.7210727
  96.0767991  30.0169491 139.1190065 100.3560390  31.8044014 144.8029345
 100.9078698  31.9675635 145.5678430 100.6966583  32.3948451 144.1309370
  91.5842698  18.0318725 134.9842619  91.8796139  17.1229404 134.9309672
  90.6830734  18.0106465 134.6623621 103.4928777  29.7525989 141.7893027
 103.3679917  28.9515729 141.2803973 104.1507868  30.2472183 141.3006997
  93.3130540  15.7132823 135.1081944  92.9843246  14.8330202 134.9257050
  93.6669911  15.6580491 135.9958333 102.5610119  27.3487725 139.6176929
 102.4135081  26.4204433 139.7984499 103.3863612  27.3707816 139.1334005
  96.4272363  16.0005793 135.4757422  96.7668436  16.5291714 134.7536030
  96.8744484  16.3386199 136.2515988 106.1644241  28.1716284 140.7041802
 107.0890788  27.9659146 140.5666253 105.9959544  27.9232685 141.6131144
  98.4140510  14.4980414 133.6750714  99.1348873  14.8761667 133.1714431
  97.7905814  15.2169291 133.7785692 102.5571633  15.2025563 134.6109047
 102.7735248  16.0850201 134.3097875 102.0765700  14.8111777 133.8814689
 105.9539557  28.6901952 136.0603894 106.1276434  28.1248374 135.3077746
 106.4468448  29.4902847 135.8783384  98.5604133  14.0328205 136.5048251
  98.6820045  13.1044851 136.7039138  98.2706176  14.0466891 135.5926566
 106.9414729  28.0068716 133.1600792 107.6365634  28.6275409 133.3788107
 107.2837880  27.1564067 133.4353170 108.8406152  25.4568422 134.6888123
 109.3657477  25.7955694 133.9637443 108.7528505  24.5215437 134.5051257
 100.5246813  31.5240405 139.0483376 100.0851804  31.0316784 139.7416233
 101.2754930  30.9813373 138.8075451  93.0039152  27.7151946 139.0508004
  93.8297172  27.4155718 138.6706647  92.6533204  26.9459568 139.4997793
  97.9720685  27.0678414 141.1205678  97.3500695  26.4049119 140.8207905
  98.6425552  27.0939546 140.4379325  91.2047757  25.6338272 140.0096938
  90.3679666  25.2060447 139.8280939  91.1771403  25.8270716 140.9467729
  97.5334192  25.6182337 134.5964138  97.6822313  26.3017802 133.9430811
  98.3400636  25.5987427 135.1113594  95.2886825  21.6447515 135.6025207
  95.0432867  20.7409845 135.8005417  95.4582740  21.6464665 134.6604685
  94.5582473  17.3775873 133.1011368  93.8651718  17.4520228 132.4451404
  94.3134225  16.6136216 133.6232885 101.0329598  28.1130468 132.0675886
 100.4603565  28.7320655 131.6146357 101.6062391  28.6629829 132.6015807
 104.2526858  28.3967618 133.1984468 105.1857531  28.3313180 133.4017343
 104.1650070  29.2323885 132.7399000 106.8814874  27.7133488 130.1588415
 106.8028506  27.3793352 131.0524173 107.7024541  28.2055256 130.1579888
 101.4176396  19.4491281 129.4091938 102.3635501  19.3197489 129.4780356
 101.0390641  18.7105942 129.8861366  99.6019313  17.3741257 129.3446823
  98.6950769  17.0774370 129.4209537  99.8795294  17.0771075 128.4781109
  98.3718098  14.2328192 129.4858802  99.2337262  14.5583090 129.7454620
  98.5568442  13.4459688 128.9731868  92.3022256  22.2468786 139.6405006
  92.2792944  22.3456473 138.6886889  92.6122893  23.0933936 139.9622172
  93.3159863  29.8464560 140.7721818  93.1814331  29.0864961 140.2059816
  92.8991925  30.5705460 140.3050607 104.4518826  25.0301484 129.7798394
 105.1554676  25.2351486 130.3956049 103.7281475  25.5978246 130.0447477
 105.2816636  20.7811345 135.9000664 105.2251838  21.2379896 135.0608296
 105.8344979  20.0202029 135.7223507  96.4728989  30.7433877 140.9840261
  96.3561373  31.6879310 140.8818951  95.6521435  30.4407439 141.3726060
 106.3605523  25.4684013 131.8296854 107.1951127  25.0365211 131.6474329
 106.1989866  25.2966027 132.7573748 106.0151416  21.9716126 133.1953193
 105.9600219  21.8060398 132.2541637 105.3897471  22.6792159 133.3515383
  99.3247541  11.4724235 132.7738511  99.3126211  12.4166075 132.9306782
 100.2170963  11.2894381 132.4797973  97.4983503  31.3962139 144.1996189
  98.4010750  31.4285749 144.5162684  97.2720873  30.4662590 144.2142525
  99.2537105  30.1493126 140.8606268  98.3032736  30.1494987 140.7470640
  99.5569591  29.4025860 140.3442303 107.6566321  37.7916568 137.8510446
 107.0931186  37.7006505 137.0826734 107.5418716  36.9716473 138.3312939
 105.2030752  39.2867760 140.6894667 105.9952044  38.9458585 140.2740966
 105.4427403  39.3962735 141.6096820 113.2365879  41.4587536 133.1624911
 112.5853859  42.0441617 132.7758925 114.0310242  41.9893731 133.2219948
 107.1621506  38.5476673 133.5612045 107.9352382  38.0005660 133.4224921
 107.5146905  39.4120923 133.7726507 109.4987784  34.7069339 131.1930495
 109.7513305  34.1850861 130.4313958 108.5612343  34.5435485 131.2957179
 114.7141144  39.1477968 133.6993895 114.0786977  39.2212595 134.4114800
 114.3838551  39.7371567 133.0212975 109.2184073  36.6097445 133.3954870
 109.1020331  35.9342349 134.0635955 109.3286333  36.1229819 132.5787023
 111.5615614  36.0707592 137.1001559 111.1973821  35.5438213 137.8114481
 112.4182730  35.6806062 136.9268045 111.2021101  31.0997492 132.0962908
 111.3695503  31.9677729 132.4633379 111.0118270  31.2624774 131.1724197
 107.4108916  36.0128268 139.7965443 106.4859412  35.8804482 140.0043135
 107.6593329  36.7922487 140.2935385 111.1810322  33.5555150 133.0809575
 111.0609947  34.0012200 133.9195055 110.4862910  33.9040467 132.5223113
 104.7717727  35.6561541 140.6309232 104.9010108  35.9096020 141.5448644
 104.0915178  36.2489249 140.3113887 108.9417214  46.3258791 136.7299706
 108.8641244  47.2766617 136.8088187 108.3378857  45.9804664 137.3874632
 116.8795388  34.0276623 133.9089909 117.7913244  34.2604010 133.7337606
 116.3705035  34.6113667 133.3464987 111.0392932  38.7476849 138.5653575
 111.5031278  39.0264552 137.7758198 110.7749730  37.8460294 138.3826666
 107.9317013  38.2948331 141.5033339 108.5018370  38.7235599 140.8650823
 108.5225125  38.0130916 142.2017524 109.9761818  34.8700002 135.3743141
 110.6785861  35.3221045 135.8417067 109.6442447  34.2283821 136.0023034
 103.7187152  33.1283554 140.6760274 102.9286206  33.3841083 140.2000385
 104.2098399  33.9431892 140.7812315 105.6701897  33.4928134 137.6343751
 104.8733061  33.6046828 138.1527247 105.4427490  33.8314786 136.7684641
 102.0024855  33.3814045 143.1075265 102.2532894  34.2661055 143.3732841
 102.5384403  33.2018646 142.3350357 111.2155583  41.6840944 135.4505246
 111.0801258  42.5292480 135.8790094 111.7565395  41.8860222 134.6871180
 104.6684980  39.2016382 136.0233171 105.1809501  39.9959633 136.1738736
 105.3207693  38.5042673 135.9566772 106.4779865  42.3182139 138.1055924
 106.6546493  43.2400103 137.9176908 107.2736698  42.0040558 138.5350304
 107.6011180  43.8360312 144.1066266 108.1518605  43.7077376 143.3343260
 106.7622656  44.1355202 143.7561159 102.6333897  37.5305037 136.7992741
 103.4709119  37.9402045 136.5826449 102.8112165  36.5904479 136.7692935
 114.5298329  35.1980117 132.4876574 114.0144952  35.9684722 132.7264962
 114.2575638  34.5245254 133.1109636 112.1145440  30.0429818 137.5461813
 111.2587036  29.6536669 137.3667451 112.5272392  30.1221779 136.6861598
 119.5032603  37.9512472 134.4229748 118.7262046  37.6123632 133.9784910
 120.1824084  37.9565095 133.7484713 114.3184632  33.0707209 134.3136356
 114.0134768  33.3853359 135.1646499 115.2715074  33.1488629 134.3563689
 112.7631064  39.2297433 135.9629310 112.2352426  38.4950192 135.6502547
 112.2618567  40.0072109 135.7169278 107.4949792  29.8917099 138.3235921
 108.0693544  29.6692281 137.5909114 108.0820774  29.9605794 139.0764522
 107.8219379  31.9221560 132.3431806 106.9856691  32.2596247 132.6641081
 107.6824148  31.7870540 131.4058943 110.9083664  37.0477643 128.9664283
 110.0010726  36.8166897 129.1655432 111.4054696  36.2515262 129.1538264
 113.8151743  45.7575150 131.8860969 113.1413442  46.0606847 132.4945927
 114.2017565  46.5604231 131.5366426 113.8145248  34.6531697 136.5061318
 114.5617066  35.1653094 136.1968440 114.0836837  34.3315750 137.3665712
 112.0871898  37.1490238 133.4888273 111.1783117  36.8649271 133.5860742
 112.1166981  37.5689316 132.6291580 117.3191165  40.7596827 137.2579440
 116.8653492  39.9187737 137.3144631 116.6885132  41.3958226 137.5954220
 115.7624104  42.5973324 138.1929258 116.0547079  43.1578381 137.4741624
 116.2722725  42.8901885 138.9482417 102.6560068  34.8695752 137.4703475
 102.4584468  34.2765113 136.7454541 102.1006732  34.5647962 138.1879414
 110.6356792  34.7618859 139.5898068 110.6905402  33.8092695 139.5140545
 109.8247994  34.9178298 140.0739366 111.7847985  38.6898982 130.8276351
 111.3467415  37.9734841 130.3681989 112.5258426  38.9175096 130.2661443
 108.5749152  33.3795918 137.3488447 107.7617017  33.6790089 137.7553639
 109.0708146  32.9851607 138.0662929 110.7257730  43.3753675 139.2822712
 110.6833908  43.6014522 138.3531244 111.6420428  43.1417050 139.4308513
 108.8423530  40.2516704 139.0784674 109.6364129  39.7567024 138.8767249
 108.1315223  39.7234567 138.7152380 113.6618375  42.6334800 143.4297042
 113.7155397  43.2025736 144.1974758 112.7933156  42.8036685 143.0651079
 105.1506294  34.3959786 135.1544427 104.2203882  34.3344241 135.3714389
 105.2463766  33.8735739 134.3581068 105.0691843  30.9214599 137.7422669
 105.3298660  31.8359932 137.6331829 105.8909015  30.4539041 137.8919281
 111.4194806  40.8245726 142.7582511 111.2805892  40.4564511 143.6308449
 110.6309403  41.3393366 142.5866469 112.0142958  45.9254823 134.1008048
 112.1894714  45.4542866 134.9153671 111.3275746  46.5520589 134.3289309
 112.9700021  40.2027329 140.1471349 112.6349854  40.1628099 141.0428999
 112.4703967  39.5372045 139.6741759 115.9059213  37.5483363 130.4208409
 115.2888384  36.8230191 130.3241461 115.4375702  38.3092724 130.0775483
 106.5804044  49.0744185 140.8747908 106.8200642  49.7062710 141.5526927
 105.7373240  48.7232225 141.1613267 107.6957759  31.7668788 129.5429713
 106.8187225  31.6457588 129.1791960 108.1715512  30.9754866 129.2908602
  99.2159899  36.5545947 139.6371220  99.9030939  36.2407677 139.0492236
  99.0608028  37.4587312 139.3638472 104.0194621  31.4436144 144.0656244
 103.9352810  30.8361813 143.3306654 103.1977328  31.9345162 144.0665740
 111.0931905  44.8823308 143.2789412 111.0202077  45.6878279 143.7908717
 110.6509299  45.0815274 142.4537433 110.8821685  44.1195078 136.7892234
 110.0989207  44.6616758 136.8830458 111.5814430  44.6369058 137.1886475
 115.2748116  38.6861395 137.0064862 114.3404395  38.8062857 136.8369567
 115.4524784  37.7833861 136.7424872 110.7753304  32.0707090 139.1598124
 110.4051091  31.5178131 139.8479029 111.2712396  31.4665224 138.6073124
 108.6042502  42.5304585 146.2553142 109.3051962  43.1641068 146.4082536
 108.1337617  42.8719317 145.4948781 116.7296898  40.8722535 134.5401049
 117.0056742  40.7579130 135.4494923 115.8601397  40.4740020 134.5013222
 113.3650962  45.1208886 138.1833862 113.5473357  44.3030542 138.6461615
 114.1883948  45.3376578 137.7458752 113.6993128  44.0477071 135.4448911
 114.2280894  43.5369526 134.8319073 113.9621347  43.7319601 136.3094444
 104.2010221  42.0640940 143.1884244 104.7863657  41.3184628 143.3212148
 104.0035059  42.3744897 144.0720908 107.0548876  45.0992188 138.2046687
 106.3859251  45.5838315 137.7210727 106.9161745  45.3461408 139.1190065
  98.7927875  34.6346541 141.9088687  98.8311975  34.1010131 142.7025805
  98.2868168  34.1081746 141.2899665 111.1954144  47.1335931 144.8029345
 111.7472452  47.2967553 145.5678430 111.5360338  47.7240369 144.1309370
 102.4236453  33.3610643 134.9842619 102.7189894  32.4521321 134.9309672
 101.5224489  33.3398382 134.6623621 114.3322532  45.0817907 141.7893027
 114.2073671  44.2807647 141.2803973 114.9901623  45.5764100 141.3006997
 105.9530700  31.4366639 140.9670167 105.2317286  32.0502607 140.8277641
 106.7423956  31.9724404 140.8886813 104.1524294  31.0424740 135.1081944
 103.8237001  30.1622119 134.9257050 104.5063665  30.9872409 135.9958333
 113.4003873  42.6779643 139.6176929 113.2528836  41.7496351 139.7984499
 114.2257367  42.6999734 139.1334005 107.2666118  31.3297710 135.4757422
 107.6062190  31.8583631 134.7536030 107.7138238  31.6678116 136.2515988
 117.0037995  43.5008202 140.7041802 117.9284543  43.2951063 140.5666253
 116.8353299  43.2524603 141.6131144 109.2534265  29.8272332 133.6750714
 109.9742627  30.2053585 133.1714431 108.6299569  30.5461209 133.7785692
 113.3965388  30.5317481 134.6109047 113.6129002  31.4142119 134.3097875
 112.9159455  30.1403694 133.8814689 108.1364609  33.4903194 141.1879791
 107.9909190  33.8043497 142.0804073 107.6589813  34.1088094 140.6350690
 116.7933311  44.0193869 136.0603894 116.9670189  43.4540292 135.3077746
 117.2862203  44.8194764 135.8783384 102.6110271  36.0308538 144.1267452
 102.0663739  36.8068346 144.2587727 103.4889621  36.3779343 143.9686574
 109.3997888  29.3620122 136.5048251 109.5213799  28.4336768 136.7039138
 109.1099930  29.3758808 135.5926566 117.7808484  43.3360634 133.1600792
 118.4759388  43.9567326 133.3788107 118.1231634  42.4855985 133.4353170
 103.3976293  35.1578435 147.0197609 102.6558029  35.3061070 147.6062240
 103.0769037  35.4186700 146.1564359 119.6799907  40.7860339 134.6888123
 120.2051231  41.1247612 133.9637443 119.5922260  39.8507355 134.5051257
 111.3640568  46.8532323 139.0483376 110.9245558  46.3608701 139.7416233
 112.1148685  46.3105290 138.8075451 103.8432907  43.0443863 139.0508004
 104.6690927  42.7447635 138.6706647 103.4926959  42.2751486 139.4997793
 108.8114440  42.3970332 141.1205678 108.1894449  41.7341037 140.8207905
 109.4819307  42.4231464 140.4379325 102.0441512  40.9630190 140.0096938
 101.2073420  40.5352364 139.8280939 102.0165157  41.1562633 140.9467729
 108.3727947  40.9474255 134.5964138 108.5216067  41.6309719 133.9430811
 109.1794390  40.9279345 135.1113594 106.1280580  36.9739433 135.6025207
 105.8826622  36.0701763 135.8005417 106.2976494  36.9756583 134.6604685
 105.3976227  32.7067790 133.1011368 104.7045472  32.7812145 132.4451404
 105.1527979  31.9428134 133.6232885 111.8723352  43.4422385 132.0675886
 111.2997319  44.0612573 131.6146357 112.4456146  43.9921747 132.6015807
 115.0920612  43.7259536 133.1984468 116.0251285  43.6605097 133.4017343
 115.0043825  44.5615802 132.7399000 117.7208629  43.0425406 130.1588415
 117.6422260  42.7085270 131.0524173 118.5418296  43.5347174 130.1579888
 112.2570151  34.7783198 129.4091938 113.2029256  34.6489406 129.4780356
 111.8784396  34.0397860 129.8861366 110.4413068  32.7033175 129.3446823
 109.5344523  32.4066287 129.4209537 110.7189049  32.4062993 128.4781109
 101.3591008  34.0239538 139.7945870 101.0393793  33.1704846 139.5020244
 100.8124437  34.2388116 140.5503837 105.1370916  36.7401979 143.5115376
 105.3556926  37.6719087 143.5303410 105.5496690  36.3809953 144.2970180
 109.2111853  29.5620110 129.4858802 110.0731017  29.8875008 129.7454620
 109.3962197  28.7751606 128.9731868 101.2279268  37.6442449 141.7638991
 100.5342740  37.2296402 141.2508946 101.9752259  37.6862986 141.1672410
 103.1416011  37.5760703 139.6405006 103.1186699  37.6748391 138.6886889
 103.4516647  38.4225854 139.9622172 105.8003389  39.6336858 143.7551621
 106.7546642  39.6020801 143.6881552 105.6015912  39.1727482 144.5701846
 106.3902771  38.2037974 146.3222418 107.2095660  38.6982053 146.3457255
 106.6639579  37.2869942 146.2939986 104.1553618  45.1756478 140.7721818
 104.0208085  44.4156879 140.2059816 103.7385680  45.8997378 140.3050607
 115.2912581  40.3593401 129.7798394 115.9948431  40.5643404 130.3956049
 114.5675229  40.9270163 130.0447477 116.1210391  36.1103263 135.9000664
 116.0645592  36.5671814 135.0608296 116.6738733  35.3493947 135.7223507
 107.3122743  46.0725795 140.9840261 107.1955128  47.0171227 140.8818951
 106.4915190  45.7699356 141.3726060 117.1999278  40.7975931 131.8296854
 118.0344882  40.3657129 131.6474329 117.0383621  40.6257944 132.7573748
 116.8545170  37.3008044 133.1953193 116.7993974  37.1352315 132.2541637
 116.2291225  38.0084077 133.3515383 110.1641296  26.8016153 132.7738511
 110.1519965  27.7457993 132.9306782 111.0564717  26.6186298 132.4797973
 108.3377258  46.7254057 144.1996189 109.2404504  46.7577667 144.5162684
 108.1114628  45.7954508 144.2142525 110.0930860  45.4785043 140.8606268
 109.1426491  45.4786905 140.7470640 110.3963346  44.7317778 140.3442303
 118.4960075  53.1208486 137.8510446 117.9324940  53.0298423 137.0826734
 118.3812470  52.3008391 138.3312939 116.0424507  54.6159678 140.6894667
 116.8345799  54.2750502 140.2740966 116.2821157  54.7254653 141.6096820
 124.0759634  56.7879454 133.1624911 123.4247613  57.3733534 132.7758925
 124.8703997  57.3185649 133.2219948 118.0015261  53.8768591 133.5612045
 118.7746137  53.3297578 133.4224921 118.3540660  54.7412840 133.7726507
 120.3381539  50.0361257 131.1930495 120.5907059  49.5142778 130.4313958
 119.4006098  49.8727403 131.2957179 125.5534899  54.4769886 133.6993895
 124.9180732  54.5504512 134.4114800 125.2232305  55.0663485 133.0212975
 120.0577827  51.9389363 133.3954870 119.9414086  51.2634266 134.0635955
 120.1680087  51.4521737 132.5787023 122.4009368  51.3999510 137.1001559
 122.0367576  50.8730131 137.8114481 123.2576484  51.0097979 136.9268045
 122.0414855  46.4289410 132.0962908 122.2089258  47.2969646 132.4633379
 121.8512024  46.5916692 131.1724197 118.2502670  51.3420186 139.7965443
 117.3253166  51.2096400 140.0043135 118.4987083  52.1214405 140.2935385
 122.0204076  48.8847067 133.0809575 121.9003701  49.3304118 133.9195055
 121.3256665  49.2332385 132.5223113 115.6111481  50.9853459 140.6309232
 115.7403862  51.2387938 141.5448644 114.9308932  51.5781167 140.3113887
 119.7810968  61.6550709 136.7299706 119.7034998  62.6058534 136.8088187
 119.1772612  61.3096582 137.3874632 127.7189142  49.3568541 133.9089909
 128.6306999  49.5895927 133.7337606 127.2098789  49.9405585 133.3464987
 121.8786687  54.0768767 138.5653575 122.3425032  54.3556470 137.7758198
 121.6143485  53.1752212 138.3826666 118.7710768  53.6240249 141.5033339
 119.3412125  54.0527517 140.8650823 119.3618879  53.3422833 142.2017524
 120.8155573  50.1991919 135.3743141 121.5179616  50.6512963 135.8417067
 120.4836201  49.5575738 136.0023034 114.5580907  48.4575472 140.6760274
 113.7679961  48.7133001 140.2000385 115.0492154  49.2723810 140.7812315
 116.5095652  48.8220051 137.6343751 115.7126815  48.9338746 138.1527247
 116.2821244  49.1606704 136.7684641 112.8418610  48.7105963 143.1075265
 113.0926648  49.5952972 143.3732841 113.3778158  48.5310564 142.3350357
 122.0549337  57.0132862 135.4505246 121.9195012  57.8584398 135.8790094
 122.5959150  57.2152140 134.6871180 115.5078735  54.5308300 136.0233171
 116.0203255  55.3251550 136.1738736 116.1601447  53.8334591 135.9566772
 117.3173619  57.6474056 138.1055924 117.4940248  58.5692021 137.9176908
 118.1130453  57.3332476 138.5350304 118.4404935  59.1652230 144.1066266
 118.9912360  59.0369294 143.3343260 117.6016411  59.4647119 143.7561159
 113.4727651  52.8596954 136.7992741 114.3102873  53.2693963 136.5826449
 113.6505919  51.9196397 136.7692935 125.3692084  50.5272035 132.4876574
 124.8538707  51.2976640 132.7264962 125.0969392  49.8537171 133.1109636
 122.9539195  45.3721736 137.5461813 122.0980791  44.9828586 137.3667451
 123.3666146  45.4513697 136.6861598 130.3426358  53.2804390 134.4229748
 129.5655800  52.9415549 133.9784910 131.0217839  53.2857013 133.7484713
 125.1578387  48.3999127 134.3136356 124.8528522  48.7145276 135.1646499
 126.1108829  48.4780547 134.3563689 123.6024819  54.5589350 135.9629310
 123.0746180  53.8242110 135.6502547 123.1012321  55.3364027 135.7169278
 118.3343546  45.2209017 138.3235921 118.9087298  44.9984198 137.5909114
 118.9214529  45.2897711 139.0764522 118.6613133  47.2513478 132.3431806
 117.8250446  47.5888164 132.6641081 118.5217903  47.1162458 131.4058943
 121.7477419  52.3769561 128.9664283 120.8404480  52.1458814 129.1655432
 122.2448451  51.5807180 129.1538264 124.6545498  61.0867068 131.8860969
 123.9807196  61.3898765 132.4945927 125.0411320  61.8896148 131.5366426
 124.6539002  49.9823615 136.5061318 125.4010821  50.4945012 136.1968440
 124.9230592  49.6607668 137.3665712 122.9265652  52.4782156 133.4888273
 122.0176871  52.1941188 133.5860742 122.9560736  52.8981234 132.6291580
 128.1584920  56.0888745 137.2579440 127.7047247  55.2479655 137.3144631
 127.5278886  56.7250143 137.5954220 126.6017859  57.9265242 138.1929258
 126.8940833  58.4870299 137.4741624 127.1116479  58.2193803 138.9482417
 113.4953823  50.1987670 137.4703475 113.2978222  49.6057030 136.7454541
 112.9400487  49.8939880 138.1879414 121.4750546  50.0910776 139.5898068
 121.5299156  49.1384613 139.5140545 120.6641748  50.2470215 140.0739366
 122.6241740  54.0190899 130.8276351 122.1861170  53.3026758 130.3681989
 123.3652181  54.2467014 130.2661443 119.4142906  48.7087836 137.3488447
 118.6010772  49.0082007 137.7553639 119.9101900  48.3143525 138.0662929
 121.5651484  58.7045593 139.2822712 121.5227663  58.9306439 138.3531244
 122.4814183  58.4708967 139.4308513 119.6817285  55.5808622 139.0784674
 120.4757883  55.0858942 138.8767249 118.9708977  55.0526485 138.7152380
 124.5012129  57.9626717 143.4297042 124.5549152  58.5317654 144.1974758
 123.6326911  58.1328602 143.0651079 115.9900048  49.7251704 135.1544427
 115.0597636  49.6636159 135.3714389 116.0857520  49.2027656 134.3581068
 115.9085597  46.2506516 137.7422669 116.1692415  47.1651850 137.6331829
 116.7302770  45.7830959 137.8919281 122.2588561  56.1537644 142.7582511
 122.1199646  55.7856428 143.6308449 121.4703157  56.6685283 142.5866469
 122.8536713  61.2546740 134.1008048 123.0288468  60.7834784 134.9153671
 122.1669501  61.8812507 134.3289309 123.8093776  55.5319247 140.1471349
 123.4743609  55.4920017 141.0428999 123.3097722  54.8663962 139.6741759
 126.7452968  52.8775281 130.4208409 126.1282138  52.1522109 130.3241461
 126.2769456  53.6384641 130.0775483 117.4197798  64.4036103 140.8747908
 117.6594396  65.0354627 141.5526927 116.5766995  64.0524143 141.1613267
 118.5351514  47.0960705 129.5429713 117.6580980  46.9749506 129.1791960
 119.0109267  46.3046784 129.2908602 110.0553654  51.8837865 139.6371220
 110.7424693  51.5699595 139.0492236 109.9001782  52.7879230 139.3638472
 114.8588376  46.7728062 144.0656244 114.7746565  46.1653731 143.3306654
 114.0371082  47.2637080 144.0665740 121.9325660  60.2115226 143.2789412
 121.8595831  61.0170197 143.7908717 121.4903053  60.4107191 142.4537433
 121.7215440  59.4486996 136.7892234 120.9382961  59.9908676 136.8830458
 122.4208185  59.9660975 137.1886475 126.1141870  54.0153312 137.0064862
 125.1798149  54.1354775 136.8369567 126.2918539  53.1125779 136.7424872
 121.6147058  47.3999008 139.1598124 121.2444846  46.8470048 139.8479029
 122.1106151  46.7957142 138.6073124 119.4436257  57.8596503 146.2553142
 120.1445716  58.4932986 146.4082536 118.9731372  58.2011235 145.4948781
 127.5690653  56.2014453 134.5401049 127.8450497  56.0871047 135.4494923
 126.6995152  55.8031938 134.5013222 124.2044717  60.4500804 138.1833862
 124.3867111  59.6322460 138.6461615 125.0277703  60.6668496 137.7458752
 124.5386882  59.3768989 135.4448911 125.0674649  58.8661443 134.8319073
 124.8015102  59.0611519 136.3094444 115.0403975  57.3932858 143.1884244
 115.6257412  56.6476546 143.3212148 114.8428813  57.7036815 144.0720908
 117.8942630  60.4284105 138.2046687 117.2253006  60.9130233 137.7210727
 117.7555500  60.6753326 139.1190065 109.6321630  49.9638458 141.9088687
 109.6705729  49.4302049 142.7025805 109.1261923  49.4373664 141.2899665
 122.0347899  62.4627849 144.8029345 122.5866207  62.6259471 145.5678430
 122.3754092  63.0532287 144.1309370 113.2630207  48.6902560 134.9842619
 113.5583648  47.7813239 134.9309672 112.3618243  48.6690300 134.6623621
 125.1716286  60.4109825 141.7893027 125.0467426  59.6099564 141.2803973
 125.8295377  60.9056018 141.3006997 116.7924454  46.7658557 140.9670167
 116.0711040  47.3794525 140.8277641 117.5817710  47.3016322 140.8886813
 114.9918049  46.3716658 135.1081944 114.6630755  45.4914037 134.9257050
 115.3457420  46.3164327 135.9958333 124.2397628  58.0071561 139.6176929
 124.0922590  57.0788268 139.7984499 125.0651121  58.0291652 139.1334005
 118.1059872  46.6589628 135.4757422 118.4455945  47.1875549 134.7536030
 118.5531993  46.9970034 136.2515988 127.8431750  58.8300120 140.7041802
 128.7678297  58.6242981 140.5666253 127.6747053  58.5816521 141.6131144
 120.0928019  45.1564250 133.6750714 120.8136382  45.5345502 133.1714431
 119.4693323  45.8753126 133.7785692 124.2359142  45.8609398 134.6109047
 124.4522757  46.7434036 134.3097875 123.7553209  45.4695612 133.8814689
 118.9758364  48.8195112 141.1879791 118.8302944  49.1335415 142.0804073
 118.4983567  49.4380012 140.6350690 127.6327066  59.3485787 136.0603894
 127.8063943  58.7832209 135.3077746 128.1255957  60.1486682 135.8783384
 113.4504026  51.3600456 144.1267452 112.9057494  52.1360264 144.2587727
 114.3283376  51.7071261 143.9686574 120.2391642  44.6912040 136.5048251
 120.3607554  43.7628686 136.7039138 119.9493685  44.7050726 135.5926566
 128.6202238  58.6652551 133.1600792 129.3153143  59.2859244 133.3788107
 128.9625388  57.8147903 133.4353170 114.2370048  50.4870352 147.0197609
 113.4951784  50.6352988 147.6062240 113.9162792  50.7478618 146.1564359
 130.5193661  56.1152257 134.6888123 131.0444986  56.4539530 133.9637443
 130.4316014  55.1799272 134.5051257 122.2034322  62.1824240 139.0483376
 121.7639313  61.6900619 139.7416233 122.9542439  61.6397208 138.8075451
 114.6826661  58.3735781 139.0508004 115.5084681  58.0739553 138.6706647
 114.3320713  57.6043404 139.4997793 119.6508194  57.7262249 141.1205678
 119.0288204  57.0632954 140.8207905 120.3213061  57.7523381 140.4379325
 112.8835266  56.2922108 140.0096938 112.0467175  55.8644282 139.8280939
 112.8558912  56.4854551 140.9467729 119.2121701  56.2766173 134.5964138
 119.3609822  56.9601637 133.9430811 120.0188145  56.2571263 135.1113594
 116.9674334  52.3031350 135.6025207 116.7220376  51.3993680 135.8005417
 117.1370249  52.3048501 134.6604685 116.2369982  48.0359708 133.1011368
 115.5439227  48.1104063 132.4451404 115.9921734  47.2720052 133.6232885
 122.7117107  58.7714303 132.0675886 122.1391074  59.3904490 131.6146357
 123.2849900  59.3213665 132.6015807 125.9314367  59.0551453 133.1984468
 126.8645040  58.9897015 133.4017343 125.8437579  59.8907720 132.7399000
 128.5602383  58.3717324 130.1588415 128.4816015  58.0377187 131.0524173
 129.3812050  58.8639091 130.1579888 123.0963905  50.1075116 129.4091938
 124.0423010  49.9781324 129.4780356 122.7178150  49.3689778 129.8861366
 121.2806822  48.0325092 129.3446823 120.3738278  47.7358205 129.4209537
 121.5582803  47.7354910 128.4781109 112.1984763  49.3531456 139.7945870
 111.8787547  48.4996764 139.5020244 111.6518191  49.5680034 140.5503837
 115.9764670  52.0693897 143.5115376 116.1950680  53.0011004 143.5303410
 116.3890444  51.7101871 144.2970180 120.0505607  44.8912027 129.4858802
 120.9124771  45.2166926 129.7454620 120.2355951  44.1043523 128.9731868
 112.0673023  52.9734367 141.7638991 111.3736494  52.5588320 141.2508946
 112.8146014  53.0154904 141.1672410 113.9809765  52.9052621 139.6405006
 113.9580453  53.0040308 138.6886889 114.2910402  53.7517772 139.9622172
 116.6397143  54.9628776 143.7551621 117.5940397  54.9312718 143.6881552
 116.4409667  54.5019400 144.5701846 117.2296525  53.5329892 146.3222418
 118.0489414  54.0273971 146.3457255 117.5033333  52.6161860 146.2939986
 114.9947372  60.5048395 140.7721818 114.8601840  59.7448796 140.2059816
 114.5779434  61.2289295 140.3050607 126.1306335  55.6885319 129.7798394
 126.8342185  55.8935321 130.3956049 125.4068984  56.2562081 130.0447477
 126.9604145  51.4395180 135.9000664 126.9039347  51.8963732 135.0608296
 127.5132488  50.6785865 135.7223507 118.1516498  61.4017712 140.9840261
 118.0348882  62.3463145 140.8818951 117.3308944  61.0991274 141.3726060
 128.0393032  56.1267848 131.8296854 128.8738636  55.6949047 131.6474329
 127.8777375  55.9549862 132.7573748 127.6938925  52.6299961 133.1953193
 127.6387728  52.4644233 132.2541637 127.0684980  53.3375994 133.3515383
 121.0035050  42.1308070 132.7738511 120.9913720  43.0749910 132.9306782
 121.8958472  41.9478216 132.4797973 119.1771012  62.0545974 144.1996189
 120.0798259  62.0869585 144.5162684 118.9508382  61.1246425 144.2142525
 120.9324614  60.8076961 140.8606268 119.9820245  60.8078823 140.7470640
 121.2357100  60.0609695 140.3442303 129.3353830  68.4500404 137.8510446
 128.7718695  68.3590341 137.0826734 129.2206225  67.6300308 138.3312939
 126.8818261  69.9451595 140.6894667 127.6739553  69.6042420 140.2740966
 127.1214912  70.0546570 141.6096820 134.9153388  72.1171372 133.1624911
 134.2641368  72.7025452 132.7758925 135.7097751  72.6477566 133.2219948
 128.8409015  69.2060509 133.5612045 129.6139891  68.6589496 133.4224921
 129.1934414  70.0704758 133.7726507 131.1775293  65.3653175 131.1930495
 131.4300814  64.8434696 130.4313958 130.2399852  65.2019320 131.2957179
 136.3928653  69.8061803 133.6993895 135.7574486  69.8796430 134.4114800
 136.0626060  70.3955402 133.0212975 130.8971582  67.2681281 133.3954870
 130.7807840  66.5926184 134.0635955 131.0073842  66.7813655 132.5787023
 133.2403123  66.7291428 137.1001559 132.8761330  66.2022049 137.8114481
 134.0970239  66.3389897 136.9268045 132.8808610  61.7581328 132.0962908
 133.0483012  62.6261564 132.4633379 132.6905779  61.9208609 131.1724197
 129.0896425  66.6712103 139.7965443 128.1646921  66.5388317 140.0043135
 129.3380838  67.4506323 140.2935385 132.8597831  64.2138985 133.0809575
 132.7397456  64.6596036 133.9195055 132.1650419  64.5624303 132.5223113
 126.4505236  66.3145377 140.6309232 126.5797617  66.5679856 141.5448644
 125.7702687  66.9073085 140.3113887 130.6204723  76.9842627 136.7299706
 130.5428753  77.9350452 136.8088187 130.0166366  76.6388499 137.3874632
 138.5582897  64.6860458 133.9089909 139.4700753  64.9187845 133.7337606
 138.0492544  65.2697502 133.3464987 132.7180441  69.4060685 138.5653575
 133.1818787  69.6848388 137.7758198 132.4537239  68.5044129 138.3826666
 129.6104522  68.9532166 141.5033339 130.1805879  69.3819435 140.8650823
 130.2012634  68.6714751 142.2017524 131.6549327  65.5283837 135.3743141
 132.3573370  65.9804881 135.8417067 131.3229956  64.8867656 136.0023034
 125.3974661  63.7867390 140.6760274 124.6073715  64.0424918 140.2000385
 125.8885908  64.6015728 140.7812315 127.3489406  64.1511969 137.6343751
 126.5520570  64.2630663 138.1527247 127.1214999  64.4898621 136.7684641
 123.6812364  64.0397880 143.1075265 123.9320402  64.9244890 143.3732841
 124.2171912  63.8602482 142.3350357 132.8943092  72.3424780 135.4505246
 132.7588767  73.1876315 135.8790094 133.4352904  72.5444057 134.6871180
 126.3472489  69.8600218 136.0233171 126.8597010  70.6543468 136.1738736
 126.9995202  69.1626508 135.9566772 128.1567374  72.9765974 138.1055924
 128.3334002  73.8983939 137.9176908 128.9524207  72.6624393 138.5350304
 124.3121406  68.1888872 136.7992741 125.1496628  68.5985880 136.5826449
 124.4899674  67.2488314 136.7692935 136.2085838  65.8563953 132.4876574
 135.6932461  66.6268557 132.7264962 135.9363146  65.1829089 133.1109636
 133.7932949  60.7013654 137.5461813 132.9374545  60.3120504 137.3667451
 134.2059901  60.7805614 136.6861598 141.1820112  68.6096307 134.4229748
 140.4049555  68.2707467 133.9784910 141.8611593  68.6148931 133.7484713
 135.9972141  63.7291045 134.3136356 135.6922277  64.0437194 135.1646499
 136.9502583  63.8072465 134.3563689 134.4418573  69.8881268 135.9629310
 133.9139935  69.1534028 135.6502547 133.9406076  70.6655944 135.7169278
 129.1737301  60.5500934 138.3235921 129.7481053  60.3276116 137.5909114
 129.7608283  60.6189629 139.0764522 129.5006888  62.5805395 132.3431806
 128.6644200  62.9180082 132.6641081 129.3611657  62.4454375 131.4058943
 132.5871173  67.7061478 128.9664283 131.6798235  67.4750732 129.1655432
 133.0842205  66.9099098 129.1538264 135.4939252  76.4158986 131.8860969
 134.8200951  76.7190682 132.4945927 135.8805074  77.2188066 131.5366426
 135.4932756  65.3115533 136.5061318 136.2404575  65.8236930 136.1968440
 135.7624346  64.9899585 137.3665712 133.7659407  67.8074073 133.4888273
 132.8570626  67.5233106 133.5860742 133.7954490  68.2273152 132.6291580
 138.9978674  71.4180663 137.2579440 138.5441001  70.5771573 137.3144631
 138.3672641  72.0542061 137.5954220 137.4411613  73.2557159 138.1929258
 137.7334588  73.8162217 137.4741624 137.9510234  73.5485720 138.9482417
 124.3347577  65.5279587 137.4703475 124.1371977  64.9348948 136.7454541
 123.7794241  65.2231798 138.1879414 132.3144301  65.4202694 139.5898068
 132.3692910  64.4676530 139.5140545 131.5035503  65.5762133 140.0739366
 133.4635494  69.3482817 130.8276351 133.0254924  68.6318676 130.3681989
 134.2045935  69.5758932 130.2661443 130.2536661  64.0379754 137.3488447
 129.4404526  64.3373924 137.7553639 130.7495655  63.6435442 138.0662929
 132.4045239  74.0337511 139.2822712 132.3621417  74.2598357 138.3531244
 133.3207937  73.8000885 139.4308513 130.5211039  70.9100540 139.0784674
 131.3151638  70.4150860 138.8767249 129.8102732  70.3818403 138.7152380
 126.8293803  65.0543621 135.1544427 125.8991391  64.9928077 135.3714389
 126.9251275  64.5319574 134.3581068 126.7479352  61.5798434 137.7422669
 127.0086169  62.4943767 137.6331829 127.5696524  61.1122877 137.8919281
 133.6930467  76.5838658 134.1008048 133.8682223  76.1126701 134.9153671
 133.0063255  77.2104424 134.3289309 134.6487530  70.8611164 140.1471349
 134.3137363  70.8211934 141.0428999 134.1491476  70.1955880 139.6741759
 137.5846722  68.2067199 130.4208409 136.9675893  67.4814027 130.3241461
 137.1163211  68.9676559 130.0775483 129.3745268  62.4252623 129.5429713
 128.4974734  62.3041424 129.1791960 129.8503021  61.6338701 129.2908602
 120.8947408  67.2129783 139.6371220 121.5818448  66.8991513 139.0492236
 120.7395537  68.1171147 139.3638472 125.6982130  62.1019979 144.0656244
 125.6140319  61.4945649 143.3306654 124.8764837  62.5928997 144.0665740
 132.5609194  74.7778913 136.7892234 131.7776716  75.3200593 136.8830458
 133.2601939  75.2952893 137.1886475 136.9535625  69.3445230 137.0064862
 136.0191904  69.4646692 136.8369567 137.1312293  68.4417697 136.7424872
 132.4540813  62.7290926 139.1598124 132.0838600  62.1761966 139.8479029
 132.9499905  62.1249059 138.6073124 138.4084407  71.5306371 134.5401049
 138.6844251  71.4162965 135.4494923 137.5388906  71.1323855 134.5013222
 135.0438471  75.7792721 138.1833862 135.2260866  74.9614377 138.6461615
 135.8671457  75.9960414 137.7458752 135.3780637  74.7060906 135.4448911
 135.9068403  74.1953361 134.8319073 135.6408856  74.3903437 136.3094444
 125.8797730  72.7224776 143.1884244 126.4651166  71.9768464 143.3212148
 125.6822568  73.0328732 144.0720908 128.7336385  75.7576023 138.2046687
 128.0646760  76.2422151 137.7210727 128.5949254  76.0045244 139.1190065
 120.4715384  65.2930376 141.9088687 120.5099484  64.7593967 142.7025805
 119.9655677  64.7665581 141.2899665 124.1023962  64.0194478 134.9842619
 124.3977403  63.1105157 134.9309672 123.2011998  63.9982218 134.6623621
 127.6318209  62.0950475 140.9670167 126.9104795  62.7086442 140.8277641
 128.4211465  62.6308240 140.8886813 125.8311803  61.7008576 135.1081944
 125.5024510  60.8205955 134.9257050 126.1851174  61.6456244 135.9958333
 135.0791382  73.3363479 139.6176929 134.9316345  72.4080186 139.7984499
 135.9044876  73.3583569 139.1334005 128.9453627  61.9881546 135.4757422
 129.2849699  62.5167467 134.7536030 129.3925747  62.3261952 136.2515988
 130.9321774  60.4856167 133.6750714 131.6530136  60.8637420 133.1714431
 130.3087078  61.2045044 133.7785692 135.0752897  61.1901316 134.6109047
 135.2916511  62.0725954 134.3097875 134.5946964  60.7987530 133.8814689
 129.8152118  64.1487029 141.1879791 129.6696699  64.4627332 142.0804073
 129.3377322  64.7671930 140.6350690 138.4720820  74.6777705 136.0603894
 138.6457698  74.1124127 135.3077746 138.9649712  75.4778600 135.8783384
 124.2897780  66.6892374 144.1267452 123.7451248  67.4652182 144.2587727
 125.1677130  67.0363178 143.9686574 131.0785397  60.0203958 136.5048251
 131.2001308  59.0920604 136.7039138 130.7887439  60.0342644 135.5926566
 139.4595993  73.9944469 133.1600792 140.1546897  74.6151162 133.3788107
 139.8019143  73.1439820 133.4353170 125.0763802  65.8162270 147.0197609
 124.3345538  65.9644905 147.6062240 124.7556546  66.0770536 146.1564359
 141.3587416  71.4444175 134.6888123 141.8838740  71.7831447 133.9637443
 141.2709769  70.5091190 134.5051257 125.5220416  73.7027699 139.0508004
 126.3478436  73.4031471 138.6706647 125.1714468  72.9335321 139.4997793
 130.4901949  73.0554167 141.1205678 129.8681958  72.3924872 140.8207905
 131.1606816  73.0815299 140.4379325 123.7229021  71.6214025 140.0096938
 122.8860929  71.1936200 139.8280939 123.6952666  71.8146469 140.9467729
 130.0515456  71.6058090 134.5964138 130.2003576  72.2893555 133.9430811
 130.8581899  71.5863180 135.1113594 127.8068089  67.6323268 135.6025207
 127.5614131  66.7285598 135.8005417 127.9764003  67.6340418 134.6604685
 127.0763736  63.3651626 133.1011368 126.3832981  63.4395981 132.4451404
 126.8315488  62.6011969 133.6232885 133.5510861  74.1006221 132.0675886
 132.9784828  74.7196408 131.6146357 134.1243655  74.6505582 132.6015807
 136.7708121  74.3843371 133.1984468 137.7038794  74.3188933 133.4017343
 136.6831334  75.2199638 132.7399000 139.3996138  73.7009241 130.1588415
 139.3209769  73.3669105 131.0524173 140.2205805  74.1931009 130.1579888
 133.9357660  65.4367034 129.4091938 134.8816765  65.3073242 129.4780356
 133.5571905  64.6981695 129.8861366 132.1200577  63.3617010 129.3446823
 131.2132032  63.0650123 129.4209537 132.3976558  63.0646828 128.4781109
 123.0378517  64.6823373 139.7945870 122.7181302  63.8288682 139.5020244
 122.4911946  64.8971951 140.5503837 126.8158425  67.3985814 143.5115376
 127.0344435  68.3302922 143.5303410 127.2284199  67.0393789 144.2970180
 130.8899362  60.2203945 129.4858802 131.7518526  60.5458843 129.7454620
 131.0749706  59.4335441 128.9731868 122.9066777  68.3026285 141.7638991
 122.2130249  67.8880238 141.2508946 123.6539768  68.3446821 141.1672410
 124.8203520  68.2344539 139.6405006 124.7974208  68.3332226 138.6886889
 125.1304156  69.0809689 139.9622172 127.4790898  70.2920694 143.7551621
 128.4334151  70.2604636 143.6881552 127.2803421  69.8311317 144.5701846
 125.8341127  75.8340313 140.7721818 125.6995594  75.0740714 140.2059816
 125.4173189  76.5581213 140.3050607 136.9700090  71.0177237 129.7798394
 137.6735940  71.2227239 130.3956049 136.2462738  71.5853999 130.0447477
 137.7997900  66.7687098 135.9000664 137.7433101  67.2255649 135.0608296
 138.3526242  66.0077783 135.7223507 138.8786787  71.4559766 131.8296854
 139.7132391  71.0240964 131.6474329 138.7171130  71.2841780 132.7573748
 138.5332679  67.9591879 133.1953193 138.4781483  67.7936151 132.2541637
 137.9078734  68.6667912 133.3515383 131.8428805  57.4599988 132.7738511
 131.8307474  58.4041828 132.9306782 132.7352226  57.2770134 132.4797973
 142.0169048  80.6945092 131.1930495 142.2694568  80.1726614 130.4313958
 141.0793607  80.5311238 131.2957179 143.7202364  77.0873245 132.0962908
 143.8876767  77.9553482 132.4633379 143.5299533  77.2500527 131.1724197
 140.3400642  77.9097313 132.3431806 139.5037955  78.2472000 132.6641081
 140.2005412  77.7746293 131.4058943 143.4264928  83.0353396 128.9664283
 142.5191989  82.8042650 129.1655432 143.9235960  82.2391015 129.1538264
 140.2139022  77.7544541 129.5429713 139.3368489  77.6333341 129.1791960
 140.6896776  76.9630619 129.2908602 134.9417716  79.3486396 134.9842619
 135.2371157  78.4397074 134.9309672 134.0405752  79.3274135 134.6623621
 136.6705558  77.0300493 135.1081944 136.3418264  76.1497872 134.9257050
 137.0244929  76.9748162 135.9958333 141.7715528  75.8148085 133.6750714
 142.4923891  76.1929338 133.1714431 141.1480832  76.5336962 133.7785692
 137.9157491  78.6943543 133.1011368 137.2226736  78.7687898 132.4451404
 137.6709243  77.9303887 133.6232885 144.7751414  80.7658951 129.4091938
 145.7210519  80.6365159 129.4780356 144.3965659  80.0273613 129.8861366
 142.9594331  78.6908928 129.3446823 142.0525787  78.3942040 129.4209537
 143.2370312  78.3938746 128.4781109 141.7293116  75.5495863 129.4858802
 142.5912280  75.8750761 129.7454620 141.9143460  74.7627359 128.9731868
 142.6822559  72.7891906 132.7738511 142.6701229  73.7333746 132.9306782
 143.5745981  72.6062051 132.4797973  98.1023461   8.0028996 123.4545013
  98.0247490   8.9536821 123.5333493  97.4985104   7.6574869 124.1119939
  96.7617427   5.5130517 130.8311573  97.3124852   5.3847581 130.0588567
  95.9228903   5.8125406 130.4806466 102.9757990   7.4345355 118.6106275
 102.3019689   7.7377052 119.2191233 103.3623812   8.2374436 118.2611732
 101.1749205   7.6025028 120.8253355 101.3500961   7.1313071 121.6398977
 100.4881993   8.2290794 121.0534615  95.7410290  10.7514390 127.5993215
  95.9806889  11.3832915 128.2772233  94.8979487  10.4002430 127.8858574
 100.2538152   6.5593513 130.0034719 100.1808324   7.3648484 130.5154023
  99.8115545   6.7585479 129.1782740 100.0427932   5.7965283 123.5137540
  99.2595454   6.3386963 123.6075765 100.7420677   6.3139262 123.9131781
  96.2155123   6.7762393 124.9291993  95.5465498   7.2608520 124.4456033
  96.0767992   7.0231613 125.8435372 100.3560391   8.8106136 131.5274652
 100.9078699   8.9737758 132.2923737 100.6966585   9.4010574 130.8554676
 100.5246814   8.5302527 125.7728683 100.0851805   8.0378906 126.4661539
 101.2754931   7.9875495 125.5320758  93.0039153   4.7214068 125.7753311
  93.8297173   4.4217840 125.3951954  92.6533205   3.9521691 126.2243099
  91.2047759   2.6400395 126.7342244  90.3679667   2.2122569 126.5526245
  91.1771404   2.8332838 127.6713035  93.3159864   6.8526683 127.4967125
  93.1814332   6.0927084 126.9305123  92.8991927   7.5767583 127.0295914
  96.4728990   7.7496000 127.7085568  96.3561374   8.6941432 127.6064258
  95.6521436   7.4469561 128.0971367  97.4983504   8.4024262 130.9241496
  98.4010751   8.4347872 131.2407991  97.2720874   7.4724713 130.9387832
  99.2537106   7.1555248 127.5851575  98.3032737   7.1557110 127.4715947
  99.5569592   6.4087983 127.0687609 107.6566322  14.7978691 124.5755753
 107.0931187  14.7068628 123.8072041 107.5418717  13.9778596 125.0558245
 105.2030754  16.2929883 127.4139973 105.9952046  15.9520707 126.9986273
 105.4427404  16.4024858 128.3342127 113.2365881  18.4649659 119.8870218
 112.5853860  19.0503739 119.5004231 114.0310243  18.9955854 119.9465255
 107.1621508  15.5538796 120.2857352 107.9352384  15.0067783 120.1470228
 107.5146907  16.4183045 120.4971813 109.4987785  11.7131462 117.9175802
 109.7513306  11.1912983 117.1559265 108.5612345  11.5497607 118.0202486
 114.7141146  16.1540091 120.4239202 114.0786979  16.2274717 121.1360107
 114.3838552  16.7433690 119.7458281 109.2184074  13.6159568 120.1200177
 109.1020332  12.9404471 120.7881261 109.3286334  13.1291942 119.3032330
 111.5615615  13.0769715 123.8246866 111.1973822  12.5500336 124.5359788
 112.4182731  12.6868184 123.6513352 107.4108917  13.0190391 126.5210749
 106.4859413  12.8866605 126.7288441 107.6593330  13.7984610 127.0180692
 111.1810323  10.5617272 119.8054881 111.0609948  11.0074323 120.6440362
 110.4862911  10.9102590 119.2468420 104.7717728  12.6623664 127.3554539
 104.9010109  12.9158143 128.2693950 104.0915179  13.2551372 127.0359194
 108.9417215  23.3320914 123.4545013 108.8641245  24.2828739 123.5333493
 108.3378859  22.9866787 124.1119939 111.0392933  15.7538972 125.2898882
 111.5031279  16.0326675 124.5003505 110.7749731  14.8522417 125.1071973
 107.9317014  15.3010454 128.2278645 108.5018371  15.7297722 127.5896130
 108.5225126  15.0193038 128.9262831 109.9761819  11.8762124 122.0988447
 110.6785863  12.3283168 122.5662374 109.6442448  11.2345943 122.7268340
 103.7187153  10.1345677 127.4005581 102.9286207  10.3903206 126.9245691
 104.2098401  10.9494015 127.5057621 105.6701899  10.4990256 124.3589057
 104.8733062  10.6108951 124.8772553 105.4427491  10.8376908 123.4929948
 102.0024856  10.3876167 129.8320572 102.2532895  11.2723177 130.0978148
 102.5384405  10.2080769 129.0595663 111.2155584  18.6903067 122.1750552
 111.0801259  19.5354603 122.6035400 111.7565397  18.8922345 121.4116486
 104.6684981  16.2078505 122.7478478 105.1809502  17.0021755 122.8984042
 105.3207694  15.5104795 122.6812079 106.4779866  19.3244261 124.8301231
 106.6546494  20.2462226 124.6422215 107.2736700  19.0102681 125.2595610
 107.6011182  20.8422435 130.8311573 108.1518607  20.7139498 130.0588567
 106.7622657  21.1417324 130.4806466 102.6333898  14.5367159 123.5238048
 103.4709120  14.9464168 123.3071756 102.8112166  13.5966601 123.4938242
 114.5298330  12.2042240 119.2121881 114.0144954  12.9746845 119.4510268
 114.2575639  11.5307376 119.8354942 119.5032604  14.9574595 121.1475054
 118.7262047  14.6185754 120.7030217 120.1824085  14.9627218 120.4730020
 112.7631065  16.2359555 122.6874616 112.2352427  15.5012315 122.3747854
 112.2618568  17.0134232 122.4414584 107.8219380   8.9283683 119.0677113
 106.9856692   9.2658369 119.3886388 107.6824150   8.7932662 118.1304250
 110.9083666  14.0539766 115.6909589 110.0010727  13.8229019 115.8900738
 111.4054697  13.2577385 115.8783571 113.8151744  22.7637273 118.6106275
 113.1413443  23.0668970 119.2191233 114.2017566  23.5666353 118.2611732
 113.8145249  11.6593820 123.2306625 114.5617068  12.1715217 122.9213747
 114.0836838  11.3377873 124.0911019 112.0871899  14.1552361 120.2133579
 111.1783118  13.8711393 120.3106049 112.1166983  14.5751439 119.3536886
 117.3191166  17.7658950 123.9824747 116.8653493  16.9249860 124.0389937
 116.6885133  18.4020348 124.3199527 115.7624106  19.6035447 124.9174565
 116.0547080  20.1640504 124.1986931 116.2722726  19.8964008 125.6727724
 102.6560069  11.8757875 124.1948781 102.4584469  11.2827235 123.4699848
 102.1006733  11.5710085 124.9124720 110.6356793  11.7680981 126.3143375
 110.6905403  10.8154818 126.2385851 109.8247995  11.9240420 126.7984673
 111.7847987  15.6961104 117.5521658 111.3467417  14.9796963 117.0927295
 112.5258428  15.9237219 116.9906749 108.5749153  10.3858041 124.0733754
 107.7617018  10.6852211 124.4798946 109.0708147   9.9913730 124.7908236
 110.7257731  20.3815798 126.0068018 110.6833910  20.6076644 125.0776550
 111.6420430  20.1479172 126.1553819 108.8423532  17.2578827 125.8029981
 109.6364130  16.7629147 125.6012556 108.1315224  16.7296690 125.4397686
 113.6618376  19.6396922 130.1542349 113.7155398  20.2087859 130.9220064
 112.7933157  19.8098807 129.7896386 105.1506295  11.4021909 121.8789734
 104.2203883  11.3406364 122.0959696 105.2463767  10.8797861 121.0826375
 105.0691844   7.9276721 124.4667975 105.3298661   8.8422055 124.3577136
 105.8909016   7.4601164 124.6164588 111.4194808  17.8307849 129.4827818
 111.2805893  17.4626633 130.3553756 110.6309404  18.3455488 129.3111776
 112.0142960  22.9316945 120.8253355 112.1894715  22.4604988 121.6398977
 111.3275748  23.5582711 121.0534615 112.9700023  17.2089451 126.8716656
 112.6349855  17.1690221 127.7674306 112.4703968  16.5434167 126.3987066
 115.9059214  14.5545486 117.1453715 115.2888385  13.8292314 117.0486768
 115.4375703  15.3154846 116.8020790 106.5804045  26.0806308 127.5993215
 106.8200643  26.7124832 128.2772233 105.7373241  25.7294348 127.8858574
  99.2159900  13.5608070 126.3616527  99.9030940  13.2469800 125.7737542
  99.0608029  14.4649435 126.0883778 104.0194623   8.4498266 130.7901551
 103.9352811   7.8423936 130.0551961 103.1977329   8.9407285 130.7911047
 111.0931907  21.8885430 130.0034719 111.0202078  22.6940402 130.5154023
 110.6509300  22.0877396 129.1782740 110.8821686  21.1257200 123.5137540
 110.0989208  21.6678881 123.6075765 111.5814431  21.6431180 123.9131781
 115.2748117  15.6923517 123.7310169 114.3404396  15.8124980 123.5614873
 115.4524786  14.7895984 123.4670179 108.6042504  19.5366708 132.9798448
 109.3051963  20.1703191 133.1327842 108.1337619  19.8781440 132.2194087
 116.7296900  17.8784658 121.2646355 117.0056743  17.7641252 122.1740229
 115.8601398  17.4802143 121.2258528 113.3650964  22.1271009 124.9079169
 113.5473358  21.3092665 125.3706921 114.1883950  22.3438701 124.4704059
 113.6993129  21.0539194 122.1694217 114.2280896  20.5431648 121.5564379
 113.9621349  20.7381724 123.0339750 104.2010222  19.0703063 129.9129551
 104.7863659  18.3246751 130.0457455 104.0035060  19.3807020 130.7966215
 107.0548877  22.1054310 124.9291993 106.3859252  22.5900438 124.4456033
 106.9161747  22.3523531 125.8435372  98.7927877  11.6408663 128.6333994
  98.8311976  11.1072254 129.4271112  98.2868169  11.1143869 128.0144971
 111.1954146  24.1398054 131.5274652 111.7472454  24.3029675 132.2923737
 111.5360339  24.7302492 130.8554676 102.4236454  10.3672765 121.7087925
 102.7189895   9.4583444 121.6554979 101.5224490  10.3460505 121.3868928
 114.3322533  22.0880029 128.5138334 114.2073672  21.2869769 128.0049279
 114.9901624  22.5826223 128.0252304 105.9530701   8.4428762 127.6915474
 105.2317287   9.0564730 127.5522947 106.7423957   8.9786527 127.6132120
 104.1524296   8.0486863 121.8327251 103.8237002   7.1684242 121.6502356
 104.5063666   7.9934532 122.7203640 113.4003875  19.6841766 126.3422236
 113.2528837  18.7558473 126.5229806 114.2257368  19.7061856 125.8579311
 107.2666119   8.3359833 122.2002728 107.6062191   8.8645754 121.4781337
 107.7138239   8.6740239 122.9761295 117.0037996  20.5070324 127.4287109
 117.9284544  20.3013186 127.2911560 116.8353300  20.2586726 128.3376450
 108.1364610  10.4965317 127.9125098 107.9909191  10.8105620 128.8049379
 107.6589814  11.1150217 127.3595997 116.7933313  21.0255992 122.7849200
 116.9670190  20.4602414 122.0323053 117.2862204  21.8256887 122.6028690
 102.6110272  13.0370661 130.8512759 102.0663741  13.8130469 130.9833033
 103.4889622  13.3841465 130.6931881 117.7808485  20.3422756 119.8846099
 118.4759390  20.9629449 120.1033413 118.1231635  19.4918108 120.1598476
 103.3976294  12.1640557 133.7442916 102.6558030  12.3123193 134.3307546
 103.0769039  12.4248823 132.8809665 119.6799908  17.7922462 121.4133429
 120.2051232  18.1309735 120.6882749 119.5922261  16.8569477 121.2296564
 111.3640569  23.8594445 125.7728683 110.9245559  23.3670824 126.4661539
 112.1148686  23.3167413 125.5320758 103.8432908  20.0505986 125.7753311
 104.6690928  19.7509758 125.3951954 103.4926960  19.2813608 126.2243099
 108.8114441  19.4032454 127.8450984 108.1894450  18.7403159 127.5453212
 109.4819308  19.4293586 127.1624632 102.0441513  17.9692312 126.7342244
 101.2073421  17.5414487 126.5526245 102.0165158  18.1624756 127.6713035
 108.3727948  17.9536378 121.3209445 108.5216068  18.6371842 120.6676117
 109.1794391  17.9341468 121.8358900 106.1280581  13.9801555 122.3270514
 105.8826623  13.0763885 122.5250724 106.2976496  13.9818706 121.3849992
 105.3976229   9.7129913 119.8256675 104.7045473   9.7874268 119.1696711
 105.1527980   8.9490256 120.3478192 111.8723354  20.4484508 118.7921192
 111.2997321  21.0674695 118.3391664 112.4456147  20.9983870 119.3261114
 115.0920613  20.7321658 119.9229774 116.0251287  20.6667220 120.1262650
 115.0043826  21.5677925 119.4644307 117.7208630  20.0487529 116.8833722
 117.6422262  19.7147392 117.7769480 118.5418297  20.5409296 116.8825194
 112.2570152  11.7845321 116.1337245 113.2029257  11.6551529 116.2025663
 111.8784397  11.0459983 116.6106673 110.4413069   9.7095297 116.0692130
 109.5344525   9.4128410 116.1454843 110.7189050   9.4125115 115.2026416
 101.3591010  11.0301661 126.5191176 101.0393794  10.1766969 126.2265550
 100.8124438  11.2450239 127.2749144 105.1370917  13.7464102 130.2360683
 105.3556927  14.6781209 130.2548717 105.5496691  13.3872076 131.0215487
 101.2279270  14.6504572 128.4884298 100.5342741  14.2358525 127.9754252
 101.9752261  14.6925109 127.8917717 103.1416012  14.5822826 126.3650313
 103.1186700  14.6810513 125.4132196 103.4516649  15.4287977 126.6867479
 105.8003390  16.6398981 130.4796927 106.7546644  16.6082923 130.4126859
 105.6015914  16.1789605 131.2947153 106.3902772  15.2100097 133.0467725
 107.2095661  15.7044176 133.0702562 106.6639580  14.2932065 133.0185292
 104.1553619  22.1818600 127.4967125 104.0208087  21.4219001 126.9305123
 103.7385681  22.9059500 127.0295914 115.2912582  17.3655524 116.5043700
 115.9948432  17.5705526 117.1201356 114.5675231  17.9332286 116.7692784
 116.1210392  13.1165385 122.6245970 116.0645593  13.5733937 121.7853603
 116.6738735  12.3556070 122.4468813 107.3122745  23.0787917 127.7085568
 107.1955129  24.0233350 127.6064258 106.4915191  22.7761479 128.0971367
 117.1999279  17.8038053 118.5542160 118.0344883  17.3719252 118.3719635
 117.0383622  17.6320067 119.4819055 116.8545171  14.3070166 119.9198500
 116.7993975  14.1414438 118.9786944 116.2291227  15.0146199 120.0760689
 108.3377259  23.7316179 130.9241496 109.2404506  23.7639790 131.2407991
 108.1114629  22.8016630 130.9387832 110.0930861  22.4847166 127.5851575
 109.1426492  22.4849027 127.4715947 110.3963347  21.7379900 127.0687609
 118.4960076  30.1270609 124.5755753 117.9324941  30.0360546 123.8072041
 118.3812471  29.3070513 125.0558245 116.0424508  31.6221800 127.4139973
 116.8345800  31.2812625 126.9986273 116.2821158  31.7316775 128.3342127
 124.0759635  33.7941576 119.8870218 123.4247615  34.3795657 119.5004231
 124.8703998  34.3247771 119.9465255 118.0015262  30.8830714 120.2857352
 118.7746138  30.3359701 120.1470228 118.3540661  31.7474963 120.4971813
 120.3381540  27.0423380 117.9175802 120.5907061  26.5204901 117.1559265
 119.4006099  26.8789525 118.0202486 125.5534900  31.4832008 120.4239202
 124.9180733  31.5566635 121.1360107 125.2232307  32.0725607 119.7458281
 120.0577829  28.9451486 120.1200177 119.9414087  28.2696389 120.7881261
 120.1680089  28.4583860 119.3032330 122.4009370  28.4061633 123.8246866
 122.0367577  27.8792254 124.5359788 123.2576486  28.0160102 123.6513352
 122.0414857  23.4351532 118.8208215 122.2089259  24.3031769 119.1878686
 121.8512026  23.5978814 117.8969504 118.2502671  28.3482308 126.5210749
 117.3253168  28.2158522 126.7288441 118.4987084  29.1276527 127.0180692
 122.0204077  25.8909190 119.8054881 121.9003703  26.3366241 120.6440362
 121.3256666  26.2394508 119.2468420 115.6111482  27.9915582 127.3554539
 115.7403863  28.2450061 128.2693950 114.9308934  28.5843290 127.0359194
 119.7810970  38.6612832 123.4545013 119.7034999  39.6120657 123.5333493
 119.1772613  38.3158704 124.1119939 127.7189144  26.3630663 120.6335216
 128.6307000  26.5958050 120.4582913 127.2098791  26.9467707 120.0710294
 121.8786688  31.0830890 125.2898882 122.3425033  31.3618593 124.5003505
 121.6143486  30.1814334 125.1071973 118.7710769  30.6302371 128.2278645
 119.3412126  31.0589640 127.5896130 119.3618881  30.3484956 128.9262831
 120.8155574  27.2054042 122.0988447 121.5179617  27.6575086 122.5662374
 120.4836202  26.5637861 122.7268340 114.5580908  25.4637595 127.4005581
 113.7679962  25.7195123 126.9245691 115.0492155  26.2785933 127.5057621
 116.5095653  25.8282174 124.3589057 115.7126817  25.9400868 124.8772553
 116.2821245  26.1668826 123.4929948 112.8418611  25.7168085 129.8320572
 113.0926649  26.6015095 130.0978148 113.3778159  25.5372687 129.0595663
 122.0549339  34.0194985 122.1750552 121.9195013  34.8646520 122.6035400
 122.5959151  34.2214262 121.4116486 115.5078736  31.5370423 122.7478478
 116.0203256  32.3313673 122.8984042 116.1601449  30.8396713 122.6812079
 117.3173621  34.6536179 124.8301231 117.4940249  35.5754144 124.6422215
 118.1130454  34.3394598 125.2595610 118.4404936  36.1714353 130.8311573
 118.9912361  36.0431416 130.0588567 117.6016412  36.4709242 130.4806466
 113.4727653  29.8659077 123.5238048 114.3102875  30.2756085 123.3071756
 113.6505920  28.9258519 123.4938242 125.3692085  27.5334158 119.2121881
 124.8538708  28.3038762 119.4510268 125.0969393  26.8599294 119.8354942
 122.9539196  22.3783858 124.2707119 122.0980792  21.9890709 124.0912758
 123.3666148  22.4575819 123.4106905 130.3426359  30.2866512 121.1475054
 129.5655802  29.9477672 120.7030217 131.0217840  30.2919135 120.4730020
 125.1578388  25.4061250 121.0381662 124.8528524  25.7207399 121.8891805
 126.1108830  25.4842670 121.0808995 123.6024820  31.5651473 122.6874616
 123.0746181  30.8304233 122.3747854 123.1012323  32.3426149 122.4414584
 118.3343547  22.2271139 125.0481228 118.9087299  22.0046321 124.3154421
 118.9214530  22.2959834 125.8009829 118.6613135  24.2575600 119.0677113
 117.8250447  24.5950287 119.3886388 118.5217904  24.1224580 118.1304250
 121.7477420  29.3831683 115.6909589 120.8404482  29.1520937 115.8900738
 122.2448452  28.5869303 115.8783571 124.6545499  38.0929191 118.6106275
 123.9807198  38.3960887 119.2191233 125.0411321  38.8958271 118.2611732
 124.6539003  26.9885737 123.2306625 125.4010822  27.5007135 122.9213747
 124.9230593  26.6669790 124.0911019 122.9265653  29.4844278 120.2133579
 122.0176873  29.2003311 120.3106049 122.9560737  29.9043357 119.3536886
 128.1584921  33.0950868 123.9824747 127.7047248  32.2541778 124.0389937
 127.5278888  33.7312266 124.3199527 126.6017860  34.9327364 124.9174565
 126.8940834  35.4932421 124.1986931 127.1116481  35.2255925 125.6727724
 113.4953824  27.2049792 124.1948781 113.2978224  26.6119153 123.4699848
 112.9400488  26.9002003 124.9124720 121.4750547  27.0972899 126.3143375
 121.5299157  26.1446735 126.2385851 120.6641750  27.2532338 126.7984673
 122.6241741  31.0253022 117.5521658 122.1861171  30.3088881 117.0927295
 123.3652182  31.2529137 116.9906749 119.4142907  25.7149959 124.0733754
 118.6010773  26.0144129 124.4798946 119.9101902  25.3205647 124.7908236
 121.5651485  35.7107715 126.0068018 121.5227664  35.9368562 125.0776550
 122.4814184  35.4771090 126.1553819 119.6817286  32.5870744 125.8029981
 120.4757885  32.0921065 125.6012556 118.9708978  32.0588608 125.4397686
 124.5012131  34.9688840 130.1542349 124.5549153  35.5379776 130.9220064
 123.6326912  35.1390725 129.7896386 115.9900050  26.7313826 121.8789734
 115.0597638  26.6698282 122.0959696 116.0857522  26.2089779 121.0826375
 115.9085599  23.2568639 124.4667975 116.1692416  24.1713972 124.3577136
 116.7302771  22.7893082 124.6164588 122.2588562  33.1599766 129.4827818
 122.1199648  32.7918551 130.3553756 121.4703158  33.6747406 129.3111776
 122.8536714  38.2608863 120.8253355 123.0288470  37.7896906 121.6398977
 122.1669502  38.8874629 121.0534615 123.8093777  32.5381369 126.8716656
 123.4743610  32.4982139 127.7674306 123.3097723  31.8726085 126.3987066
 126.7452969  29.8837404 117.1453715 126.1282139  29.1584232 117.0486768
 126.2769457  30.6446764 116.8020790 117.4197799  41.4098226 127.5993215
 117.6594398  42.0416750 128.2772233 116.5766996  41.0586266 127.8858574
 118.5351515  24.1022828 116.2675020 117.6580981  23.9811629 115.9037266
 119.0109268  23.3108906 116.0153908 110.0553655  28.8899988 126.3616527
 110.7424695  28.5761718 125.7737542 109.9001784  29.7941352 126.0883778
 114.8588377  23.7790184 130.7901551 114.7746566  23.1715854 130.0551961
 114.0371083  24.2699202 130.7911047 121.9325661  37.2177348 130.0034719
 121.8595833  38.0232320 130.5154023 121.4903054  37.4169314 129.1782740
 121.7215441  36.4549118 123.5137540 120.9382963  36.9970798 123.6075765
 122.4208186  36.9723098 123.9131781 126.1141872  31.0215435 123.7310169
 125.1798150  31.1416897 123.5614873 126.2918540  30.1187902 123.4670179
 121.6147060  24.4061131 125.8843430 121.2444847  23.8532171 126.5724336
 122.1106152  23.8019264 125.3318430 119.4436258  34.8658626 132.9798448
 120.1445718  35.4995109 133.1327842 118.9731373  35.2073357 132.2194087
 127.5690654  33.2076575 121.2646355 127.8450498  33.0933170 122.1740229
 126.6995153  32.8094060 121.2258528 124.2044718  37.4562926 124.9079169
 124.3867113  36.6384582 125.3706921 125.0277704  37.6730619 124.4704059
 124.5386884  36.3831111 122.1694217 125.0674650  35.8723566 121.5564379
 124.8015103  36.0673642 123.0339750 115.0403976  34.3994981 129.9129551
 115.6257413  33.6538669 130.0457455 114.8428815  34.7098937 130.7966215
 117.8942632  37.4346228 124.9291993 117.2253007  37.9192356 124.4456033
 117.7555501  37.6815449 125.8435372 109.6321631  26.9700581 128.6333994
 109.6705731  26.4364172 129.4271112 109.1261924  26.4435786 128.0144971
 122.0347900  39.4689972 131.5274652 122.5866208  39.6321593 132.2923737
 122.3754094  40.0594409 130.8554676 113.2630209  25.6964683 121.7087925
 113.5583650  24.7875361 121.6554979 112.3618244  25.6752423 121.3868928
 125.1716287  37.4171947 128.5138334 125.0467427  36.6161687 128.0049279
 125.8295378  37.9118140 128.0252304 116.7924456  23.7720680 127.6915474
 116.0711041  24.3856647 127.5522947 117.5817711  24.3078444 127.6132120
 114.9918050  23.3778781 121.8327251 114.6630756  22.4976160 121.6502356
 115.3457421  23.3226449 122.7203640 124.2397629  35.0133683 126.3422236
 124.0922591  34.0850391 126.5229806 125.0651123  35.0353774 125.8579311
 118.1059873  23.6651751 122.2002728 118.4455946  24.1937672 121.4781337
 118.5531994  24.0032157 122.9761295 127.8431751  35.8362242 127.4287109
 128.7678298  35.6305104 127.2911560 127.6747054  35.5878643 128.3376450
 120.0928020  22.1626372 120.3996021 120.8136383  22.5407625 119.8959738
 119.4693325  22.8815249 120.5030999 124.2359143  22.8671521 121.3354353
 124.4522758  23.7496159 121.0343181 123.7553211  22.4757734 120.6059995
 118.9758365  25.8257234 127.9125098 118.8302945  26.1397537 128.8049379
 118.4983568  26.4442135 127.3595997 127.6327067  36.3547910 122.7849200
 127.8063945  35.7894332 122.0323053 128.1255958  37.1548804 122.6028690
 113.4504027  28.3662579 130.8512759 112.9057495  29.1422387 130.9833033
 114.3283377  28.7133383 130.6931881 120.2391644  21.6974163 123.2293558
 120.3607555  20.7690809 123.4284445 119.9493686  21.7112849 122.3171873
 128.6202240  35.6714674 119.8846099 129.3153144  36.2921367 120.1033413
 128.9625390  34.8210025 120.1598476 114.2370049  27.4932475 133.7442916
 113.4951785  27.6415110 134.3307546 113.9162793  27.7540741 132.8809665
 130.5193663  33.1214380 121.4133429 131.0444987  33.4601652 120.6882749
 130.4316015  32.1861395 121.2296564 122.2034323  39.1886363 125.7728683
 121.7639314  38.6962742 126.4661539 122.9542440  38.6459330 125.5320758
 114.6826662  35.3797904 125.7753311 115.5084682  35.0801676 125.3951954
 114.3320714  34.6105526 126.2243099 119.6508196  34.7324372 127.8450984
 119.0288205  34.0695077 127.5453212 120.3213063  34.7585504 127.1624632
 112.8835268  33.2984230 126.7342244 112.0467176  32.8706404 126.5526245
 112.8558913  33.4916673 127.6713035 119.2121703  33.2828295 121.3209445
 119.3609823  33.9663760 120.6676117 120.0188146  33.2633385 121.8358900
 116.9674336  29.3093473 122.3270514 116.7220377  28.4055803 122.5250724
 117.1370250  29.3110623 121.3849992 116.2369983  25.0421830 119.8256675
 115.5439228  25.1166185 119.1696711 115.9921735  24.2782174 120.3478192
 122.7117108  35.7776426 118.7921192 122.1391075  36.3966613 118.3391664
 123.2849902  36.3275787 119.3261114 125.9314368  36.0613576 119.9229774
 126.8645041  35.9959138 120.1262650 125.8437581  36.8969843 119.4644307
 128.5602385  35.3779446 116.8833722 128.4816016  35.0439310 117.7769480
 129.3812051  35.8701214 116.8825194 123.0963907  27.1137238 116.1337245
 124.0423011  26.9843447 116.2025663 122.7178152  26.3751900 116.6106673
 121.2806824  25.0387215 116.0692130 120.3738279  24.7420328 116.1454843
 121.5582805  24.7417033 115.2026416 112.1984764  26.3593578 126.5191176
 111.8787548  25.5058886 126.2265550 111.6518192  26.5742156 127.2749144
 115.9764672  29.0756019 130.2360683 116.1950681  30.0073127 130.2548717
 116.3890445  28.7163994 131.0215487 120.0505608  21.8974150 116.2104109
 120.9124772  22.2229048 116.4699926 120.2355952  21.1105646 115.6977175
 112.0673024  29.9796490 128.4884298 111.3736496  29.5650443 127.9754252
 112.8146015  30.0217026 127.8917717 113.9809767  29.9114744 126.3650313
 113.9580455  30.0102431 125.4132196 114.2910403  30.7579894 126.6867479
 116.6397144  31.9690899 130.4796927 117.5940398  31.9374841 130.4126859
 116.4409668  31.5081522 131.2947153 117.2296527  30.5392015 133.0467725
 118.0489416  31.0336093 133.0702562 117.5033334  29.6223983 133.0185292
 114.9947373  37.5110518 127.4967125 114.8601841  36.7510919 126.9305123
 114.5779436  38.2351418 127.0295914 126.1306336  32.6947442 116.5043700
 126.8342186  32.8997444 117.1201356 125.4068985  33.2624203 116.7692784
 126.9604147  28.4457303 122.6245970 126.9039348  28.9025854 121.7853603
 127.5132489  27.6847987 122.4468813 118.1516499  38.4079835 127.7085568
 118.0348883  39.3525268 127.6064258 117.3308945  38.1053397 128.0971367
 128.0393034  33.1329971 118.5542160 128.8738638  32.7011169 118.3719635
 127.8777377  32.9611984 119.4819055 127.6938926  29.6362084 119.9198500
 127.6387730  29.4706356 118.9786944 127.0684981  30.3438117 120.0760689
 121.0035051  19.1370193 119.4983818 120.9913721  20.0812033 119.6552089
 121.8958473  18.9540339 119.2043279 119.1771013  39.0608097 130.9241496
 120.0798260  39.0931707 131.2407991 118.9508383  38.1308548 130.9387832
 120.9324615  37.8139083 127.5851575 119.9820246  37.8140945 127.4715947
 121.2357101  37.0671818 127.0687609 129.3353831  45.4562526 124.5755753
 128.7718696  45.3652463 123.8072041 129.2206226  44.6362431 125.0558245
 126.8818263  46.9513718 127.4139973 127.6739555  46.6104543 126.9986273
 127.1214913  47.0608693 128.3342127 134.9153389  49.1233494 119.8870218
 134.2641369  49.7087575 119.5004231 135.7097752  49.6539689 119.9465255
 128.8409017  46.2122631 120.2857352 129.6139893  45.6651618 120.1470228
 129.1934416  47.0766881 120.4971813 131.1775294  42.3715297 117.9175802
 131.4300815  41.8496819 117.1559265 130.2399854  42.2081443 118.0202486
 136.3928655  46.8123926 120.4239202 135.7574488  46.8858553 121.1360107
 136.0626061  47.4017525 119.7458281 130.8971583  44.2743403 120.1200177
 130.7807841  43.5988307 120.7881261 131.0073843  43.7875777 119.3032330
 133.2403124  43.7353550 123.8246866 132.8761331  43.2084171 124.5359788
 134.0970240  43.3452019 123.6513352 132.8808611  38.7643450 118.8208215
 133.0483013  39.6323687 119.1878686 132.6905780  38.9270732 117.8969504
 129.0896426  43.6774226 126.5210749 128.1646922  43.5450440 126.7288441
 129.3380839  44.4568445 127.0180692 132.8597832  41.2201108 119.8054881
 132.7397457  41.6658158 120.6440362 132.1650420  41.5686425 119.2468420
 126.4505237  43.3207499 127.3554539 126.5797618  43.5741978 128.2693950
 125.7702688  43.9135207 127.0359194 130.6204724  53.9904749 123.4545013
 130.5428754  54.9412574 123.5333493 130.0166368  53.6450622 124.1119939
 138.5582898  41.6922581 120.6335216 139.4700754  41.9249968 120.4582913
 138.0492545  42.2759625 120.0710294 132.7180442  46.4122807 125.2898882
 133.1818788  46.6910510 124.5003505 132.4537240  45.5106252 125.1071973
 129.6104523  45.9594289 128.2278645 130.1805880  46.3881557 127.5896130
 130.2012635  45.6776874 128.9262831 131.6549328  42.5345960 122.0988447
 132.3573372  42.9867003 122.5662374 131.3229957  41.8929779 122.7268340
 125.3974662  40.7929512 127.4005581 124.6073716  41.0487041 126.9245691
 125.8885910  41.6077850 127.5057621 127.3489408  41.1574092 124.3589057
 126.5520571  41.2692786 124.8772553 127.1215000  41.4960744 123.4929948
 123.6812365  41.0460003 129.8320572 123.9320404  41.9307013 130.0978148
 124.2171914  40.8664604 129.0595663 132.8943093  49.3486902 122.1750552
 132.7588768  50.1938438 122.6035400 133.4352906  49.5506180 121.4116486
 126.3472490  46.8662340 122.7478478 126.8597011  47.6605591 122.8984042
 126.9995203  46.1688631 122.6812079 128.1567375  49.9828097 124.8301231
 128.3334003  50.9046061 124.6422215 128.9524209  49.6686516 125.2595610
 129.2798691  51.5006270 130.8311573 129.8306116  51.3723334 130.0588567
 128.4410166  51.8001159 130.4806466 124.3121407  45.1950995 123.5238048
 125.1496629  45.6048003 123.3071756 124.4899675  44.2550437 123.4938242
 136.2085839  42.8626075 119.2121881 135.6932463  43.6330680 119.4510268
 135.9363148  42.1891211 119.8354942 133.7932950  37.7075776 124.2707119
 132.9374547  37.3182627 124.0912758 134.2059902  37.7867737 123.4106905
 141.1820113  45.6158430 121.1475054 140.4049556  45.2769589 120.7030217
 141.8611594  45.6211053 120.4730020 135.9972142  40.7353167 121.0381662
 135.6922278  41.0499317 121.8891805 136.9502585  40.8134587 121.0808995
 134.4418574  46.8943391 122.6874616 133.9139936  46.1596150 122.3747854
 133.9406077  47.6718067 122.4414584 129.1737302  37.5563057 125.0481228
 129.7481054  37.3338239 124.3154421 129.7608284  37.6251752 125.8009829
 129.5006889  39.5867518 119.0677113 128.6644201  39.9242205 119.3886388
 129.3611659  39.4516498 118.1304250 132.5871174  44.7123601 115.6909589
 131.6798236  44.4812854 115.8900738 133.0842206  43.9161220 115.8783571
 135.4939253  53.4221108 118.6106275 134.8200952  53.7252805 119.2191233
 135.8805075  54.2250189 118.2611732 135.4932758  42.3177655 123.2306625
 136.2404577  42.8299052 122.9213747 135.7624347  41.9961708 124.0911019
 133.7659408  44.8136196 120.2133579 132.8570627  44.5295229 120.3106049
 133.7954492  45.2335274 119.3536886 138.9978675  48.4242785 123.9824747
 138.5441002  47.5833695 124.0389937 138.3672642  49.0604184 124.3199527
 137.4411615  50.2619282 124.9174565 137.7334589  50.8224339 124.1986931
 137.9510235  50.5547843 125.6727724 124.3347578  42.5341710 124.1948781
 124.1371978  41.9411071 123.4699848 123.7794242  42.2293920 124.9124720
 132.3144302  42.4264816 126.3143375 132.3692912  41.4738653 126.2385851
 131.5035504  42.5824256 126.7984673 133.4635496  46.3544940 117.5521658
 133.0254926  45.6380798 117.0927295 134.2045937  46.5821054 116.9906749
 130.2536662  41.0441876 124.0733754 129.4404527  41.3436047 124.4798946
 130.7495656  40.6497565 124.7908236 132.4045240  51.0399633 126.0068018
 132.3621419  51.2660479 125.0776550 133.3207939  50.8063008 126.1553819
 130.5211041  47.9162662 125.8029981 131.3151639  47.4212982 125.6012556
 129.8102733  47.3880525 125.4397686 135.3405885  50.2980758 130.1542349
 135.3942907  50.8671694 130.9220064 134.4720666  50.4682643 129.7896386
 126.8293804  42.0605744 121.8789734 125.8991392  41.9990199 122.0959696
 126.9251276  41.5381697 121.0826375 126.7479353  38.5860557 124.4667975
 127.0086170  39.5005890 124.3577136 127.5696525  38.1184999 124.6164588
 133.0982317  48.4891684 129.4827818 132.9593402  48.1210469 130.3553756
 132.3096913  49.0039324 129.3111776 133.6930469  53.5900781 120.8253355
 133.8682224  53.1188824 121.6398977 133.0063257  54.2166547 121.0534615
 134.6487532  47.8673287 126.8716656 134.3137364  47.8274057 127.7674306
 134.1491477  47.2018003 126.3987066 137.5846723  45.2129321 117.1453715
 136.9675894  44.4876149 117.0486768 137.1163212  45.9738681 116.8020790
 128.2591554  56.7390143 127.5993215 128.4988152  57.3708668 128.2772233
 127.4160750  56.3878183 127.8858574 129.3745269  39.4314745 116.2675020
 128.4974736  39.3103546 115.9037266 129.8503022  38.6400824 116.0153908
 120.8947409  44.2191905 126.3616527 121.5818449  43.9053635 125.7737542
 120.7395538  45.1233270 126.0883778 125.6982132  39.1082102 130.7901551
 125.6140320  38.5007771 130.0551961 124.8764838  39.5991120 130.7911047
 132.7719416  52.5469266 130.0034719 132.6989587  53.3524237 130.5154023
 132.3296809  52.7461232 129.1782740 132.5609195  51.7841036 123.5137540
 131.7776717  52.3262716 123.6075765 133.2601940  52.3015015 123.9131781
 136.9535626  46.3507353 123.7310169 136.0191905  46.4708815 123.5614873
 137.1312295  45.4479819 123.4670179 132.4540814  39.7353048 125.8843430
 132.0838602  39.1824089 126.5724336 132.9499907  39.1311182 125.3318430
 130.2830013  50.1950543 132.9798448 130.9839472  50.8287026 133.1327842
 129.8125128  50.5365275 132.2194087 138.4084409  48.5368493 121.2646355
 138.6844252  48.4225088 122.1740229 137.5388907  48.1385978 121.2258528
 135.0438473  52.7854844 124.9079169 135.2260867  51.9676500 125.3706921
 135.8671459  53.0022536 124.4704059 135.3780638  51.7123029 122.1694217
 135.9068404  51.2015484 121.5564379 135.6408858  51.3965559 123.0339750
 125.8797731  49.7286898 129.9129551 126.4651168  48.9830586 130.0457455
 125.6822569  50.0390855 130.7966215 128.7336386  52.7638146 124.9291993
 128.0646761  53.2484273 124.4456033 128.5949256  53.0107366 125.8435372
 120.4715386  42.2992499 128.6333994 120.5099485  41.7656089 129.4271112
 119.9655678  41.7727704 128.0144971 132.8741655  54.7981889 131.5274652
 133.4259963  54.9613511 132.2923737 133.2147848  55.3886327 130.8554676
 124.1023963  41.0256601 121.7087925 124.3977404  40.1167279 121.6554979
 123.2011999  41.0044340 121.3868928 136.0110042  52.7463865 128.5138334
 135.8861181  51.9453605 128.0049279 136.6689133  53.2410058 128.0252304
 127.6318210  39.1012597 127.6915474 126.9104796  39.7148565 127.5522947
 128.4211466  39.6370362 127.6132120 125.8311805  38.7070698 121.8327251
 125.5024511  37.8268077 121.6502356 126.1851175  38.6518367 122.7203640
 135.0791384  50.3425601 126.3422236 134.9316346  49.4142309 126.5229806
 135.9044877  50.3645692 125.8579311 128.9453628  38.9943668 122.2002728
 129.2849700  39.5229589 121.4781337 129.3925748  39.3324074 122.9761295
 138.6825505  51.1654160 127.4287109 139.6072053  50.9597021 127.2911560
 138.5140809  50.9170561 128.3376450 130.9321775  37.4918290 120.3996021
 131.6530137  37.8699543 119.8959738 130.3087079  38.2107167 120.5030999
 135.0752898  38.1963439 121.3354353 135.2916512  39.0788077 121.0343181
 134.5946965  37.8049652 120.6059995 129.8152119  41.1549152 127.9125098
 129.6696700  41.4689455 128.8049379 129.3377323  41.7734052 127.3595997
 138.4720822  51.6839827 122.7849200 138.6457699  51.1186250 122.0323053
 138.9649713  52.4840722 122.6028690 124.2897781  43.6954496 130.8512759
 123.7451249  44.4714304 130.9833033 125.1677131  44.0425301 130.6931881
 131.0785398  37.0266080 123.2293558 131.2001309  36.0982726 123.4284445
 130.7887440  37.0404766 122.3171873 139.4595994  51.0006592 119.8846099
 140.1546899  51.6213284 120.1033413 139.8019144  50.1501943 120.1598476
 125.0763803  42.8224393 133.7442916 124.3345539  42.9707028 134.3307546
 124.7556548  43.0832658 132.8809665 141.3587417  48.4506297 121.4133429
 141.8838741  48.7893570 120.6882749 141.2709770  47.5153313 121.2296564
 133.0428078  54.5178281 125.7728683 132.6033068  54.0254659 126.4661539
 133.7936195  53.9751248 125.5320758 125.5220417  50.7089821 125.7753311
 126.3478437  50.4093593 125.3951954 125.1714469  49.9397444 126.2243099
 130.4901950  50.0616290 127.8450984 129.8681959  49.3986995 127.5453212
 131.1606817  50.0877421 127.1624632 123.7229022  48.6276148 126.7342244
 122.8860930  48.1998322 126.5526245 123.6952667  48.8208591 127.6713035
 130.0515457  48.6120213 121.3209445 130.2003577  49.2955677 120.6676117
 130.8581900  48.5925303 121.8358900 127.8068090  44.6385391 122.3270514
 127.5614132  43.7347721 122.5250724 127.9764005  44.6402541 121.3849992
 127.0763738  40.3713748 119.8256675 126.3832982  40.4458103 119.1696711
 126.8315489  39.6074092 120.3478192 133.5510863  51.1068343 118.7921192
 132.9784830  51.7258531 118.3391664 134.1243656  51.6567705 119.3261114
 136.7708122  51.3905494 119.9229774 137.7038795  51.3251055 120.1262650
 136.6831335  52.2261760 119.4644307 139.3996139  50.7071364 116.8833722
 139.3209771  50.3731227 117.7769480 140.2205806  51.1993132 116.8825194
 133.9357661  42.4429156 116.1337245 134.8816766  42.3135364 116.2025663
 133.5571906  41.7043818 116.6106673 132.1200578  40.3679133 116.0692130
 131.2132034  40.0712245 116.1454843 132.3976559  40.0708951 115.2026416
 123.0378519  41.6885496 126.5191176 122.7181303  40.8350804 126.2265550
 122.4911947  41.9034074 127.2749144 126.8158426  44.4047937 130.2360683
 127.0344436  45.3365045 130.2548717 127.2284200  44.0455911 131.0215487
 130.8899363  37.2266068 116.2104109 131.7518527  37.5520966 116.4699926
 131.0749707  36.4397564 115.6977175 122.9066779  45.3088407 128.4884298
 122.2130250  44.8942360 127.9754252 123.6539770  45.3508944 127.8917717
 124.8203521  45.2406661 126.3650313 124.7974209  45.3394348 125.4132196
 125.1304158  46.0871812 126.6867479 127.4790899  47.2982816 130.4796927
 128.4334153  47.2666759 130.4126859 127.2803423  46.8373440 131.2947153
 128.0690281  45.8683932 133.0467725 128.8883170  46.3628011 133.0702562
 128.3427089  44.9515900 133.0185292 125.8341128  52.8402436 127.4967125
 125.6995596  52.0802837 126.9305123 125.4173190  53.5643336 127.0295914
 136.9700091  48.0239359 116.5043700 137.6735941  48.2289362 117.1201356
 136.2462740  48.5916121 116.7692784 137.7997901  43.7749221 122.6245970
 137.7433102  44.2317772 121.7853603 138.3526244  43.0139905 122.4468813
 128.9910254  53.7371753 127.7085568 128.8742638  54.6817185 127.6064258
 128.1702700  53.4345314 128.0971367 138.8786788  48.4621888 118.5542160
 139.7132392  48.0303087 118.3719635 138.7171131  48.2903902 119.4819055
 138.5332680  44.9654002 119.9198500 138.4781484  44.7998273 118.9786944
 137.9078736  45.6730035 120.0760689 131.8428806  34.4662111 119.4983818
 131.8307476  35.4103951 119.6552089 132.7352228  34.2832256 119.2043279
 130.0164768  54.3900015 130.9241496 130.9192014  54.4223625 131.2407991
 129.7902138  53.4600466 130.9387832 131.7718370  53.1431001 127.5851575
 130.8214001  53.1432863 127.4715947 132.0750856  52.3963736 127.0687609
 140.1747585  60.7854444 124.5755753 139.6112450  60.6944381 123.8072041
 140.0599980  59.9654349 125.0558245 137.7212017  62.2805636 127.4139973
 138.5133309  61.9396460 126.9986273 137.9608667  62.3900611 128.3342127
 145.7547144  64.4525412 119.8870218 145.1035124  65.0379492 119.5004231
 146.5491507  64.9831607 119.9465255 139.6802771  61.5414549 120.2857352
 140.4533647  60.9943536 120.1470228 140.0328170  62.4058798 120.4971813
 142.0169049  57.7007215 117.9175802 142.2694570  57.1788736 117.1559265
 141.0793608  57.5373360 118.0202486 147.2322409  62.1415844 120.4239202
 146.5968242  62.2150470 121.1360107 146.9019816  62.7309443 119.7458281
 141.7365338  59.6035321 120.1200177 141.6201596  58.9280224 120.7881261
 141.8467598  59.1167695 119.3032330 144.0796879  59.0645468 123.8246866
 143.7155086  58.5376089 124.5359788 144.9363995  58.6743937 123.6513352
 143.7202366  54.0935368 118.8208215 143.8876768  54.9615604 119.1878686
 143.5299535  54.2562650 117.8969504 139.9290180  59.0066144 126.5210749
 139.0040677  58.8742358 126.7288441 140.1774593  59.7860363 127.0180692
 143.6991586  56.5493025 119.8054881 143.5791212  56.9950076 120.6440362
 143.0044175  56.8978343 119.2468420 137.2898991  58.6499417 127.3554539
 137.4191372  58.9033896 128.2693950 136.6096443  59.2427125 127.0359194
 141.4598479  69.3196667 123.4545013 141.3822508  70.2704492 123.5333493
 140.8560122  68.9742540 124.1119939 143.5574197  61.7414725 125.2898882
 144.0212542  62.0202428 124.5003505 143.2930995  60.8398170 125.1071973
 140.4498278  61.2886207 128.2278645 141.0199635  61.7173475 127.5896130
 141.0406390  61.0068791 128.9262831 142.4943083  57.8637877 122.0988447
 143.1967126  58.3158921 122.5662374 142.1623711  57.2221696 122.7268340
 136.2368417  56.1221430 127.4005581 135.4467471  56.3778959 126.9245691
 136.7279664  56.9369768 127.5057621 138.1883162  56.4866009 124.3589057
 137.3914325  56.5984704 124.8772553 137.9608754  56.8252662 123.4929948
 134.5206120  56.3751921 129.8320572 134.7714158  57.2598930 130.0978148
 135.0565668  56.1956522 129.0595663 143.7336847  64.6778820 122.1750552
 143.5982522  65.5230356 122.6035400 144.2746660  64.8798098 121.4116486
 137.1866245  62.1954258 122.7478478 137.6990765  62.9897508 122.8984042
 137.8388958  61.4980549 122.6812079 138.9961130  65.3120014 124.8301231
 139.1727758  66.2337979 124.6422215 139.7917963  64.9978434 125.2595610
 140.1192445  66.8298188 130.8311573 140.6699870  66.7015251 130.0588567
 139.2803921  67.1293077 130.4806466 135.1515162  60.5242912 123.5238048
 135.9890384  60.9339921 123.3071756 135.3293429  59.5842355 123.4938242
 147.0479594  58.1917993 119.2121881 146.5326217  58.9622598 119.4510268
 146.7756902  57.5183129 119.8354942 144.6326705  53.0367694 124.2707119
 143.7768301  52.6474544 124.0912758 145.0453657  53.1159655 123.4106905
 146.8365897  56.0645085 121.0381662 146.5316033  56.3791234 121.8891805
 147.7896339  56.1426505 121.0808995 145.2812329  62.2235308 122.6874616
 144.7533690  61.4888068 122.3747854 144.7799832  63.0009985 122.4414584
 140.0131056  52.8854975 125.0481228 140.5874808  52.6630156 124.3154421
 140.6002039  52.9543669 125.8009829 140.3400644  54.9159436 119.0677113
 139.5037956  55.2534122 119.3886388 140.2005413  54.7808416 118.1304250
 143.4264929  60.0415519 115.6909589 142.5191991  59.8104772 115.8900738
 143.9235961  59.2453138 115.8783571 146.3333008  68.7513026 118.6106275
 145.6594707  69.0544723 119.2191233 146.7198830  69.5542106 118.2611732
 146.3326512  57.6469573 123.2306625 147.0798331  58.1590970 122.9213747
 146.6018102  57.3253626 124.0911019 144.6053162  60.1428114 120.2133579
 143.6964382  59.8587146 120.3106049 144.6348246  60.5627192 119.3536886
 135.1741333  57.8633628 124.1948781 134.9765733  57.2702988 123.4699848
 134.6187997  57.5585838 124.9124720 143.1538056  57.7556734 126.3143375
 143.2086666  56.8030571 126.2385851 142.3429258  57.9116173 126.7984673
 144.3029250  61.6836857 117.5521658 143.8648680  60.9672716 117.0927295
 145.0439691  61.9112972 116.9906749 141.0930416  56.3733794 124.0733754
 140.2798282  56.6727964 124.4798946 141.5889411  55.9789483 124.7908236
 143.2438994  66.3691551 126.0068018 143.2015173  66.5952397 125.0776550
 144.1601693  66.1354925 126.1553819 141.3604795  63.2454580 125.8029981
 142.1545394  62.7504900 125.6012556 140.6496487  62.7172443 125.4397686
 146.1799640  65.6272675 130.1542349 146.2336662  66.1963612 130.9220064
 145.3114421  65.7974560 129.7896386 137.6687559  57.3897662 121.8789734
 136.7385147  57.3282117 122.0959696 137.7645030  56.8673614 121.0826375
 137.5873108  53.9152474 124.4667975 137.8479925  54.8297808 124.3577136
 138.4090280  53.4476917 124.6164588 143.9376071  63.8183602 129.4827818
 143.7987157  63.4502386 130.3553756 143.1490667  64.3331241 129.3111776
 144.5324223  68.9192698 120.8253355 144.7075979  68.4480741 121.6398977
 143.8457011  69.5458464 121.0534615 145.4881286  63.1965205 126.8716656
 145.1531119  63.1565974 127.7674306 144.9885232  62.5309920 126.3987066
 139.0985308  72.0682061 127.5993215 139.3381907  72.7000585 128.2772233
 138.2554505  71.7170101 127.8858574 140.2139024  54.7606663 116.2675020
 139.3368490  54.6395464 115.9037266 140.6896777  53.9692741 116.0153908
 131.7341164  59.5483823 126.3616527 132.4212204  59.2345553 125.7737542
 131.5789293  60.4525188 126.0883778 136.5375886  54.4374019 130.7901551
 136.4534075  53.8299689 130.0551961 135.7158592  54.9283038 130.7911047
 143.6113170  67.8761183 130.0034719 143.5383342  68.6816155 130.5154023
 143.1690563  68.0753149 129.1782740 143.4002950  67.1132954 123.5137540
 142.6170472  67.6554634 123.6075765 144.0995695  67.6306933 123.9131781
 143.2934569  55.0644966 125.8843430 142.9232356  54.5116006 126.5724336
 143.7893661  54.4603099 125.3318430 141.1223767  65.5242461 132.9798448
 141.8233227  66.1578944 133.1327842 140.6518882  65.8657193 132.2194087
 145.8832227  68.1146762 124.9079169 146.0654622  67.2968418 125.3706921
 146.7065213  68.3314454 124.4704059 146.2174393  67.0414947 122.1694217
 146.7462159  66.5307401 121.5564379 146.4802612  66.7257477 123.0339750
 136.7191485  65.0578816 129.9129551 137.3044922  64.3122504 130.0457455
 136.5216324  65.3682773 130.7966215 139.5730140  68.0930063 124.9291993
 138.9040516  68.5776191 124.4456033 139.4343010  68.3399284 125.8435372
 131.3109140  57.6284416 128.6333994 131.3493240  57.0948007 129.4271112
 130.8049433  57.1019622 128.0144971 143.7135409  70.1273807 131.5274652
 144.2653717  70.2905428 132.2923737 144.0541603  70.7178245 130.8554676
 134.9417718  56.3548518 121.7087925 135.2371159  55.4459197 121.6554979
 134.0405753  56.3336258 121.3868928 146.8503796  68.0755782 128.5138334
 146.7254936  67.2745522 128.0049279 147.5082887  68.5701976 128.0252304
 138.4711965  54.4304515 127.6915474 137.7498550  55.0440483 127.5522947
 139.2605220  54.9662280 127.6132120 136.6705559  54.0362616 121.8327251
 136.3418265  53.1559995 121.6502356 137.0244930  53.9810285 122.7203640
 145.9185138  65.6717519 126.3422236 145.7710100  64.7434226 126.5229806
 146.7438632  65.6937609 125.8579311 139.7847382  54.3235586 122.2002728
 140.1243455  54.8521507 121.4781337 140.2319503  54.6615992 122.9761295
 141.7715529  52.8210207 120.3996021 142.4923892  53.1991460 119.8959738
 141.1480834  53.5399084 120.5030999 145.9146652  53.5255356 121.3354353
 146.1310267  54.4079994 121.0343181 145.4340720  53.1341570 120.6059995
 140.6545874  56.4841070 127.9125098 140.5090454  56.7981373 128.8049379
 140.1771077  57.1025970 127.3595997 135.1291536  59.0246414 130.8512759
 134.5845004  59.8006222 130.9833033 136.0070886  59.3717219 130.6931881
 141.9179153  52.3557998 123.2293558 142.0395064  51.4274644 123.4284445
 141.6281195  52.3696684 122.3171873 135.9157558  58.1516310 133.7442916
 135.1739294  58.2998946 134.3307546 135.5950302  58.4124576 132.8809665
 143.8821832  69.8470198 125.7728683 143.4426823  69.3546577 126.4661539
 144.6329949  69.3043166 125.5320758 136.3614171  66.0381739 125.7753311
 137.1872191  65.7385511 125.3951954 136.0108223  65.2689361 126.2243099
 141.3295705  65.3908207 127.8450984 140.7075714  64.7278912 127.5453212
 142.0000572  65.4169339 127.1624632 134.5622776  63.9568065 126.7342244
 133.7254685  63.5290240 126.5526245 134.5346422  64.1500509 127.6713035
 140.8909212  63.9412131 121.3209445 141.0397332  64.6247595 120.6676117
 141.6975655  63.9217221 121.8358900 138.6461844  59.9677308 122.3270514
 138.4007886  59.0639638 122.5250724 138.8157759  59.9694459 121.3849992
 137.9157492  55.7005666 119.8256675 137.2226737  55.7750021 119.1696711
 137.6709244  54.9366009 120.3478192 144.3904617  66.4360261 118.7921192
 143.8178584  67.0550448 118.3391664 144.9637411  66.9859623 119.3261114
 144.7751416  57.7721074 116.1337245 145.7210520  57.6427282 116.2025663
 144.3965660  57.0335736 116.6106673 142.9594333  55.6971050 116.0692130
 142.0525788  55.4004163 116.1454843 143.2370314  55.4000868 115.2026416
 133.8772273  57.0177414 126.5191176 133.5575057  56.1642722 126.2265550
 133.3305701  57.2325992 127.2749144 137.6552181  59.7339855 130.2360683
 137.8738190  60.6656962 130.2548717 138.0677954  59.3747829 131.0215487
 141.7293117  52.5557985 116.2104109 142.5912281  52.8812884 116.4699926
 141.9143461  51.7689481 115.6977175 133.7460533  60.6380325 128.4884298
 133.0524004  60.2234278 127.9754252 134.4933524  60.6800862 127.8917717
 135.6597276  60.5698579 126.3650313 135.6367964  60.6686266 125.4132196
 135.9697912  61.4163730 126.6867479 138.3184653  62.6274734 130.4796927
 139.2727907  62.5958676 130.4126859 138.1197177  62.1665358 131.2947153
 138.9084036  61.1975850 133.0467725 139.7276925  61.6919929 133.0702562
 139.1820843  60.2807818 133.0185292 136.6734882  68.1694353 127.4967125
 136.5389350  67.4094754 126.9305123 136.2566945  68.8935253 127.0295914
 139.8304008  69.0663670 127.7085568 139.7136392  70.0109103 127.6064258
 139.0096454  68.7637232 128.0971367 142.6822560  49.7954028 119.4983818
 142.6701230  50.7395868 119.6552089 143.5745982  49.6124174 119.2043279
 140.8558522  69.7191932 130.9241496 141.7585769  69.7515543 131.2407991
 140.6295892  68.7892383 130.9387832 142.6112124  68.4722919 127.5851575
 141.6607755  68.4724780 127.4715947 142.9144610  67.7255653 127.0687609
 147.0762171  71.4513348 127.4005581 146.2861225  71.7070876 126.9245691
 147.5673419  72.2661686 127.5057621 145.3599874  71.7043838 129.8320572
 145.6107913  72.5890848 130.0978148 145.8959423  71.5248440 129.0595663
 145.9908916  75.8534830 123.5238048 146.8284138  76.2631838 123.3071756
 146.1687184  74.9134272 123.4938242 146.0135087  73.1925545 124.1948781
 145.8159487  72.5994906 123.4699848 145.4581751  72.8877756 124.9124720
 142.5734918  74.8775741 126.3616527 143.2605958  74.5637471 125.7737542
 142.4183047  75.7817105 126.0883778 147.3769641  69.7665937 130.7901551
 147.2927829  69.1591607 130.0551961 146.5552347  70.2574955 130.7911047
 142.1502894  72.9576334 128.6333994 142.1886994  72.4239925 129.4271112
 141.6443187  72.4311539 128.0144971 145.7811472  71.6840436 121.7087925
 146.0764913  70.7751114 121.6554979 144.8799508  71.6628176 121.3868928
 145.9685290  74.3538332 130.8512759 145.4238758  75.1298140 130.9833033
 146.8464640  74.7009136 130.6931881 146.7551312  73.4808228 133.7442916
 146.0133048  73.6290863 134.3307546 146.4344057  73.7416494 132.8809665
 145.4016531  79.2859983 126.7342244 144.5648439  78.8582158 126.5526245
 145.3740176  79.4792427 127.6713035 144.7166028  72.3469331 126.5191176
 144.3968812  71.4934639 126.2265550 144.1699456  72.5617909 127.2749144
 144.5854288  75.9672243 128.4884298 143.8917759  75.5526196 127.9754252
 145.3327279  76.0092779 127.8917717 146.4991030  75.8990497 126.3650313
 146.4761718  75.9978184 125.4132196 146.8091667  76.7455647 126.6867479
 147.5128637  83.4986271 127.4967125 147.3783105  82.7386672 126.9305123
 147.0960699  84.2227171 127.0295914 119.7810971  15.6674954 110.1790319
 119.7035001  16.6182779 110.2578800 119.1772614  15.3220827 110.8365246
 118.4404937  13.1776475 117.5556880 118.9912362  13.0493539 116.7833874
 117.6016413  13.4771364 117.2051772 124.6545500  15.0991313 105.3351582
 123.9807199  15.4023010 105.9436540 125.0411322  15.9020393 104.9857039
 122.8536715  15.2670986 107.5498661 123.0288471  14.7959029 108.3644284
 122.1669503  15.8936752 107.7779922 117.4197801  18.4160348 114.3238521
 117.6594399  19.0478872 115.0017540 116.5766997  18.0648388 114.6103881
 121.9325662  14.2239471 116.7280025 121.8595834  15.0294442 117.2399330
 121.4903056  14.4231437 115.9028047 121.7215442  13.4611241 110.2382847
 120.9382964  14.0032921 110.3321071 122.4208187  13.9785220 110.6377088
 117.8942633  14.4408351 111.6537300 117.2253008  14.9254478 111.1701340
 117.7555502  14.6877571 112.5680678 122.0347901  16.4752094 118.2519958
 122.5866209  16.6383716 119.0169043 122.3754095  17.0656532 117.5799983
 122.2034325  16.1948485 112.4973989 121.7639315  15.7024864 113.1906846
 122.9542442  15.6521453 112.2566064 114.6826664  12.3860026 112.4998617
 115.5084684  12.0863798 112.1197261 114.3320716  11.6167649 112.9488406
 112.8835269  10.3046353 113.4587551 112.0467177   9.8768527 113.2771552
 112.8558914  10.4978796 114.3958342 114.9947375  14.5172641 114.2212432
 114.8601842  13.7573042 113.6550430 114.5779437  15.2413540 113.7541221
 118.1516500  15.4141958 114.4330874 118.0348885  16.3587390 114.3309565
 117.3308947  15.1115519 114.8216674 119.1771015  16.0670220 117.6486803
 120.0798261  16.0993830 117.9653298 118.9508385  15.1370671 117.6633139
 120.9324617  14.8201206 114.3096881 119.9820248  14.8203068 114.1961254
 121.2357103  14.0733941 113.7932916 129.3353832  22.4624649 111.3001059
 128.7718697  22.3714586 110.5317347 129.2206227  21.6424553 111.7803552
 126.8818264  23.9575841 114.1385280 127.6739556  23.6166665 113.7231579
 127.1214914  24.0670816 115.0587433 134.9153391  26.1295617 106.6115524
 134.2641371  26.7149697 106.2249538 135.7097754  26.6601812 106.6710562
 128.8409018  23.2184754 107.0102659 129.6139894  22.6713741 106.8715534
 129.1934417  24.0829003 107.2217120 131.1775296  19.3777420 104.6421109
 131.4300816  18.8558941 103.8804572 130.2399855  19.2143565 104.7447792
 136.3928656  23.8186049 107.1484509 135.7574489  23.8920675 107.8605413
 136.0626062  24.4079647 106.4703588 130.8971584  21.2805526 106.8445484
 130.7807843  20.6050429 107.5126568 131.0073844  20.7937900 106.0277637
 133.2403125  20.7415673 110.5492173 132.8761333  20.2146294 111.2605094
 134.0970241  20.3514142 110.3758658 129.0896427  20.6836348 113.2456056
 128.1646924  20.5512563 113.4533748 129.3380840  21.4630568 113.7425998
 132.8597833  18.2263230 106.5300188 132.7397458  18.6720281 107.3685668
 132.1650422  18.5748548 105.9713726 126.4505238  20.3269622 114.0799845
 126.5797619  20.5804101 114.9939257 125.7702689  20.9197330 113.7604500
 130.6204725  30.9966872 110.1790319 130.5428755  31.9474697 110.2578800
 130.0166369  30.6512744 110.8365246 132.7180444  23.4184930 112.0144189
 133.1818789  23.6972633 111.2248811 132.4537242  22.5168375 111.8317279
 129.6104525  22.9656411 114.9523952 130.1805882  23.3943680 114.3141436
 130.2012636  22.6838996 115.6508138 131.6549330  19.5408082 108.8233754
 132.3573373  19.9929126 109.2907680 131.3229958  18.8991901 109.4513647
 125.3974664  17.7991635 114.1250887 124.6073718  18.0549164 113.6490998
 125.8885911  18.6139973 114.2302928 127.3489409  18.1636214 111.0834364
 126.5520572  18.2754908 111.6017860 127.1215001  18.5022866 110.2175255
 123.6812367  18.0522125 116.5565878 123.9320405  18.9369135 116.8223454
 124.2171915  17.8726727 115.7840970 132.8943094  26.3549025 108.8995859
 132.7588769  27.2000561 109.3280707 133.4352907  26.5568303 108.1361793
 126.3472492  23.8724463 109.4723784 126.8597012  24.6667713 109.6229349
 126.9995204  23.1750753 109.4057386 128.1567376  26.9890219 111.5546537
 128.3334005  27.9108184 111.3667521 128.9524210  26.6748638 111.9840917
 129.2798692  28.5068393 117.5556880 129.8306117  28.3785456 116.7833874
 128.4410168  28.8063282 117.2051772 124.3121408  22.2013117 110.2483355
 125.1496630  22.6110126 110.0317062 124.4899676  21.2612559 110.2183549
 136.2085841  19.8688198 105.9367188 135.6932464  20.6392803 106.1755575
 135.9363149  19.1953334 106.5600249 141.1820115  22.6220553 107.8720361
 140.4049557  22.2831712 107.4275523 141.8611596  22.6273176 107.1975326
 134.4418576  23.9005513 109.4119923 133.9139937  23.1658273 109.0993160
 133.9406078  24.6780190 109.1659891 129.5006890  16.5929641 105.7922420
 128.6644203  16.9304327 106.1131694 129.3611660  16.4578620 104.8549557
 132.5871176  21.7185724 102.4154896 131.6798237  21.4874977 102.6146045
 133.0842208  20.9223343 102.6028877 135.4939255  30.4283231 105.3351582
 134.8200953  30.7314928 105.9436540 135.8805077  31.2312311 104.9857039
 135.4932759  19.3239778 109.9551932 136.2404578  19.8361175 109.6459054
 135.7624349  19.0023830 110.8156325 133.7659409  21.8198318 106.9378886
 132.8570628  21.5357351 107.0351356 133.7954493  22.2397397 106.0782193
 138.9978677  25.4304908 110.7070053 138.5441004  24.5895818 110.7635244
 138.3672643  26.0666306 111.0444834 137.4411616  27.2681405 111.6419872
 137.7334590  27.8286462 110.9232237 137.9510236  27.5609966 112.3973031
 124.3347580  19.5403833 110.9194088 124.1371979  18.9473193 110.1945155
 123.7794244  19.2356043 111.6370027 132.3144303  19.4326939 113.0388681
 132.3692913  18.4800775 112.9631158 131.5035505  19.5886378 113.5229980
 133.4635497  23.3607062 104.2766965 133.0254927  22.6442921 103.8172602
 134.2045938  23.5883177 103.7152056 130.2536663  18.0503999 110.7979060
 129.4404529  18.3498169 111.2044252 130.7495657  17.6559688 111.5153542
 132.4045241  28.0461756 112.7313325 132.3621420  28.2722602 111.8021857
 133.3207940  27.8125130 112.8799126 130.5211042  24.9224785 112.5275288
 131.3151640  24.4275105 112.3257863 129.8102734  24.3942648 112.1642993
 135.3405886  27.3042880 116.8787655 135.3942909  27.8733817 117.6465371
 134.4720668  27.4744765 116.5141692 126.8293805  19.0667866 108.6035040
 125.8991393  19.0052322 108.8205002 126.9251277  18.5443819 107.8071681
 126.7479354  15.5922679 111.1913282 127.0086172  16.5068013 111.0822442
 127.5696527  15.1247122 111.3409895 133.0982318  25.4953807 116.2073125
 132.9593404  25.1272591 117.0799063 132.3096914  26.0101446 116.0357082
 133.6930470  30.5962903 107.5498661 133.8682225  30.1250946 108.3644284
 133.0063258  31.2228669 107.7779922 134.6487533  24.8735409 113.5961962
 134.3137366  24.8336179 114.4919612 134.1491479  24.2080125 113.1232373
 137.5846725  22.2191444 103.8699022 136.9675895  21.4938272 103.7732075
 137.1163213  22.9800804 103.5266096 128.2591555  33.7452266 114.3238521
 128.4988153  34.3770790 115.0017540 127.4160752  33.3940306 114.6103881
 120.8947411  21.2254028 113.0861834 121.5818450  20.9115758 112.4982849
 120.7395539  22.1295392 112.8129085 125.6982133  16.1144224 117.5146857
 125.6140322  15.5069894 116.7797267 124.8764839  16.6053243 117.5156354
 132.7719417  29.5531388 116.7280025 132.6989588  30.3586360 117.2399330
 132.3296810  29.7523354 115.9028047 132.5609197  28.7903158 110.2382847
 131.7776718  29.3324839 110.3321071 133.2601942  29.3077138 110.6377088
 136.9535627  23.3569475 110.4555476 136.0191906  23.4770938 110.2860180
 137.1312296  22.4541942 110.1915485 130.2830014  27.2012666 119.7043755
 130.9839473  27.8349149 119.8573149 129.8125129  27.5427397 118.9439394
 138.4084410  25.5430616 107.9891662 138.6844254  25.4287210 108.8985536
 137.5388909  25.1448101 107.9503835 135.0438474  29.7916967 111.6324475
 135.2260868  28.9738622 112.0952228 135.8671460  30.0084659 111.1949365
 135.3780639  28.7185152 108.8939524 135.9068406  28.2077606 108.2809686
 135.6408859  28.4027682 109.7585057 125.8797732  26.7349021 116.6374857
 126.4651169  25.9892709 116.7702762 125.6822570  27.0452978 117.5211521
 128.7336387  29.7700268 111.6537300 128.0646763  30.2546396 111.1701340
 128.5949257  30.0169489 112.5680678 120.4715387  19.3054621 115.3579301
 120.5099486  18.7718212 116.1516419 119.9655680  18.7789827 114.7390278
 132.8741656  31.8044012 118.2519958 133.4259964  31.9675633 119.0169043
 133.2147849  32.3948450 117.5799983 124.1023964  18.0318723 108.4333232
 124.3977405  17.1229402 108.3800286 123.2012000  18.0106463 108.1114234
 136.0110043  29.7525987 115.2383640 135.8861183  28.9515727 114.7294586
 136.6689134  30.2472181 114.7497610 127.6318211  16.1074720 114.4160781
 126.9104797  16.7210688 114.2768254 128.4211467  16.6432485 114.3377427
 125.8311806  15.7132821 108.5572557 125.5024512  14.8330200 108.3747663
 126.1851177  15.6580490 109.4448946 135.0791385  27.3487724 113.0667543
 134.9316347  26.4204431 113.2475113 135.9044878  27.3707814 112.5824618
 128.9453629  16.0005791 108.9248035 129.2849702  16.5291712 108.2026643
 129.3925750  16.3386197 109.7006601 138.6825507  28.1716282 114.1532415
 139.6072054  27.9659144 114.0156867 138.5140810  27.9232684 115.0621757
 129.8152121  18.1611275 114.6370405 129.6696701  18.4751578 115.5294686
 129.3377324  18.7796175 114.0841303 138.4720823  28.6901950 109.5094507
 138.6457700  28.1248372 108.7568359 138.9649714  29.4902845 109.3273997
 124.2897783  20.7016619 117.5758066 123.7451251  21.4776427 117.7078340
 125.1677133  21.0487423 117.4177187 139.4595995  28.0068714 106.6091405
 140.1546900  28.6275407 106.8278720 139.8019145  27.1564066 106.8843783
 125.0763805  19.8286515 120.4688223 124.3345541  19.9769151 121.0552853
 124.7556549  20.0894781 119.6054972 141.3587418  25.4568420 108.1378736
 141.8838743  25.7955693 107.4128056 141.2709771  24.5215435 107.9541871
 133.0428079  31.5240403 112.4973989 132.6033070  31.0316782 113.1906846
 133.7936196  30.9813371 112.2566064 125.5220418  27.7151944 112.4998617
 126.3478438  27.4155716 112.1197261 125.1714470  26.9459566 112.9488406
 130.4901951  27.0678412 114.5696291 129.8681961  26.4049117 114.2698519
 131.1606818  27.0939544 113.8869939 123.7229023  25.6338270 113.4587551
 122.8860932  25.2060445 113.2771552 123.6952669  25.8270714 114.3958342
 130.0515458  25.6182336 108.0454751 130.2003579  26.3017800 107.3921424
 130.8581902  25.5987426 108.5604207 127.8068091  21.6447513 109.0515820
 127.5614133  20.7409843 109.2496030 127.9764006  21.6464664 108.1095298
 127.0763739  17.3775871 106.5501982 126.3832984  17.4520226 105.8942018
 126.8315491  16.6136214 107.0723499 133.5510864  28.1130466 105.5166499
 132.9784831  28.7320653 105.0636971 134.1243657  28.6629828 106.0506421
 136.7708124  28.3967616 106.6475081 137.7038797  28.3313178 106.8507957
 136.6831336  29.2323883 106.1889614 139.3996140  27.7133486 103.6079029
 139.3209772  27.3793350 104.5014787 140.2205807  28.2055254 103.6070501
 133.9357662  19.4491279 102.8582551 134.8816767  19.3197487 102.9270969
 133.5571907  18.7105941 103.3351979 132.1200579  17.3741255 102.7937437
 131.2132035  17.0774368 102.8700150 132.3976560  17.0771073 101.9271723
 123.0378520  18.6947619 113.2436483 122.7181304  17.8412927 112.9510857
 122.4911948  18.9096197 113.9994450 126.8158427  21.4110060 116.9605989
 127.0344437  22.3427167 116.9794023 127.2284201  21.0518034 117.7460793
 122.9066780  22.3150530 115.2129604 122.2130251  21.9004483 114.6999559
 123.6539771  22.3571067 114.6163023 124.8203522  22.2468784 113.0895619
 124.7974210  22.3456471 112.1377502 125.1304159  23.0933935 113.4112785
 127.4790900  24.3044939 117.2042234 128.4334154  24.2728881 117.1372165
 127.2803424  23.8435563 118.0192460 128.0690282  22.8746055 119.7713031
 128.8883171  23.3690134 119.7947869 128.3427090  21.9578023 119.7430599
 125.8341129  29.8464558 114.2212432 125.6995597  29.0864959 113.6550430
 125.4173191  30.5705458 113.7541221 136.9700092  25.0301482 103.2289007
 137.6735942  25.2351484 103.8446663 136.2462741  25.5978244 103.4938090
 137.7997902  20.7811343 109.3491277 137.7433104  21.2379895 108.5098910
 138.3526245  20.0202028 109.1714120 128.9910255  30.7433875 114.4330874
 128.8742639  31.6879308 114.3309565 128.1702701  30.4407437 114.8216674
 138.8786789  25.4684011 105.2787467 139.7132393  25.0365210 105.0964942
 138.7171132  25.2966025 106.2064361 138.5332682  21.9716124 106.6443806
 138.4781485  21.8060396 105.7032250 137.9078737  22.6792157 106.8005996
 130.0164769  31.3962137 117.6486803 130.9192016  31.4285747 117.9653298
 129.7902139  30.4662588 117.6633139 131.7718371  30.1493124 114.3096881
 130.8214002  30.1494985 114.1961254 132.0750857  29.4025858 113.7932916
 140.1747587  37.7916567 111.3001059 139.6112452  37.7006504 110.5317347
 140.0599982  36.9716471 111.7803552 137.7212018  39.2867758 114.1385280
 138.5133310  38.9458583 113.7231579 137.9608669  39.3962733 115.0587433
 145.7547145  41.4587534 106.6115524 145.1035125  42.0441615 106.2249538
 146.5491508  41.9893729 106.6710562 139.6802772  38.5476672 107.0102659
 140.4533648  38.0005659 106.8715534 140.0328171  39.4120921 107.2217120
 142.0169050  34.7069338 104.6421109 142.2694571  34.1850859 103.8804572
 141.0793609  34.5435483 104.7447792 147.2322410  39.1477966 107.1484509
 146.5968243  39.2212593 107.8605413 146.9019817  39.7371565 106.4703588
 141.7365339  36.6097444 106.8445484 141.6201597  35.9342347 107.5126568
 141.8467599  36.1229818 106.0277637 144.0796880  36.0707591 110.5492173
 143.7155087  35.5438212 111.2605094 144.9363996  35.6806060 110.3758658
 143.7202367  31.0997490 105.5453521 143.8876769  31.9677727 105.9123992
 143.5299536  31.2624772 104.6214811 139.9290182  36.0128266 113.2456056
 139.0040678  35.8804480 113.4533748 140.1774595  36.7922485 113.7425998
 143.6991588  33.5555148 106.5300188 143.5791213  34.0012199 107.3685668
 143.0044176  33.9040466 105.9713726 137.2898993  35.6561540 114.0799845
 137.4191374  35.9096019 114.9939257 136.6096444  36.2489248 113.7604500
 141.4598480  46.3258790 110.1790319 141.3822510  47.2766615 110.2578800
 140.8560123  45.9804662 110.8365246 143.5574198  38.7476848 112.0144189
 144.0212544  39.0264551 111.2248811 143.2930996  37.8460292 111.8317279
 140.4498279  38.2948329 114.9523952 141.0199636  38.7235598 114.3141436
 141.0406391  38.0130914 115.6508138 142.4943084  34.8700000 108.8233754
 143.1967127  35.3221044 109.2907680 142.1623713  34.2283819 109.4513647
 136.2368418  33.1283553 114.1250887 135.4467472  33.3841081 113.6490998
 136.7279665  33.9431891 114.2302928 138.1883163  33.4928132 111.0834364
 137.3914327  33.6046826 111.6017860 137.9608756  33.8314784 110.2175255
 134.5206121  33.3814043 116.5565878 134.7714159  34.2661053 116.8223454
 135.0565669  33.2018645 115.7840970 143.7336849  41.6840943 108.8995859
 143.5982524  42.5292478 109.3280707 144.2746661  41.8860220 108.1361793
 137.1866246  39.2016381 109.4723784 137.6990767  39.9959631 109.6229349
 137.8388959  38.5042671 109.4057386 138.9961131  42.3182137 111.5546537
 139.1727759  43.2400102 111.3667521 139.7917964  42.0040556 111.9840917
 140.1192446  43.8360311 117.5556880 140.6699871  43.7077374 116.7833874
 139.2803922  44.1355200 117.2051772 135.1515163  37.5305035 110.2483355
 135.9890385  37.9402043 110.0317062 135.3293431  36.5904477 110.2183549
 147.0479595  35.1980116 105.9367188 146.5326218  35.9684720 106.1755575
 146.7756903  34.5245252 106.5600249 144.6326706  30.0429816 110.9952426
 143.7768302  29.6536667 110.8158065 145.0453658  30.1221777 110.1352212
 146.8365898  33.0707208 107.7626969 146.5316034  33.3853357 108.6137112
 147.7896340  33.1488628 107.8054302 145.2812330  39.2297431 109.4119923
 144.7533692  38.4950191 109.0993160 144.7799833  40.0072107 109.1659891
 140.0131058  29.8917097 111.7726534 140.5874810  29.6692279 111.0399727
 140.6002040  29.9605792 112.5255136 140.3400645  31.9221558 105.7922420
 139.5037957  32.2596245 106.1131694 140.2005414  31.7870538 104.8549557
 143.4264930  37.0477641 102.4154896 142.5191992  36.8166895 102.6146045
 143.9235962  36.2515261 102.6028877 146.3333009  45.7575148 105.3351582
 145.6594708  46.0606845 105.9436540 146.7198831  46.5604229 104.9857039
 146.3326513  34.6531695 109.9551932 147.0798332  35.1653093 109.6459054
 146.6018103  34.3315748 110.8156325 144.6053164  37.1490236 106.9378886
 143.6964383  36.8649269 107.0351356 144.6348247  37.5689315 106.0782193
 135.1741334  34.8695750 110.9194088 134.9765734  34.2765111 110.1945155
 134.6187998  34.5647960 111.6370027 143.1538058  34.7618857 113.0388681
 143.2086667  33.8092693 112.9631158 142.3429260  34.9178296 113.5229980
 144.3029251  38.6898980 104.2766965 143.8648681  37.9734839 103.8172602
 145.0439692  38.9175095 103.7152056 141.0930418  33.3795916 110.7979060
 140.2798283  33.6790087 111.2044252 141.5889412  32.9851605 111.5153542
 143.2438996  43.3753673 112.7313325 143.2015174  43.6014520 111.8021857
 144.1601694  43.1417048 112.8799126 141.3604796  40.2516702 112.5275288
 142.1545395  39.7567023 112.3257863 140.6496489  39.7234566 112.1642993
 146.1799641  42.6334798 116.8787655 146.2336663  43.2025734 117.6465371
 145.3114422  42.8036683 116.5141692 137.6687560  34.3959784 108.6035040
 136.7385148  34.3344240 108.8205002 137.7645032  33.8735737 107.8071681
 137.5873109  30.9214597 111.1913282 137.8479926  31.8359930 111.0822442
 138.4090281  30.4539040 111.3409895 143.9376072  40.8245724 116.2073125
 143.7987158  40.4564509 117.0799063 143.1490669  41.3393364 116.0357082
 144.5324224  45.9254821 107.5498661 144.7075980  45.4542864 108.3644284
 143.8457012  46.5520587 107.7779922 145.4881287  40.2027327 113.5961962
 145.1531120  40.1628097 114.4919612 144.9885233  39.5372043 113.1232373
 139.0985310  49.0744184 114.3238521 139.3381908  49.7062708 115.0017540
 138.2554506  48.7232224 114.6103881 140.2139025  31.7668786 102.9920326
 139.3368491  31.6457587 102.6282573 140.6896778  30.9754864 102.7399215
 131.7341165  36.5545945 113.0861834 132.4212205  36.2407676 112.4982849
 131.5789294  37.4587310 112.8129085 136.5375887  31.4436142 117.5146857
 136.4534076  30.8361812 116.7797267 135.7158594  31.9345160 117.5156354
 143.6113171  44.8823306 116.7280025 143.5383343  45.6878278 117.2399330
 143.1690565  45.0815272 115.9028047 143.4002951  44.1195076 110.2382847
 142.6170473  44.6616756 110.3321071 144.0995696  44.6369056 110.6377088
 143.2934570  32.0707089 112.6088737 142.9232357  31.5178129 113.2969642
 143.7893662  31.4665222 112.0563737 141.1223768  42.5304584 119.7043755
 141.8233228  43.1641067 119.8573149 140.6518883  42.8719315 118.9439394
 145.8832228  45.1208884 111.6324475 146.0654623  44.3030540 112.0952228
 146.7065214  45.3376576 111.1949365 146.2174394  44.0477069 108.8939524
 146.7462160  43.5369524 108.2809686 146.4802613  43.7319600 109.7585057
 136.7191487  42.0640939 116.6374857 137.3044923  41.3184627 116.7702762
 136.5216325  42.3744895 117.5211521 139.5730142  45.0992186 111.6537300
 138.9040517  45.5838314 111.1701340 139.4343011  45.3461406 112.5680678
 131.3109141  34.6346539 115.3579301 131.3493241  34.1010130 116.1516419
 130.8049434  34.1081744 114.7390278 143.7135410  47.1335930 118.2519958
 144.2653718  47.2967551 119.0169043 144.0541604  47.7240367 117.5799983
 134.9417719  33.3610641 108.4333232 135.2371160  32.4521319 108.3800286
 134.0405755  33.3398380 108.1114234 146.8503798  45.0817905 115.2383640
 146.7254937  44.2807645 114.7294586 147.5082889  45.5764098 114.7497610
 138.4711966  31.4366638 114.4160781 137.7498552  32.0502605 114.2768254
 139.2605222  31.9724402 114.3377427 136.6705560  31.0424739 108.5572557
 136.3418267  30.1622118 108.3747663 137.0244931  30.9872407 109.4448946
 145.9185139  42.6779641 113.0667543 145.7710102  41.7496349 113.2475113
 146.7438633  42.6999732 112.5824618 139.7847384  31.3297708 108.9248035
 140.1243456  31.8583630 108.2026643 140.2319504  31.6678115 109.7006601
 141.7715531  29.8272330 107.1241328 142.4923893  30.2053583 106.6205044
 141.1480835  30.5461207 107.2276306 145.9146654  30.5317479 108.0599660
 146.1310268  31.4142117 107.7588488 145.4340721  30.1403692 107.3305302
 140.6545875  33.4903192 114.6370405 140.5090456  33.8043495 115.5294686
 140.1771079  34.1088093 114.0841303 135.1291537  36.0308537 117.5758066
 134.5845005  36.8068345 117.7078340 136.0070887  36.3779341 117.4177187
 141.9179154  29.3620121 109.9538864 142.0395065  28.4336767 110.1529752
 141.6281196  29.3758806 109.0417180 135.9157559  35.1578433 120.4688223
 135.1739295  35.3061068 121.0552853 135.5950303  35.4186699 119.6054972
 143.8821834  46.8532321 112.4973989 143.4426824  46.3608699 113.1906846
 144.6329951  46.3105288 112.2566064 136.3614173  43.0443862 112.4998617
 137.1872193  42.7447634 112.1197261 136.0108225  42.2751484 112.9488406
 141.3295706  42.3970330 114.5696291 140.7075715  41.7341035 114.2698519
 142.0000573  42.4231462 113.8869939 134.5622778  40.9630188 113.4587551
 133.7254686  40.5352362 113.2771552 134.5346423  41.1562631 114.3958342
 140.8909213  40.9474253 108.0454751 141.0397333  41.6309718 107.3921424
 141.6975656  40.9279343 108.5604207 138.6461846  36.9739431 109.0515820
 138.4007888  36.0701761 109.2496030 138.8157760  36.9756581 108.1095298
 137.9157493  32.7067788 106.5501982 137.2226738  32.7812143 105.8942018
 137.6709245  31.9428132 107.0723499 144.3904618  43.4422384 105.5166499
 143.8178585  44.0612571 105.0636971 144.9637412  43.9921745 106.0506421
 144.7751417  34.7783196 102.8582551 145.7210522  34.6489405 102.9270969
 144.3965662  34.0397858 103.3351979 142.9594334  32.7033173 102.7937437
 142.0525789  32.4066286 102.8700150 143.2370315  32.4062991 101.9271723
 133.8772274  34.0239536 113.2436483 133.5575059  33.1704844 112.9510857
 133.3305703  34.2388114 113.9994450 137.6552182  36.7401977 116.9605989
 137.8738192  37.6719085 116.9794023 138.0677956  36.3809952 117.7460793
 141.7293119  29.5620108 102.9349416 142.5912283  29.8875006 103.1945233
 141.9143463  28.7751604 102.4222481 133.7460534  37.6442448 115.2129604
 133.0524006  37.2296400 114.6999559 134.4933525  37.6862984 114.6163023
 135.6597277  37.5760701 113.0895619 135.6367965  37.6748389 112.1377502
 135.9697913  38.4225852 113.4112785 138.3184655  39.6336856 117.2042234
 139.2727908  39.6020799 117.1372165 138.1197178  39.1727480 118.0192460
 138.9084037  38.2037973 119.7713031 139.7276926  38.6982051 119.7947869
 139.1820845  37.2869941 119.7430599 136.6734884  45.1756476 114.2212432
 136.5389351  44.4156877 113.6550430 136.2566946  45.8997376 113.7541221
 139.8304009  46.0725793 114.4330874 139.7136394  47.0171225 114.3309565
 139.0096456  45.7699355 114.8216674 142.6822562  26.8016151 106.2229125
 142.6701231  27.7457991 106.3797396 143.5745983  26.6186296 105.9288586
 140.8558524  46.7254055 117.6486803 141.7585770  46.7577665 117.9653298
 140.6295894  45.7954506 117.6633139 142.6112126  45.4785041 114.3096881
 141.6607757  45.4786903 114.1961254 142.9144612  44.7317776 113.7932916
 147.0762173  48.4575470 114.1250887 146.2861227  48.7132999 113.6490998
 147.5673420  49.2723808 114.2302928 145.3599876  48.7105961 116.5565878
 145.6107914  49.5952971 116.8223454 145.8959424  48.5310562 115.7840970
 145.9908917  52.8596953 110.2483355 146.8284139  53.2693961 110.0317062
 146.1687185  51.9196395 110.2183549 146.0135089  50.1987668 110.9194088
 145.8159488  49.6057029 110.1945155 145.4581753  49.8939878 111.6370027
 142.5734920  51.8837863 113.0861834 143.2605959  51.5699593 112.4982849
 142.4183048  52.7879228 112.8129085 147.3769642  46.7728060 117.5146857
 147.2927831  46.1653729 116.7797267 146.5552348  47.2637078 117.5156354
 142.1502896  49.9638457 115.3579301 142.1886995  49.4302047 116.1516419
 141.6443189  49.4373662 114.7390278 145.7811473  48.6902559 108.4333232
 146.0764914  47.7813237 108.3800286 144.8799509  48.6690298 108.1114234
 145.9685292  51.3600454 117.5758066 145.4238760  52.1360262 117.7078340
 146.8464642  51.7071259 117.4177187 146.7551314  50.4870351 120.4688223
 146.0133050  50.6352986 121.0552853 146.4344058  50.7478616 119.6054972
 145.4016532  56.2922106 113.4587551 144.5648441  55.8644280 113.2771552
 145.3740178  56.4854549 114.3958342 144.7166029  49.3531454 113.2436483
 144.3968813  48.4996762 112.9510857 144.1699457  49.5680032 113.9994450
 144.5854289  52.9734365 115.2129604 143.8917760  52.5588318 114.6999559
 145.3327280  53.0154902 114.6163023 146.4991031  52.9052619 113.0895619
 146.4761719  53.0040306 112.1377502 146.8091668  53.7517770 113.4112785
 147.5128638  60.5048394 114.2212432 147.3783106  59.7448795 113.6550430
 147.0960700  61.2289294 113.7541221 141.4598481  23.3320912  96.9035626
 141.3822511  24.2828737  96.9824107 140.8560125  22.9866785  97.5610552
 140.1192448  20.8422433 104.2802186 140.6699873  20.7139497 103.5079180
 139.2803923  21.1417322 103.9297079 146.3333010  22.7637271  92.0596889
 145.6594709  23.0668968  92.6681846 146.7198832  23.5666351  91.7102346
 144.5324226  22.9316943  94.2743968 144.7075981  22.4604987  95.0889590
 143.8457014  23.5582710  94.5025229 139.0985311  26.0806306 101.0483828
 139.3381909  26.7124830 101.7262847 138.2554507  25.7294346 101.3349187
 143.6113173  21.8885429 103.4525332 143.5383344  22.6940400 103.9644637
 143.1690566  22.0877395 102.6273353 143.4002952  21.1257199  96.9628154
 142.6170474  21.6678879  97.0566378 144.0995697  21.6431178  97.3622395
 139.5730143  22.1054309  98.3782606 138.9040518  22.5900436  97.8946647
 139.4343013  22.3523529  99.2925985 143.7135412  24.1398052 104.9765265
 144.2653720  24.3029674 105.7414350 144.0541605  24.7302490 104.3045290
 143.8821835  23.8594443  99.2219296 143.4426825  23.3670822  99.9152152
 144.6329952  23.3167411  98.9811371 136.3614174  20.0505984  99.2243924
 137.1872194  19.7509756  98.8442567 136.0108226  19.2813607  99.6733713
 134.5622779  17.9692311 100.1832857 133.7254687  17.5414485 100.0016859
 134.5346424  18.1624754 101.1203649 136.6734885  22.1818599 100.9457738
 136.5389353  21.4218999 100.3795736 136.2566947  22.9059498 100.4786527
 139.8304011  23.0787916 101.1576181 139.7136395  24.0233348 101.0554871
 139.0096457  22.7761477 101.5461980 140.8558525  23.7316177 104.3732109
 141.7585771  23.7639788 104.6898604 140.6295895  22.8016628 104.3878445
 142.6112127  22.4847164 101.0342188 141.6607758  22.4849026 100.9206560
 142.9144613  21.7379899 100.5178223 147.0762174  25.4637593 100.8496194
 146.2861228  25.7195121 100.3736305 147.5673421  26.2785931 100.9548235
 145.3599877  25.7168083 103.2811185 145.6107915  26.6015093 103.5468761
 145.8959425  25.5372685 102.5086277 145.9908919  29.8659075  96.9728661
 146.8284141  30.2756084  96.7562369 146.1687186  28.9258517  96.9428855
 146.0135090  27.2049791  97.6439395 145.8159490  26.6119151  96.9190461
 145.4581754  26.9002001  98.3615334 142.5734921  28.8899986  99.8107140
 143.2605961  28.5761716  99.2228155 142.4183050  29.7941350  99.5374392
 147.3769643  23.7790182 104.2392164 147.2927832  23.1715852 103.5042574
 146.5552349  24.2699201 104.2401660 142.1502897  26.9700579 102.0824607
 142.1886997  26.4364170 102.8761725 141.6443190  26.4435785 101.4635584
 145.7811475  25.6964681  95.1578539 146.0764916  24.7875360  95.1045592
 144.8799510  25.6752421  94.8359541 145.9685293  28.3662577 104.3003372
 145.4238761  29.1422385 104.4323647 146.8464643  28.7133381 104.1422494
 146.7551315  27.4932473 107.1933529 146.0133051  27.6415109 107.7798160
 146.4344059  27.7540739 106.3300279 145.4016533  33.2984228 100.1832857
 144.5648442  32.8706403 100.0016859 145.3740179  33.4916672 101.1203649
 144.7166030  26.3593576  99.9681790 144.3968814  25.5058885  99.6756164
 144.1699458  26.5742155 100.7239757 144.5854290  29.9796488 101.9374911
 143.8917762  29.5650441 101.4244866 145.3327281  30.0217024 101.3408330
 146.4991033  29.9114742  99.8140926 146.4761721  30.0102429  98.8622809
 146.8091669  30.7579893 100.1358092 147.5128639  37.5110516 100.9457738
 147.3783107  36.7510917 100.3795736 147.0960702  38.2351416 100.4786527
  69.8790859  72.1171373 159.7134295  69.2278839  72.7025454 159.3268308
  70.6735222  72.6477568 159.7729332  76.1457583  68.6096309 160.9739131
  75.3687025  68.2707469 160.5294294  76.8249064  68.6148932 160.2994097
  67.5508644  67.7061480 155.5173666  66.6435706  67.4750734 155.7164815
  68.0479676  66.9099099 155.7047648  70.4576723  76.4158987 158.4370352
  69.7838421  76.7190684 159.0455310  70.8442545  77.2188068 158.0875809
  68.4272965  69.3482819 157.3785735  67.9892395  68.6318678 156.9191372
  69.1683406  69.5758934 156.8170826  68.6567938  76.5838660 160.6517432
  68.8319693  76.1126703 161.4663054  67.9700726  77.2104426 160.8798692
  72.5484193  68.2067200 156.9717792  71.9313363  67.4814029 156.8750845
  72.0800681  68.9676561 156.6284867  73.3721878  71.5306372 161.0910432
  73.6481722  71.4162967 162.0004306  72.5026377  71.1323857 161.0522605
  70.3418107  74.7060908 161.9958294  70.8705874  74.1953363 161.3828456
  70.6046327  74.3903438 162.8603827  73.4358291  74.6777706 162.6113277
  73.6095168  74.1124129 161.8587130  73.9287182  75.4778601 162.4292767
  74.4233463  73.9944471 159.7110176  75.1184368  74.6151164 159.9297490
  74.7656614  73.1439822 159.9862553  76.3224887  71.4444176 161.2397506
  76.8476211  71.7831449 160.5146826  76.2347239  70.5091192 161.0560641
  68.5148332  74.1006223 158.6185269  67.9422299  74.7196410 158.1655741
  69.0881126  74.6505584 159.1525191  71.7345592  74.3843373 159.7493851
  72.6676265  74.3188934 159.9526727  71.6468804  75.2199640 159.2908384
  74.3633608  73.7009243 156.7097799  74.2847240  73.3669107 157.6033557
  75.1843275  74.1931011 156.7089271  68.8995130  65.4367035 155.9601322
  69.8454235  65.3073243 156.0289740  68.5209375  64.6981697 156.4370750
  71.9337560  71.0177238 156.3307777  72.6373410  71.2227241 156.9465433
  71.2100209  71.5854000 156.5956861  73.8424257  71.4559768 158.3806237
  74.6769861  71.0240966 158.1983712  73.6808600  71.2841781 159.3083132
  73.4970150  67.9591881 159.7462577  73.4418953  67.7936152 158.8051021
  72.8716205  68.6667914 159.9024766  76.9806518  80.6945094 157.7439879
  77.2332039  80.1726616 156.9823342  76.0431077  80.5311240 157.8466563
  78.6839835  77.0873247 158.6472292  78.8514237  77.9553483 159.0142763
  78.4937004  77.2500529 157.7233581  75.3038113  77.9097315 158.8941190
  74.4675425  78.2472001 159.2150465  75.1642882  77.7746295 157.9568327
  77.2791193  72.7534103 163.6020374  76.6255606  72.4383120 162.9776989
  77.2371668  72.1309843 164.3280197  78.3902398  83.0353398 155.5173666
  77.4829460  82.8042651 155.7164815  78.8873430  82.2391017 155.7047648
  75.1776493  77.7544542 156.0939097  74.3005959  77.6333343 155.7301343
  75.6534246  76.9630621 155.8417985  69.9055187  79.3486398 161.5352002
  70.2008628  78.4397076 161.4819056  69.0043223  79.3274137 161.2133005
  71.6343028  77.0300495 161.6591328  71.3055735  76.1497874 161.4766433
  71.9882399  76.9748164 162.5467717  76.7352999  75.8148087 160.2260098
  77.4561361  76.1929339 159.7223815  76.1118303  76.5336963 160.3295076
  72.8794961  78.6943545 159.6520752  72.1864206  78.7687900 158.9960788
  72.6346713  77.9303889 160.1742269  79.7388885  80.7658953 155.9601322
  80.6847990  80.6365161 156.0289740  79.3603130  80.0273615 156.4370750
  77.9231802  78.6908929 155.8956207  77.0163257  78.3942042 155.9718920
  78.2007783  78.3938747 155.0290493  79.5393868  73.2345819 162.0500448
  78.7294596  72.8892904 162.4255694  80.2278285  72.9253363 162.6388060
  76.6930587  75.5495865 156.0368186  77.5549751  75.8750763 156.2964003
  76.8780931  74.7627360 155.5241252  77.6460030  72.7891908 159.3247895
  77.6338699  73.7333748 159.4816166  78.5383451  72.6062053 159.0307356
  69.8790860  49.1233496 146.4379601  69.2278840  49.7087576 146.0513615
  70.6735223  49.6539691 146.4974639  76.1457584  45.6158432 147.6984438
  75.3687027  45.2769591 147.2539600  76.8249065  45.6211055 147.0239403
  67.5508645  44.7123603 142.2418973  66.6435707  44.4812856 142.4410122
  68.0479677  43.9161222 142.4292954  70.4576724  53.4221110 145.1615659
  69.7838423  53.7252807 145.7700617  70.8442546  54.2250190 144.8121116
  68.4272966  46.3544941 144.1031042  67.9892396  45.6380800 143.6436679
  69.1683407  46.5821056 143.5416133  68.6567939  53.5900782 147.3762738
  68.8319695  53.1188826 148.1908361  67.9700727  54.2166549 147.6043999
  72.5484194  45.2129323 143.6963099  71.9313365  44.4876151 143.5996152
  72.0800682  45.9738683 143.3530173  73.3721879  48.5368495 147.8155739
  73.6481723  48.4225089 148.7249613  72.5026378  48.1385980 147.7767912
  70.3418109  51.7123031 148.7203601  70.8705875  51.2015485 148.1073763
  70.6046328  51.3965561 149.5849134  73.4358292  51.6839829 149.3358584
  73.6095170  51.1186252 148.5832436  73.9287183  52.4840724 149.1538074
  74.4233465  51.0006593 146.4355482  75.1184369  51.6213286 146.6542797
  74.7656615  50.1501945 146.7107860  76.3224888  48.4506299 147.9642813
  76.8476212  48.7893572 147.2392133  76.2347240  47.5153314 147.7805948
  68.5148333  51.1068345 145.3430576  67.9422300  51.7258532 144.8901048
  69.0881127  51.6567707 145.8770498  71.7345593  51.3905495 146.4739158
  72.6676266  51.3251057 146.6772034  71.6468806  52.2261762 146.0153691
  74.3633610  50.7071366 143.4343106  74.2847241  50.3731229 144.3278864
  75.1843276  51.1993134 143.4334578  68.8995132  42.4429158 142.6846628
  69.8454236  42.3135366 142.7535046  68.5209377  41.7043820 143.1616056
  71.9337561  48.0239361 143.0553084  72.6373411  48.2289364 143.6710740
  71.2100210  48.5916123 143.3202167  73.8424259  48.4621890 145.1051544
  74.6769863  48.0303089 144.9229019  73.6808602  48.2903904 146.0328438
  73.4970151  44.9654004 146.4707883  73.4418955  44.7998275 145.5296327
  72.8716206  45.6730036 146.6270073  82.4708534  58.9791541 155.2006721
  83.1086944  58.8598289 154.4970061  82.3529377  59.9272385 155.2594673
  79.2798240  58.9318969 155.1368245  78.9416752  58.8160034 154.2488780
  80.1488008  58.5310135 155.1169252  75.1385056  60.7854446 151.1265136
  74.5749921  60.6944383 150.3581424  75.0237451  59.9654350 151.6067629
  72.6849488  62.2805637 153.9649357  73.4770780  61.9396462 153.5495656
  72.9246138  62.3900613 154.8851510  80.7184615  64.4525414 146.4379601
  80.0672594  65.0379494 146.0513615  81.5128977  64.9831608 146.4974639
  74.6440242  61.5414551 146.8366736  75.4171118  60.9943538 146.6979611
  74.9965641  62.4058800 147.0481197  77.4081491  60.2467782 156.6334995
  78.0045063  60.0223804 155.9191958  77.4656463  59.5052527 157.2360442
  76.9806520  57.7007217 144.4685186  77.2332040  57.1788738 143.7068649
  76.0431079  57.5373362 144.5711869  82.0249802  56.7042995 152.2759929
  82.8112892  56.2862418 151.9250346  82.2888507  57.6089087 152.4441577
  82.1959880  62.1415846 146.9748586  81.5605713  62.2150472 147.6869490
  81.8657286  62.7309444 146.2967665  87.4258229  56.6418228 153.1792907
  88.1583401  56.0717445 153.4130737  86.6697585  56.2539829 153.6199413
  76.7002808  59.6035323 146.6709561  76.5839066  58.9280226 147.3390645
  76.8105068  59.1167697 145.8541714  79.0434349  59.0645470 150.3756250
  78.6792556  58.5376091 151.0869171  79.9001465  58.6743939 150.2022735
  78.6839836  54.0935370 145.3717598  78.8514238  54.9615606 145.7388069
  78.4937005  54.2562651 144.4478888  81.4415169  62.5552348 157.0383429
  81.1415892  63.4577387 156.9299236  81.0966229  62.2884532 157.8904582
  74.8927651  59.0066145 153.0720133  73.9678147  58.8742359 153.2797825
  75.1412064  59.7860365 153.5690075  84.8412313  55.0734889 154.7180866
  83.9329190  55.0050297 154.4239627  84.7899909  55.5506834 155.5462691
  78.6629057  56.5493027 146.3564265  78.5428682  56.9950078 147.1949745
  77.9681645  56.8978345 145.7977803  72.2536462  58.6499419 153.9063922
  72.3828843  58.9033898 154.8203334  71.5733913  59.2427127 153.5868577
  76.4235949  69.3196669 150.0054396  76.3459979  70.2704494 150.0842877
  75.8197593  68.9742541 150.6629323  84.3614123  57.0214500 147.1844599
  85.2731979  57.2541887 147.0092297  83.8523770  57.6051544 146.6219678
  82.9683705  62.0040319 154.5758181  82.3392568  62.1686033 153.8734248
  82.5809368  62.4181928 155.3469145  86.8472937  62.9394757 151.9302544
  86.1623976  63.3193658 151.3799578  86.9316787  63.5490083 152.6634492
  84.1023869  60.5854716 158.5297888  84.3140764  61.2286475 157.8532269
  84.0553617  59.7517032 158.0619818  78.5211667  61.7414727 151.8408266
  78.9850013  62.0202430 151.0512888  78.2568465  60.8398171 151.6581356
  75.4135748  61.2886208 154.7788029  75.9837105  61.7173477 154.1405513
  76.0043860  61.0068793 155.4772215  77.4580553  57.8637879 148.6497831
  78.1604597  58.3158923 149.1171757  77.1261182  57.2221698 149.2777724
  85.2169697  63.4626671 156.7020245  86.0387141  63.0606858 156.4202927
  85.2132100  63.3594905 157.6536361  73.1520633  56.4866011 150.9098441
  72.3551796  56.5984705 151.4281937  72.9246225  56.8252663 150.0439332
  78.9826300  63.0110714 158.8580956  79.0470733  63.4731122 159.6939128
  78.2737224  62.3808079 158.9863266  93.3075690  59.8065419 153.0505217
  92.5539398  59.2372818 152.8949221  93.4423231  59.7728084 153.9975851
  78.6974318  64.6778822 148.7259936  78.5619993  65.5230358 149.1544784
  79.2384131  64.8798099 147.9625870  72.1503715  62.1954260 149.2987861
  72.6628236  62.9897510 149.4493426  72.8026428  61.4980550 149.2321463
  73.9598600  65.3120016 151.3810614  74.1365228  66.2337981 151.1931598
  74.7555434  64.9978435 151.8104994  75.0829916  66.8298190 157.3820957
  75.6337341  66.7015253 156.6097951  74.2441391  67.1293079 157.0315849
  82.4224032  65.5805188 160.8841679  82.4042508  66.4014069 160.3921949
  83.3443953  65.4559263 161.1091821  70.1152632  60.5242914 150.0747432
  70.9527854  60.9339923 149.8581139  70.2930900  59.5842356 150.0447626
  82.0117064  58.1917995 145.7631265  81.4963688  58.9622599 146.0019652
  81.7394373  57.5183131 146.3864326  79.5964175  53.0367696 150.8216503
  78.7405772  52.6474546 150.6422142  80.0091127  53.1159656 149.9616289
  86.9851338  60.9450349 147.6984438  86.2080781  60.6061509 147.2539600
  87.6642819  60.9502973 147.0239403  81.8003367  56.0645087 147.5891046
  81.4953503  56.3791236 148.4401189  82.7533810  56.1426507 147.6318379
  80.2449799  62.2235310 149.2384000  79.7171161  61.4888070 148.9257237
  79.7437302  63.0009987 148.9923968  85.2242645  60.4184331 154.3551046
  84.5666320  61.1083592 154.4431175  86.0283045  60.8080763 154.6985032
  74.9768527  52.8854976 151.5990611  75.5512279  52.6630158 150.8663804
  75.5639509  52.9543671 152.3519213  84.0348104  58.7728703 152.4054988
  84.5479986  59.4058695 152.9076698  84.6849328  58.1729899 152.0398348
  75.3038114  54.9159438 145.6186497  74.4675426  55.2534124 145.9395771
  75.1642884  54.7808417 144.6813634  77.2791195  49.7596225 150.3265681
  76.6255607  49.4445243 149.7022296  77.2371669  49.1371966 151.0525504
  78.3902400  60.0415520 142.2418973  77.4829461  59.8104774 142.4410122
  78.8873432  59.2453140 142.4292954  81.2970478  68.7513028 145.1615659
  80.6232177  69.0544724 145.7700617  81.6836300  69.5542108 144.8121116
  80.5128935  56.2478159 154.6513328  79.5951496  56.4693106 154.4935016
  80.9289079  56.3224469 153.7925036  81.2963983  57.6469575 149.7816009
  82.0435802  58.1590972 149.4723131  81.5655572  57.3253627 150.6420402
  79.5690633  60.1428115 146.7642963  78.6601852  59.8587148 146.8615433
  79.5985717  60.5627194 145.9046270  84.8009900  63.7534705 150.5334130
  84.3472227  62.9125615 150.5899321  84.1703867  64.3896103 150.8708911
  83.7442820  54.6826691 151.7634798  83.0065577  54.1704077 152.0945041
  83.9969593  54.2427072 150.9518075  83.2442840  65.5911202 151.4683949
  83.5365814  66.1516259 150.7496314  83.7541460  65.8839763 152.2237108
  83.8454447  47.4602943 152.3576567  84.1513324  46.6000306 152.0702482
  84.5707052  48.0520563 152.1575561  70.1378803  57.8633629 150.7458165
  69.9403203  57.2702990 150.0209232  69.5825467  57.5585840 151.4634104
  78.1175527  57.7556736 152.8652758  78.1724137  56.8030572 152.7895235
  77.3066729  57.9116175 153.3494057  79.2666721  61.6836859 144.1031042
  78.8286151  60.9672718 143.6436679  80.0077162  61.9112974 143.5416133
  76.0567887  56.3733796 150.6243137  75.2435752  56.6727966 151.0308329
  76.5526881  55.9789484 151.3417619  78.2076465  66.3691553 152.5577402
  78.1652644  66.5952399 151.6285934  79.1239164  66.1354927 152.7063203
  87.3839836  59.9594056 150.1607360  87.2457734  60.1495652 149.2328549
  87.0276054  60.7213439 150.6175411  87.4109215  62.0270583 155.1718632
  87.8445722  61.9345872 156.0201686  88.1240796  62.0028084 154.5338648
  76.3242266  63.2454582 152.3539365  77.1182864  62.7504902 152.1521940
  75.6133958  62.7172445 151.9907070  81.1437110  65.6272677 156.7051732
  81.1974132  66.1963613 157.4729448  80.2751891  65.7974562 156.3405769
  72.6325029  57.3897663 148.4299117  71.7022617  57.3282119 148.6469079
  72.7282501  56.8673616 147.6335759  72.5510578  53.9152476 151.0177359
  72.8117395  54.8297809 150.9086519  73.3727750  53.4476919 151.1673972
  88.2724765  62.0694284 157.7051517  88.4660655  62.9740094 157.9510792
  88.1725383  61.6101703 158.5390102  80.1025210  59.7932939 158.2638664
  81.0317270  59.9444099 158.0907631  79.6816240  59.8816960 157.4087311
  78.9013542  63.8183604 156.0337202  78.7624627  63.4502388 156.9063140
  78.1128138  64.3331243 155.8621159  79.4961694  68.9192700 147.3762738
  79.6713449  68.4480743 148.1908361  78.8094482  69.5458466 147.6043999
  80.4518757  63.1965206 153.4226039  80.1168589  63.1565976 154.3183689
  79.9522702  62.5309922 152.9496450  83.3877948  60.5421241 143.6963099
  82.7707119  59.8168069 143.5996152  82.9194437  61.3030601 143.3530173
  85.0432080  65.2520149 161.3568879  84.9844626  64.5679369 160.6899462
  85.4451598  65.9939139 160.9049505  74.0622779  72.0682063 154.1502598
  74.3019377  72.7000587 154.8281617  73.2191975  71.7170103 154.4367958
  75.1776494  54.7606665 142.8184403  74.3005961  54.6395466 142.4546650
  75.6534247  53.9692743 142.5663292  85.0449487  63.2159733 159.5882859
  84.1576266  62.8785655 159.7109258  85.6148038  62.4842764 159.8251625
  78.5750641  67.8761185 156.5544102  78.5020812  68.6816157 157.0663407
  78.1328034  68.0753151 155.7292124  78.3640420  67.1132955 150.0646924
  77.5807942  67.6554635 150.1585148  79.0633165  67.6306935 150.4641165
  81.6737070  52.9227585 152.7081129  82.1705770  52.1697547 152.3882200
  80.9024052  52.9591901 152.1424339  89.5266828  58.6267950 154.3499421
  89.5156704  59.5092666 153.9793354  88.6584207  58.2739501 154.1553958
  81.0349324  67.7748019 158.7102261  81.7477296  68.4095484 158.6378162
  80.5439353  67.8711885 157.8942263  82.7566851  61.6799272 150.2819553
  81.8223130  61.8000734 150.1124257  82.9343520  60.7771739 150.0179563
  78.2572039  55.0644968 152.4352814  77.8869827  54.5116008 153.1233719
  78.7531132  54.4603101 151.8827814  86.1439402  57.5216591 150.8169587
  86.6099855  58.3544583 150.7429889  86.5946903  57.0561573 151.5214845
  76.0861238  65.5242463 159.5307832  76.7870697  66.1578946 159.6837226
  75.6156353  65.8657194 158.7703471  84.2115634  63.8660413 147.8155739
  84.4875477  63.7517007 148.7249613  83.3420132  63.4677897 147.7767912
  83.8862524  58.0787070 157.3560382  83.2333974  58.3262978 156.7012835
  84.2642904  57.2651208 157.0222859  80.8469698  68.1146763 151.4588552
  81.0292092  67.2968419 151.9216305  81.6702684  68.3314456 151.0213442
  81.1811863  67.0414949 148.7203601  81.7099630  66.5307403 148.1073763
  81.4440083  66.7257479 149.5849134  71.6828956  65.0578818 156.4638934
  72.2682393  64.3122506 156.5966839  71.4853794  65.3682775 157.3475598
  74.5367611  68.0930065 151.4801377  73.8677986  68.5776193 150.9965417
  74.3980481  68.3399286 152.3944755  78.6772880  70.1273809 158.0784035
  79.2291188  70.2905430 158.8433120  79.0179073  70.7178247 157.4064060
  69.9055188  56.3548520 148.2597309  70.2008629  55.4459199 148.2064363
  69.0043224  56.3336260 147.9378311  81.8141267  68.0755784 155.0647717
  81.6892406  67.2745524 154.5558663  82.4720358  68.5701978 154.5761687
  83.8776175  65.8764804 156.6927267  82.9306511  65.7570156 156.6205594
  84.2258948  64.9887302 156.7753529  71.6343030  54.0362618 148.3836634
  71.3055736  53.1559997 148.2011740  71.9882400  53.9810287 149.2713023
  80.8822609  65.6717521 152.8931620  80.7347571  64.7434228 153.0739190
  81.7076102  65.6937611 152.4088695  74.7484853  54.3235588 148.7512112
  75.0880925  54.8521509 148.0290720  75.1956973  54.6615994 149.5270678
  84.4856730  66.4946079 153.9796492  85.4103278  66.2888941 153.8420944
  84.3172034  66.2462480 154.8885834  76.7353000  52.8210209 146.9505405
  77.4561363  53.1991462 146.4469121  76.1118304  53.5399086 147.0540383
  80.8784123  53.5255358 147.8863737  81.0947737  54.4079996 147.5852565
  80.3978190  53.1341572 147.1569379  84.2752047  67.0131747 149.3358584
  84.4488924  66.4478169 148.5832436  84.7680938  67.8132642 149.1538074
  76.8816623  52.3558000 149.7802941  77.0032534  51.4274646 149.9793829
  76.5918665  52.3696686 148.8681257  90.1291438  59.7768170 150.9548884
  90.5722584  59.0275495 150.5568007  89.2517948  59.7678306 150.5722616
  85.2627219  66.3298511 146.4355482  85.9578124  66.9505204 146.6542797
  85.6050369  65.4793862 146.7107860  87.1618642  63.7798217 147.9642813
  87.6869966  64.1185489 147.2392133  87.0740995  62.8445232 147.7805948
  78.8238691  67.6932290 160.0932690  79.1325817  67.4481437 160.9655389
  79.6214173  67.8978929 159.6051560  78.8459303  69.8470200 152.3238066
  78.4064293  69.3546579 153.0170923  79.5967420  69.3043168 152.0830141
  71.3251642  66.0381741 152.3262694  72.1509662  65.7385513 151.9461338
  70.9745694  65.2689363 152.7752483  76.2933175  65.3908209 154.3960368
  75.6713184  64.7278914 154.0962596  76.9638042  65.4169341 153.7134016
  69.5260247  63.9568067 153.2851628  68.6892155  63.5290242 153.1035629
  69.4983892  64.1500511 154.2222419  86.8512548  64.4131120 163.2694011
  86.0608092  64.3955259 162.7298510  86.6145903  64.9519414 164.0243048
  86.9710423  61.2623587 160.5826739  87.0208428  61.0973594 161.5242262
  86.8624347  60.3950846 160.1924620  75.8546682  63.9412132 147.8718828
  76.0034802  64.6247597 147.2185501  76.6613126  63.9217222 148.3868284
  88.4728620  63.6820528 160.8268761  88.1813428  64.0450509 161.6632222
  87.8600751  62.9687536 160.6482093  89.6724303  61.2473408 153.3471331
  90.5071194  61.6863212 153.5108892  89.8083431  60.7712061 152.5279577
  86.7215808  58.8053143 159.2948819  87.1969930  58.9980789 158.4867670
  85.7981374  58.8612329 159.0492203  73.6099315  59.9677310 148.8779897
  73.3645357  59.0639640 149.0760107  73.7795230  59.9694460 147.9359375
  72.8794963  55.7005668 146.3766059  72.1864208  55.7750023 145.7206095
  72.6346714  54.9366011 146.8987576  79.3542088  66.4360263 145.3430576
  78.7816055  67.0550450 144.8901048  79.9274881  66.9859625 145.8770498
  82.5739347  66.7197413 146.4739158  83.5070021  66.6542975 146.6772034
  82.4862560  67.5553680 146.0153691  85.2027364  66.0363283 143.4343106
  85.1240996  65.7023147 144.3278864  86.0237031  66.5285051 143.4334578
  87.9005555  58.9025023 156.6419424  87.8681875  57.9641023 156.8279108
  88.5106179  58.9809059 155.9085249  79.7388886  57.7721076 142.6846628
  80.6847991  57.6427284 142.7535046  79.3603131  57.0335737 143.1616056
  88.0500044  55.6936066 156.6877707  87.5339092  54.9094523 156.5007636
  88.9339992  55.3654783 156.8524227  85.7110771  49.4377082 152.6473520
  85.5135592  49.1292170 153.5316852  86.3210476  50.1638721 152.7771450
  93.7182105  59.9641029 155.7825461  94.4485494  59.7026318 156.3433164
  93.1089051  59.2269751 155.8227529  91.7997402  58.1048892 156.3799912
  91.0730566  57.9704857 155.7716404  91.3844689  58.4125721 157.1856630
  77.9231803  55.6971052 142.6201514  77.0163259  55.4004165 142.6964227
  78.2007784  55.4000870 141.7535800  79.5393869  50.2407942 148.7745755
  78.7294597  49.8955027 149.1501001  80.2278286  49.9315485 149.3633366
  81.4684417  49.3185989 150.3970051  82.0215456  49.7381442 151.0560075
  81.7054504  48.3921737 150.4393007  76.6930588  52.5557987 142.7613493
  77.5549752  52.8812886 143.0209310  76.8780932  51.7689483 142.2486559
  84.8463224  51.4286514 149.9048716  84.2661893  52.0871318 149.5226768
  84.5799157  50.6063858 149.4936133  83.2966791  50.8291571 152.1070036
  83.7966569  50.9408106 151.2984355  83.9402399  50.5252624 152.7470844
  70.6234746  60.5698581 152.9159696  70.6005434  60.6686268 151.9641579
  70.9335383  61.4163731 153.2376863  83.6288102  53.5886604 148.9605064
  82.7413957  53.8736255 148.7425259  84.0442091  53.4280367 148.1132341
  86.9802638  53.6133125 152.6759403  87.7563029  54.1029577 152.9484020
  86.2550773  54.0391179 153.1331273  89.4175197  54.3260744 153.7333344
  90.0119688  54.0856480 153.0226652  89.4901781  53.6067875 154.3606880
  71.6372353  68.1694355 154.0476509  71.5026821  67.4094756 153.4814507
  71.2204415  68.8935255 153.5805298  82.7731316  63.3531279 143.0553084
  83.4767166  63.5581281 143.6710740  82.0493965  63.9208041 143.3202167
  83.6029126  59.1041140 149.1755354  83.5464328  59.5609691 148.3362987
  84.1557469  58.3431825 148.9978197  87.4133932  54.8930872 150.0005474
  87.1570866  54.4927508 150.8313681  86.7886800  55.6074666 149.8755613
  91.7246270  57.6326945 152.5076765  91.1645828  57.7020134 153.2808327
  91.1189773  57.4567930 151.7876261  74.7941479  69.0663672 154.2594951
  74.6773863  70.0109105 154.1573642  73.9733925  68.7637234 154.6480751
  84.6818013  63.7913808 145.1051544  85.5163617  63.3595006 144.9229019
  84.5202356  63.6195822 146.0328438  84.3363905  60.2945921 146.4707883
  84.2812709  60.1290193 145.5296327  83.7109961  61.0021954 146.6270073
  77.6460031  49.7954030 146.0493202  77.6338701  50.7395870 146.2061473
  78.5383453  49.6124176 145.7552663  75.8195993  69.7191934 157.4750880
  76.7223240  69.7515544 157.7917375  75.5933363  68.7892385 157.4897216
  77.5749595  68.4722921 154.1360958  76.6245226  68.4724782 154.0225331
  77.8782081  67.7255655 153.6196993  81.4612150  46.3896807 150.3039139
  80.6944546  45.8355294 150.4495821  81.8722855  46.4618676 151.1653290
  93.3102288  74.3083459 155.2006721  93.9480698  74.1890206 154.4970061
  93.1923131  75.2564303 155.2594673  90.1191995  74.2610887 155.1368245
  89.7810506  74.1451952 154.2488780  90.9881763  73.8602052 155.1169252
  85.9778810  76.1146364 151.1265136  85.4143675  76.0236300 150.3581424
  85.8631205  75.2946268 151.6067629  83.5243242  77.6097555 153.9649357
  84.3164534  77.2688380 153.5495656  83.7639892  77.7192530 154.8851510
  91.5578369  79.7817331 146.4379601  90.9066349  80.3671412 146.0513615
  92.3522732  80.3123526 146.4974639  85.4833996  76.8706468 146.8366736
  86.2564872  76.3235455 146.6979611  85.8359395  77.7350718 147.0481197
  88.2475246  75.5759699 156.6334995  88.8438818  75.3515722 155.9191958
  88.3050217  74.8344445 157.2360442  87.8200274  73.0299135 144.4685186
  88.0725795  72.5080656 143.7068649  86.8824833  72.8665280 144.5711869
  92.8643557  72.0334913 152.2759929  93.6506646  71.6154336 151.9250346
  93.1282261  72.9381005 152.4441577  93.0353634  77.4707763 146.9748586
  92.3999467  77.5442390 147.6869490  92.7051041  78.0601362 146.2967665
  98.2651984  71.9710146 153.1792907  98.9977156  71.4009363 153.4130737
  97.5091340  71.5831747 153.6199413  87.5396563  74.9327240 146.6709561
  87.4232821  74.2572144 147.3390645  87.6498823  74.4459614 145.8541714
  89.8828104  74.3937388 150.3756250  89.5186311  73.8668009 151.0869171
  90.7395220  74.0035857 150.2022735  95.7877404  65.6831720 157.6387516
  95.4560729  66.5527131 157.4148731  95.1923018  65.3668004 158.3181546
  89.5233591  69.4227287 145.3717598  89.6907993  70.2907524 145.7388069
  89.3330760  69.5854569 144.4478888  85.7321405  74.3358063 153.0720133
  84.8071902  74.2034277 153.2797825  85.9805818  75.1152282 153.5690075
  95.6806068  70.4026806 154.7180866  94.7722945  70.3342215 154.4239627
  95.6293663  70.8798751 155.5462691  89.5022812  71.8784945 146.3564265
  89.3822437  72.3241996 147.1949745  88.8075400  72.2270262 145.7977803
  83.0930216  73.9791337 153.9063922  83.2222598  74.2325815 154.8203334
  82.4127668  74.5719045 153.5868577  87.2629704  84.6488587 150.0054396
  87.1853733  85.5996412 150.0842877  86.6591347  84.3034459 150.6629323
  97.5467714  68.6043245 156.4958740  96.9042094  68.8975778 155.8498534
  97.0422643  68.4896165 157.3011937  95.2007878  72.3506418 147.1844599
  96.1125734  72.5833805 147.0092297  94.6917525  72.9343462 146.6219678
  89.8379715  71.7103653 158.1939449  90.6840911  72.1343066 158.3374098
  89.7778353  71.0537277 158.8878012  92.5443852  68.5264454 155.4334460
  91.6828331  68.8245707 155.7251198  92.5706287  68.7434853 154.5015493
  89.3605422  77.0706644 151.8408266  89.8243767  77.3494347 151.0512888
  89.0962220  76.1690089 151.6581356  86.2529503  76.6178126 154.7788029
  86.8230860  77.0465394 154.1405513  86.8437615  76.3360711 155.4772215
  88.2974308  73.1929797 148.6497831  88.9998351  73.6450841 149.1171757
  87.9654936  72.5513616 149.2777724  82.0399642  71.4513350 153.9514964
  81.2498696  71.7070878 153.4755075  82.5310889  72.2661687 154.0567005
  83.9914387  71.8157929 150.9098441  83.1945551  71.9276623 151.4281937
  83.7639979  72.1544581 150.0439332  80.3237345  71.7043840 156.3829955
  80.5745383  72.5890850 156.6487531  80.8596893  71.5248441 155.6105047
  89.5368073  80.0070739 148.7259936  89.4013747  80.8522275 149.1544784
  90.0777885  80.2090017 147.9625870  82.9897470  77.5246178 149.2987861
  83.5021990  78.3189428 149.4493426  83.6420183  76.8272468 149.2321463
  84.7992355  80.6411934 151.3810614  84.9758983  81.5629898 151.1931598
  85.5949188  80.3270353 151.8104994  84.0844711  72.6876566 161.2572778
  83.9698226  71.7861823 161.5579876  83.2289229  72.9340262 160.9057594
  92.8860536  63.5301301 157.2558830  92.5424805  64.4202943 157.1797940
  93.2539499  63.3402959 156.3928415  80.9546387  75.8534832 150.0747432
  81.7921609  76.2631840 149.8581139  81.1324654  74.9134274 150.0447626
  92.8510819  73.5209912 145.7631265  92.3357442  74.2914517 146.0019652
  92.5788127  72.8475049 146.3864326  90.4357930  68.3659613 150.8216503
  89.5799526  67.9766464 150.6422142  90.8484882  68.4451574 149.9616289
  91.9657076  65.9005957 155.2208063  91.4621872  65.8636092 154.4075868
  92.2587683  66.8098699 155.2804719  88.2099962  65.9844686 154.2274245
  89.0752959  65.7887495 153.8680134  88.2777471  65.7555038 155.1543601
  97.8245093  76.2742267 147.6984438  97.0474536  75.9353427 147.2539600
  98.5036574  76.2794890 147.0239403  92.6397122  71.3937005 147.5891046
  92.3347258  71.7083154 148.4401189  93.5927564  71.4718424 147.6318379
  91.0843554  77.5527228 149.2384000  90.5564915  76.8179987 148.9257237
  90.5831057  78.3301904 148.9923968  85.8162281  68.2146894 151.5990611
  86.3906033  67.9922076 150.8663804  86.4033264  68.2835589 152.3519213
  94.8741859  74.1020621 152.4054988  95.3873740  74.7350613 152.9076698
  95.5243083  73.5021817 152.0398348  86.1431869  70.2451355 145.6186497
  85.3069181  70.5826042 145.9395771  86.0036638  70.1100335 144.6813634
  88.1184949  65.0888143 150.3265681  87.4649361  64.7737160 149.7022296
  88.0765423  64.4663884 151.0525504  89.2296154  75.3707438 142.2418973
  88.3223216  75.1396692 142.4410122  89.7267186  74.5745057 142.4292954
  92.1364233  84.0804945 145.1615659  91.4625932  84.3836642 145.7700617
  92.5230055  84.8834026 144.8121116  91.3522690  71.5770077 154.6513328
  90.4345251  71.7985024 154.4935016  91.7682833  71.6516387 153.7925036
  92.1357737  72.9761492 149.7816009  92.8829556  73.4882889 149.4723131
  92.4049327  72.6545545 150.6420402  90.4084387  75.4720033 146.7642963
  89.4995607  75.1879066 146.8615433  90.4379471  75.8919112 145.9046270
  95.6403655  79.0826623 150.5334130  95.1865982  78.2417532 150.5899321
  95.0097622  79.7188021 150.8708911  94.5836574  70.0118609 151.7634798
  93.8459331  69.4995995 152.0945041  94.8363348  69.5718990 150.9518075
  94.0836594  80.9203119 151.4683949  94.3759568  81.4808176 150.7496314
  94.5935215  81.2131680 152.2237108  94.6848202  62.7894861 152.3576567
  94.9907079  61.9292224 152.0702482  95.4100807  63.3812481 152.1575561
  80.9772558  73.1925547 150.7458165  80.7796958  72.5994908 150.0209232
  80.4219222  72.8877757 151.4634104  88.9569281  73.0848654 152.8652758
  89.0117891  72.1322490 152.7895235  88.1460484  73.2408093 153.3494057
  90.1060475  77.0128777 144.1031042  89.6679905  76.2964636 143.6436679
  90.8470916  77.2404891 143.5416133  86.8961641  71.7025713 150.6243137
  86.0829507  72.0019884 151.0308329  87.3920636  71.3081402 151.3417619
  89.0470219  81.6983470 152.5577402  89.0046398  81.9244317 151.6285934
  89.9632918  81.4646845 152.7063203  98.2233590  75.2885974 150.1607360
  98.0851489  75.4787570 149.2328549  97.8669809  76.0505357 150.6175411
  86.3875716  69.2744069 156.2404372  87.0275095  69.1332828 155.5427335
  85.5553247  68.9878582 155.8642974  87.1636020  78.5746499 152.3539365
  87.9576619  78.0796819 152.1521940  86.4527712  78.0464362 151.9907070
  83.4718784  72.7189581 148.4299117  82.5416372  72.6574037 148.6469079
  83.5676256  72.1965534 147.6335759  83.3904333  69.2444394 151.0177359
  83.6511150  70.1589727 150.9086519  84.2121505  68.7768836 151.1673972
  84.8629258  70.6582151 158.1876183  85.5352311  70.4499513 157.5388832
  84.0359044  70.4604237 157.7481416  90.7654830  67.2844092 160.2041844
  90.1182745  67.9834042 160.1106321  91.5355845  67.7180236 160.5718093
  90.3355448  84.2484618 147.3762738  90.5107204  83.7772661 148.1908361
  89.6488236  84.8750384 147.6043999  91.2912511  78.5257124 153.4226039
  90.9562344  78.4857894 154.3183689  90.7916457  77.8601840 152.9496450
  85.2656755  73.9324754 158.9478621  85.1276553  73.2004993 159.5490160
  86.1761679  73.8433654 158.6662808  94.2271703  75.8713158 143.6963099
  93.6100874  75.1459986 143.5996152  93.7588191  76.6322519 143.3530173
  86.6067990  70.6309931 160.2557940  86.0705347  70.1800670 160.9079536
  86.0184698  70.7655840 159.5128404  86.0170249  70.0898583 142.8184403
  85.1399715  69.9687383 142.4546650  86.4928002  69.2984661 142.5663292
  77.5372389  74.8775742 152.9125911  78.2243429  74.5637472 152.3246926
  77.3820518  75.7817107 152.6393162  82.3407111  69.7665939 157.3410934
  82.2565300  69.1591608 156.6061344  81.5189817  70.2574957 157.3420431
  89.2034175  82.4424873 150.0646924  88.4201697  82.9846553 150.1585148
  89.9026920  82.9598853 150.4641165  92.5130825  68.2519502 152.7081129
  93.0099524  67.4989465 152.3882200  91.7417806  68.2883819 152.1424339
  93.5960606  77.0091190 150.2819553  92.6616884  77.1292652 150.1124257
  93.7737274  76.1063656 150.0179563  89.0965794  70.3936885 152.4352814
  88.7263581  69.8407926 153.1233719  89.5924886  69.7895019 151.8827814
  96.9833157  72.8508509 150.8169587  97.4493609  73.6836501 150.7429889
  97.4340657  72.3853491 151.5214845  95.0509388  79.1952330 147.8155739
  95.3269232  79.0808925 148.7249613  94.1813887  78.7969815 147.7767912
  94.9549820  65.2189096 154.8560488  94.0412900  65.4493323 155.0242695
  95.3842921  65.3027540 155.7074521  91.6863452  83.4438681 151.4588552
  91.8685847  82.6260337 151.9216305  92.5096438  83.6606373 151.0213442
  92.0205618  82.3706866 148.7203601  92.5493384  81.8599321 148.1073763
  92.2833837  82.0549396 149.5849134  82.5222710  80.3870735 156.4638934
  83.1076147  79.6414423 156.5966839  82.3247549  80.6974692 157.3475598
  85.3761366  83.4221983 151.4801377  84.7071741  83.9068111 150.9965417
  85.2374235  83.6691203 152.3944755  77.1140365  72.9576336 155.1843378
  77.1524465  72.4239926 155.9780496  76.6080658  72.4311541 154.5654355
  84.4931127  67.8040876 158.6805920  84.5572454  68.6655707 158.2683318
  84.4298248  67.1914878 157.9478278  83.9683400  69.8764009 162.3278954
  84.5955439  69.4941086 162.9416479  83.1111319  69.6578211 162.6934647
  80.7448943  71.6840438 148.2597309  81.0402384  70.7751116 148.2064363
  79.8436978  71.6628177 147.9378311  84.2743190  69.7596434 154.2424858
  83.5529775  70.3732402 154.1032331  85.0636445  70.2954199 154.1641504
  87.0769503  67.0950861 160.5165509  87.6003905  67.3413157 161.2791819
  86.8581836  67.9270896 160.0968647  82.4736784  69.3654536 148.3836634
  82.1449490  68.4851914 148.2011740  82.8276155  69.3102204 149.2713023
  91.7216363  81.0009438 152.8931620  91.5741326  80.0726146 153.0739190
  92.5469857  81.0229529 152.4088695  85.5878607  69.6527505 148.7512112
  85.9274680  70.1813427 148.0290720  86.0350728  69.9907911 149.5270678
  88.2822048  68.0364556 158.2015180  87.9418869  67.2372369 158.6035860
  87.5761054  68.3366267 157.6292013  88.9338520  65.1213868 156.6542503
  89.7564589  64.6474347 156.5321393  89.1776584  65.9004352 157.1541189
  87.5746755  68.1502127 146.9505405  88.2955117  68.5283380 146.4469121
  86.9512059  68.8691004 147.0540383  91.7177877  68.8547276 147.8863737
  91.9341492  69.7371914 147.5852565  91.2371945  68.4633489 147.1569379
  86.4577099  71.8132989 154.4634482  86.3121679  72.1273292 155.3558763
  85.9802302  72.4317889 153.9105380  88.3173482  68.8035537 154.5115371
  88.3035050  67.9076630 154.1747669  89.0345910  68.8106201 155.1453657
  90.1699612  69.2372877 156.5568499  89.9117390  70.1589948 156.5552829
  89.6384653  68.8403312 157.2468963  95.1145801  82.3423664 149.3358584
  95.2882679  81.7770087 148.5832436  95.6074692  83.1424559 149.1538074
  80.9322761  74.3538333 157.4022143  80.3876229  75.1298141 157.5342417
  81.8102111  74.7009138 157.2441264  87.7210378  67.6849917 149.7802941
  87.8426289  66.7566564 149.9793829  87.4312420  67.6988603 148.8681257
  90.5901568  65.3704828 152.9169661  90.6123265  65.4344161 151.9621641
  91.0069627  64.5309336 153.1110167 100.9685192  75.1060087 150.9548884
 101.4116338  74.3567413 150.5568007 100.0911703  75.0970224 150.5722616
  96.1020974  81.6590429 146.4355482  96.7971878  82.2797122 146.6542797
  96.4444124  80.8085780 146.7107860  81.7188783  73.4808230 160.2952300
  80.9770519  73.6290865 160.8816930  81.3981527  73.7416495 159.4319049
  98.0012397  79.1090134 147.9642813  98.5263721  79.4477407 147.2392133
  97.9134749  78.1737150 147.7805948  82.1645396  81.3673658 152.3262694
  82.9903416  81.0677430 151.9461338  81.8139448  80.5981281 152.7752483
  87.1326930  80.7200127 154.3960368  86.5106939  80.0570832 154.0962596
  87.8031797  80.7461259 153.7134016  80.3654002  79.2859985 153.2851628
  79.5285910  78.8582159 153.1035629  80.3377647  79.4792428 154.2222419
  86.6940437  79.2704050 147.8718828  86.8428557  79.9539514 147.2185501
  87.5006880  79.2509140 148.3868284  84.4493070  75.2969228 148.8779897
  84.2039111  74.3931558 149.0760107  84.6188984  75.2986378 147.9359375
  92.1389779  66.1692904 158.2604653  92.6571723  66.9053931 157.9351141
  91.7844912  66.4756897 159.0951412  83.7188717  71.0297585 146.3766059
  83.0257962  71.1041940 145.7206095  83.4740469  70.2657929 146.8987576
  92.3902374  62.5893187 153.7805549  92.6704127  61.9216376 154.4065976
  93.1752981  62.7822282 153.2680213  90.1935842  81.7652180 145.3430576
  89.6209809  82.3842368 144.8901048  90.7668636  82.3151542 145.8770498
  94.2825611  68.0966404 157.7136526  93.6875544  68.3771417 157.0183014
  93.9975308  68.5860305 158.4853267  93.4133102  82.0489331 146.4739158
  94.3463775  81.9834892 146.6772034  93.3256315  82.8845597 146.0153691
  96.0421119  81.3655201 143.4343106  95.9634750  81.0315065 144.3278864
  96.8630785  81.8576969 143.4334578  90.5782641  73.1012993 142.6846628
  91.5241745  72.9719201 142.7535046  90.1996886  72.3627655 143.1616056
  96.5504525  64.7668999 152.6473520  96.3529346  64.4584087 153.5316852
  97.1604231  65.4930638 152.7771450  88.7625558  71.0262970 142.6201514
  87.8557013  70.7296082 142.6964227  89.0401539  70.7292788 141.7535800
  79.6803498  72.3469333 153.0700560  79.3606282  71.4934641 152.7774934
  79.1336926  72.5617911 153.8258527  83.4583406  75.0631774 156.7870066
  83.6769415  75.9948882 156.8058100  83.8709179  74.7039748 157.5724870
  90.3787623  65.5699859 148.7745755  89.5688352  65.2246944 149.1501001
  91.0672040  65.2607403 149.3633366  92.3078172  64.6477906 150.3970051
  92.8609210  65.0673360 151.0560075  92.5448258  63.7213654 150.4393007
  87.5324342  67.8849905 142.7613493  88.3943506  68.2104803 143.0209310
  87.7174687  67.0981401 142.2486559  79.5491758  75.9672245 155.0393681
  78.8555230  75.5526197 154.5263636  80.2964749  76.0092781 154.4427100
  95.6856979  66.7578431 149.9048716  95.1055648  67.4163235 149.5226768
  95.4192912  65.9355776 149.4936133  94.1360545  66.1583489 152.1070036
  94.6360324  66.2700024 151.2984355  94.7796153  65.8544542 152.7470844
  81.4628501  75.8990498 152.9159696  81.4399189  75.9978186 151.9641579
  81.7729137  76.7455649 153.2376863  84.1215879  77.9566653 157.0306311
  85.0759132  77.9250596 156.9636242  83.9228402  77.4957277 157.8456537
  94.4681857  68.9178522 148.9605064  93.5807712  69.2028172 148.7425259
  94.8835846  68.7572285 148.1132341  97.8196393  68.9425043 152.6759403
  98.5956783  69.4321495 152.9484020  97.0944527  69.3683097 153.1331273
 100.2568952  69.6552662 153.7333344 100.8513442  69.4148398 153.0226652
 100.3295535  68.9359792 154.3606880  82.4766107  83.4986273 154.0476509
  82.3420575  82.7386674 153.4814507  82.0598170  84.2227173 153.5805298
  93.6125070  78.6823196 143.0553084  94.3160920  78.8873199 143.6710740
  92.8887719  79.2499958 143.3202167  94.4422881  74.4333058 149.1755354
  94.3858082  74.8901609 148.3362987  94.9951223  73.6723742 148.9978197
  98.2527687  70.2222790 150.0005474  97.9964621  69.8219425 150.8313681
  97.6280555  70.9366583 149.8755613 102.5640024  72.9618863 152.5076765
 102.0039582  73.0312052 153.2808327 101.9583528  72.7859847 151.7876261
  95.5211768  79.1205726 145.1051544  96.3557372  78.6886924 144.9229019
  95.3596111  78.9487739 146.0328438  95.1757660  75.6237839 146.4707883
  95.1206464  75.4582110 145.5296327  94.5503715  76.3313872 146.6270073
  79.9650175  70.8605903 160.2969306  80.6109038  70.3504857 160.7856531
  79.7567326  71.5974585 160.8712731  88.4853785  65.1245948 146.0493202
  88.4732455  66.0687788 146.2061473  89.3777207  64.9416093 145.7552663
  92.3005905  61.7188725 150.3039139  91.5338301  61.1647211 150.4495821
  92.7116610  61.7910593 151.1653290  98.6594028  88.3591052 144.4685186
  98.9119549  87.8372573 143.7068649  97.7218588  88.1957198 144.5711869
 100.3627345  84.7519205 145.3717598 100.5301747  85.6199441 145.7388069
 100.1724514  84.9146487 144.4478888  96.9825623  85.5743273 145.6186497
  96.1462935  85.9117959 145.9395771  96.8430393  85.4392253 144.6813634
  98.9578704  80.4180061 150.3265681  98.3043116  80.1029078 149.7022296
  98.9159178  79.7955801 151.0525504 100.0689908  90.6999356 142.2418973
  99.1616970  90.4688609 142.4410122 100.5660940  89.9036975 142.4292954
  96.8564003  85.4190500 142.8184403  95.9793470  85.2979301 142.4546650
  97.3321756  84.6276579 142.5663292  91.5842697  87.0132356 148.2597309
  91.8796138  86.1043034 148.2064363  90.6830733  86.9920095 147.9378311
  93.3130539  84.6946453 148.3836634  92.9843245  83.8143832 148.2011740
  93.6669909  84.6394122 149.2713023  98.4140509  83.4794045 146.9505405
  99.1348871  83.8575297 146.4469121  97.7905813  84.1982921 147.0540383
  94.5582472  86.3589503 146.3766059  93.8651716  86.4333858 145.7206095
  94.3134223  85.5949847 146.8987576 101.4176395  88.4304911 142.6846628
 102.3635500  88.3011119 142.7535046 101.0390640  87.6919573 143.1616056
  99.6019312  86.3554887 142.6201514  98.6950768  86.0588000 142.6964227
  99.8795293  86.0584705 141.7535800 101.2181378  80.8991777 148.7745755
 100.4082106  80.5538862 149.1501001 101.9065795  80.5899321 149.3633366
  98.3718097  83.2141823 142.7613493  99.2337261  83.5396721 143.0209310
  98.5568441  82.4273318 142.2486559  99.3247540  80.4537866 146.0493202
  99.3126210  81.3979705 146.2061473 100.2170962  80.2708011 145.7552663
  69.8790861  26.1295618 133.1624908  69.2278841  26.7149699 132.7758922
  70.6735224  26.6601813 133.2219945  76.1457585  22.6220554 134.4229745
  75.3687028  22.2831714 133.9784907  76.8249066  22.6273178 133.7484710
  67.5508646  21.7185725 128.9664279  66.6435708  21.4874979 129.1655428
  68.0479678  20.9223345 129.1538261  70.4576725  30.4283233 131.8860966
  69.7838424  30.7314929 132.4945923  70.8442547  31.2312313 131.5366423
  68.4272968  23.3607064 130.8276348  67.9892397  22.6442923 130.3681985
  69.1683408  23.5883179 130.2661440  68.6567940  30.5962905 134.1008045
  68.8319696  30.1250948 134.9153667  67.9700728  31.2228671 134.3289306
  72.5484195  22.2191446 130.4208406  71.9313366  21.4938274 130.3241458
  72.0800684  22.9800806 130.0775480  73.3721880  25.5430617 134.5401045
  73.6481724  25.4287212 135.4494920  72.5026379  25.1448102 134.5013219
  70.3418110  28.7185153 135.4448908  70.8705876  28.2077608 134.8319070
  70.6046329  28.4027684 136.3094441  73.4358293  28.6901952 136.0603891
  73.6095171  28.1248374 135.3077743  73.9287185  29.4902847 135.8783381
  74.4233466  28.0068716 133.1600789  75.1184371  28.6275409 133.3788103
  74.7656616  27.1564067 133.4353167  76.3224889  25.4568422 134.6888120
  76.8476213  25.7955694 133.9637440  76.2347242  24.5215437 134.5051254
  68.5148334  28.1130468 132.0675882  67.9422301  28.7320655 131.6146354
  69.0881128  28.6629829 132.6015804  71.7345594  28.3967618 133.1984465
  72.6676267  28.3313180 133.4017340  71.6468807  29.2323885 132.7398997
  74.3633611  27.7133488 130.1588412  74.2847242  27.3793352 131.0524170
  75.1843278  28.2055256 130.1579885  68.8995133  19.4491281 129.4091935
  69.8454238  19.3197489 129.4780353  68.5209378  18.7105942 129.8861363
  71.9337563  25.0301484 129.7798391  72.6373413  25.2351486 130.3956046
  71.2100211  25.5978246 130.0447474  73.8424260  25.4684013 131.8296851
  74.6769864  25.0365211 131.6474325  73.6808603  25.2966027 132.7573745
  73.4970152  21.9716126 133.1953190  73.4418956  21.8060398 132.2541634
  72.8716207  22.6792159 133.3515380  82.4708535  35.9853664 141.9252027
  83.1086945  35.8660411 141.2215367  82.3529378  36.9334508 141.9839980
  79.2798241  35.9381092 141.8613552  78.9416753  35.8222157 140.9734087
  80.1488010  35.5372257 141.8414558  75.1385057  37.7916568 137.8510443
  74.5749922  37.7006505 137.0826731  75.0237452  36.9716473 138.3312936
  72.6849489  39.2867760 140.6894663  73.4770781  38.9458585 140.2740963
  72.9246139  39.3962735 141.6096817  80.7184616  41.4587536 133.1624908
  80.0672596  42.0441617 132.7758922  81.5128979  41.9893731 133.2219945
  74.6440243  38.5476673 133.5612042  75.4171119  38.0005660 133.4224918
  74.9965642  39.4120923 133.7726504  77.4081492  37.2529904 143.3580301
  78.0045065  37.0285926 142.6437264  77.4656464  36.5114650 143.9605749
  76.9806521  34.7069339 131.1930492  77.2332041  34.1850861 130.4313955
  76.0431080  34.5435485 131.2957176  82.0249804  33.7105118 139.0005235
  82.8112893  33.2924541 138.6495652  82.2888508  34.6151210 139.1686884
  82.1959881  39.1477968 133.6993892  81.5605714  39.2212595 134.4114797
  81.8657287  39.7371567 133.0212971  87.4258231  33.6480351 139.9038214
  88.1583403  33.0779568 140.1376043  86.6697586  33.2601951 140.3444720
  76.7002809  36.6097445 133.3954867  76.5839068  35.9342349 134.0635951
  76.8105069  36.1229819 132.5787020  79.0434350  36.0707592 137.1001556
  78.6792558  35.5438213 137.8114478  79.9001466  35.6806062 136.9268042
  78.6839837  31.0997492 132.0962905  78.8514240  31.9677729 132.4633376
  78.4937006  31.2624774 131.1724194  81.4415171  39.5614471 143.7628735
  81.1415894  40.4639510 143.6544543  81.0966230  39.2946654 144.6149888
  74.8927652  36.0128268 139.7965440  73.9678149  35.8804482 140.0043131
  75.1412065  36.7922487 140.2935382  84.8412314  32.0797011 141.4426173
  83.9329192  32.0112420 141.1484934  84.7899910  32.5568956 142.2707998
  78.6629058  33.5555150 133.0809572  78.5428683  34.0012200 133.9195052
  77.9681647  33.9040467 132.5223110  72.2536463  35.6561541 140.6309229
  72.3828844  35.9096020 141.5448640  71.5733914  36.2489249 140.3113884
  76.4235950  46.3258791 136.7299703  76.3459980  47.2766617 136.8088184
  75.8197594  45.9804664 137.3874629  84.3614124  34.0276623 133.9089906
  85.2731981  34.2604010 133.7337603  83.8523772  34.6113667 133.3464984
  82.9683707  39.0102441 141.3003487  82.3392569  39.1748155 140.5979555
  82.5809369  39.4244051 142.0714451  86.8472939  39.9456879 138.6547851
  86.1623977  40.3255781 138.1044884  86.9316788  40.5552206 139.3879799
  84.1023870  37.5916838 145.2543195  84.3140765  38.2348598 144.5777576
  84.0553618  36.7579155 144.7865125  78.5211669  38.7476849 138.5653572
  78.9850014  39.0264552 137.7758195  78.2568467  37.8460294 138.3826663
  75.4135750  38.2948331 141.5033336  75.9837107  38.7235599 140.8650820
  76.0043862  38.0130916 142.2017521  77.4580555  34.8700002 135.3743137
  78.1604598  35.3221045 135.8417064  77.1261183  34.2283821 136.0023031
  85.2169698  40.4688794 143.4265552  86.0387142  40.0668981 143.1448234
  85.2132101  40.3657028 144.3781668  73.1520634  33.4928134 137.6343748
  72.3551797  33.6046828 138.1527243  72.9246226  33.8314786 136.7684638
  78.9826302  40.0172837 145.5826262  79.0470734  40.4793244 146.4184434
  78.2737226  39.3870202 145.7108572  93.3075691  36.8127542 139.7750523
  92.5539400  36.2434940 139.6194528  93.4423232  36.7790207 140.7221158
  78.6974319  41.6840944 135.4505243  78.5619994  42.5292480 135.8790091
  79.2384132  41.8860222 134.6871177  72.1503717  39.2016382 136.0233168
  72.6628237  39.9959633 136.1738732  72.8026430  38.5042673 135.9566769
  73.9598601  42.3182139 138.1055921  74.1365230  43.2400103 137.9176905
  74.7555435  42.0040558 138.5350301  75.0829917  43.8360312 144.1066263
  75.6337342  43.7077376 143.3343257  74.2441393  44.1355202 143.7561156
  82.4224034  42.5867311 147.6086986  82.4042509  43.4076192 147.1167255
  83.3443954  42.4621386 147.8337127  70.1152633  37.5305037 136.7992738
  70.9527855  37.9402045 136.5826446  70.2930901  36.5904479 136.7692932
  82.0117066  35.1980117 132.4876571  81.4963689  35.9684722 132.7264959
  81.7394374  34.5245254 133.1109633  79.5964177  30.0429818 137.5461810
  78.7405773  29.6536669 137.3667448  80.0091128  30.1221779 136.6861595
  86.9851340  37.9512472 134.4229745  86.2080782  37.6123632 133.9784907
  87.6642821  37.9565095 133.7484710  81.8003369  33.0707209 134.3136352
  81.4953504  33.3853359 135.1646496  82.7533811  33.1488629 134.3563685
  80.2449801  39.2297433 135.9629306  79.7171162  38.4950192 135.6502544
  79.7437303  40.0072109 135.7169275  85.2242647  37.4246453 141.0796353
  84.5666321  38.1145715 141.1676481  86.0283046  37.8142885 141.4230339
  74.9768528  29.8917099 138.3235918  75.5512280  29.6692281 137.5909111
  75.5639511  29.9605794 139.0764519  84.0348105  35.7790826 139.1300294
  84.5479987  36.4120818 139.6322004  84.6849329  35.1792021 138.7643655
  75.3038115  31.9221560 132.3431803  74.4675428  32.2596247 132.6641078
  75.1642885  31.7870540 131.4058940  77.2791196  26.7658348 137.0510987
  76.6255608  26.4507365 136.4267602  77.2371670  26.1434088 137.7770810
  78.3902401  37.0477643 128.9664279  77.4829463  36.8166897 129.1655428
  78.8873433  36.2515262 129.1538261  81.2970480  45.7575150 131.8860966
  80.6232178  46.0606847 132.4945923  81.6836302  46.5604231 131.5366423
  80.5128936  33.2540282 141.3758635  79.5951498  33.4755229 141.2180323
  80.9289080  33.3286592 140.5170342  81.2963984  34.6531697 136.5061315
  82.0435803  35.1653094 136.1968437  81.5655574  34.3315750 137.3665709
  79.5690634  37.1490238 133.4888270  78.6601853  36.8649271 133.5860739
  79.5985718  37.5689316 132.6291576  84.8009902  40.7596827 137.2579437
  84.3472229  39.9187737 137.3144628  84.1703868  41.3958226 137.5954217
  83.7442821  31.6888813 138.4880105  83.0065578  31.1766200 138.8190347
  83.9969595  31.2489195 137.6763381  83.2442841  42.5973324 138.1929255
  83.5365815  43.1578381 137.4741621  83.7541461  42.8901885 138.9482414
  83.8454449  24.4665065 139.0821874  84.1513325  23.6062429 138.7947789
  84.5707053  25.0582686 138.8820868  70.1378805  34.8695752 137.4703472
  69.9403204  34.2765113 136.7454538  69.5825469  34.5647962 138.1879411
  78.1175528  34.7618859 139.5898065  78.1724138  33.8092695 139.5140541
  77.3066730  34.9178298 140.0739363  79.2666722  38.6898982 130.8276348
  78.8286152  37.9734841 130.3681985  80.0077163  38.9175096 130.2661440
  76.0567888  33.3795918 137.3488444  75.2435754  33.6790089 137.7553636
  76.5526882  32.9851607 138.0662926  78.2076466  43.3753675 139.2822708
  78.1652645  43.6014522 138.3531240  79.1239165  43.1417050 139.4308510
  87.3839837  36.9656179 136.8852667  87.2457735  37.1557775 135.9573856
  87.0276056  37.7275561 137.3420718  87.4109216  39.0332706 141.8963938
  87.8445723  38.9407995 142.7446992  88.1240797  39.0090206 141.2583954
  76.3242267  40.2516704 139.0784671  77.1182865  39.7567024 138.8767246
  75.6133959  39.7234567 138.7152377  81.1437111  42.6334800 143.4297039
  81.1974134  43.2025736 144.1974755  80.2751893  42.8036685 143.0651076
  72.6325030  34.3959786 135.1544424  71.7022618  34.3344241 135.3714386
  72.7282502  33.8735739 134.3581065  72.5510579  30.9214599 137.7422666
  72.8117397  31.8359932 137.6331826  73.3727752  30.4539041 137.8919278
  88.2724766  39.0756406 144.4296824  88.4660656  39.9802217 144.6756099
  88.1725384  38.6163825 145.2635409  80.1025211  36.7995062 144.9883971
  81.0317271  36.9506221 144.8152938  79.6816241  36.8879083 144.1332617
  78.9013543  40.8245726 142.7582508  78.7624629  40.4564511 143.6308446
  78.1128139  41.3393366 142.5866466  79.4961695  45.9254823 134.1008045
  79.6713451  45.4542866 134.9153667  78.8094483  46.5520589 134.3289306
  80.4518758  40.2027329 140.1471346  80.1168591  40.1628099 141.0428996
  79.9522704  39.5372045 139.6741756  83.3877950  37.5483363 130.4208406
  82.7707120  36.8230191 130.3241458  82.9194438  38.3092724 130.0775480
  85.0432081  42.2582272 148.0814186  84.9844627  41.5741492 147.4144769
  85.4451600  43.0001262 147.6294812  74.0622780  49.0744185 140.8747905
  74.3019378  49.7062710 141.5526924  73.2191977  48.7232225 141.1613264
  75.1776496  31.7668788 129.5429710  74.3005962  31.6457588 129.1791957
  75.6534249  30.9754866 129.2908599  85.0449489  40.2221856 146.3128166
  84.1576267  39.8847777 146.4354565  85.6148040  39.4904887 146.5496931
  78.5750642  44.8823308 143.2789409  78.5020813  45.6878279 143.7908714
  78.1328035  45.0815274 142.4537430  78.3640422  44.1195078 136.7892231
  77.5807943  44.6616758 136.8830455  79.0633167  44.6369058 137.1886472
  81.6737072  29.9289707 139.4326436  82.1705771  29.1759670 139.1127506
  80.9024053  29.9654024 138.8669645  89.5266829  35.6330073 141.0744727
  89.5156705  36.5154788 140.7038661  88.6584209  35.2801624 140.8799264
  81.0349325  44.7810142 145.4347568  81.7477298  45.4157607 145.3623469
  80.5439354  44.8774008 144.6187569  82.7566852  38.6861395 137.0064859
  81.8223131  38.8062857 136.8369564  82.9343521  37.7833861 136.7424869
  78.2572040  32.0707090 139.1598120  77.8869828  31.5178131 139.8479026
  78.7531133  31.4665224 138.6073121  86.1439404  34.5278714 137.5414893
  86.6099856  35.3606705 137.4675196  86.5946904  34.0623695 138.2460152
  76.0861239  42.5304585 146.2553138  76.7870699  43.1641068 146.4082533
  75.6156354  42.8719317 145.4948778  84.2115635  40.8722535 134.5401045
  84.4875479  40.7579130 135.4494920  83.3420134  40.4740020 134.5013219
  83.8862525  35.0849193 144.0805689  83.2333975  35.3325100 143.4258142
  84.2642905  34.2713331 143.7468166  80.8469699  45.1208886 138.1833859
  81.0292093  44.3030542 138.6461611  81.6702685  45.3376578 137.7458749
  81.1811864  44.0477071 135.4448908  81.7099631  43.5369526 134.8319070
  81.4440084  43.7319601 136.3094441  71.6828957  42.0640940 143.1884241
  72.2682394  41.3184628 143.3212145  71.4853796  42.3744897 144.0720905
  74.5367612  45.0992188 138.2046684  73.8677988  45.5838315 137.7210724
  74.3980482  45.3461408 139.1190062  78.6772881  47.1335931 144.8029342
  79.2291189  47.2967553 145.5678427  79.0179074  47.7240369 144.1309367
  69.9055189  33.3610643 134.9842616  70.2008630  32.4521321 134.9309669
  69.0043225  33.3398382 134.6623618  81.8141268  45.0817907 141.7893024
  81.6892408  44.2807647 141.2803970  82.4720359  45.5764100 141.3006994
  83.8776177  42.8826927 143.4172574  82.9306512  42.7632278 143.3450901
  84.2258950  41.9949425 143.4998836  71.6343031  31.0424740 135.1081941
  71.3055737  30.1622119 134.9257047  71.9882402  30.9872409 135.9958330
  80.8822610  42.6779643 139.6176926  80.7347572  41.7496351 139.7984496
  81.7076103  42.6999734 139.1334002  74.7484854  31.3297710 135.4757419
  75.0880927  31.8583631 134.7536027  75.1956975  31.6678116 136.2515985
  84.4856732  43.5008202 140.7041799  85.4103279  43.2951063 140.5666250
  84.3172035  43.2524603 141.6131141  76.7353001  29.8272332 133.6750711
  77.4561364  30.2053585 133.1714428  76.1118305  30.5461209 133.7785689
  80.8784124  30.5317481 134.6109044  81.0947739  31.4142119 134.3097872
  80.3978191  30.1403694 133.8814686  84.2752048  44.0193869 136.0603891
  84.4488925  43.4540292 135.3077743  84.7680939  44.8194764 135.8783381
  76.8816624  29.3620122 136.5048248  77.0032536  28.4336768 136.7039135
  76.5918667  29.3758808 135.5926563  90.1291439  36.7830292 137.6794190
  90.5722585  36.0337617 137.2813314  89.2517949  36.7740429 137.2967922
  85.2627220  43.3360634 133.1600789  85.9578125  43.9567326 133.3788103
  85.6050371  42.4855985 133.4353167  87.1618644  40.7860339 134.6888120
  87.6869968  41.1247612 133.9637440  87.0740996  39.8507355 134.5051254
  78.8238692  44.6994413 146.8177996  79.1325819  44.4543560 147.6900696
  79.6214174  44.9041051 146.3296866  78.8459304  46.8532323 139.0483373
  78.4064295  46.3608701 139.7416230  79.5967421  46.3105290 138.8075448
  71.3251643  43.0443863 139.0508001  72.1509663  42.7447635 138.6706644
  70.9745695  42.2751486 139.4997790  76.2933176  42.3970332 141.1205674
  75.6713186  41.7341037 140.8207902  76.9638043  42.4231464 140.4379322
  69.5260248  40.9630190 140.0096934  68.6892157  40.5352364 139.8280936
  69.4983894  41.1562633 140.9467726  86.8512550  41.4193243 149.9939318
  86.0608093  41.4017382 149.4543817  86.6145904  41.9581537 150.7488354
  86.9710425  38.2685709 147.3072046  87.0208430  38.1035717 148.2487569
  86.8624348  37.4012968 146.9169927  75.8546683  40.9474255 134.5964135
  76.0034804  41.6309719 133.9430808  76.6613127  40.9279345 135.1113591
  88.4728621  40.6882651 147.5514068  88.1813430  41.0512631 148.3877529
  87.8600753  39.9749659 147.3727400  89.6724304  38.2535531 140.0716638
  90.5071195  38.6925335 140.2354198  89.8083433  37.7774184 139.2524884
  86.7215810  35.8115265 146.0194126  87.1969931  36.0042912 145.2112977
  85.7981375  35.8674451 145.7737509  73.6099316  36.9739433 135.6025204
  73.3645358  36.0701763 135.8005414  73.7795231  36.9756583 134.6604682
  72.8794964  32.7067790 133.1011365  72.1864209  32.7812145 132.4451401
  72.6346716  31.9428134 133.6232882  79.3542089  43.4422385 132.0675882
  78.7816056  44.0612573 131.6146354  79.9274883  43.9921747 132.6015804
  82.5739349  43.7259536 133.1984465  83.5070022  43.6605097 133.4017340
  82.4862561  44.5615802 132.7398997  85.2027365  43.0425406 130.1588412
  85.1240997  42.7085270 131.0524170  86.0237032  43.5347174 130.1579885
  87.9005556  35.9087145 143.3664731  87.8681877  34.9703146 143.5524415
  88.5106180  35.9871182 142.6330556  79.7388887  34.7783198 129.4091935
  80.6847992  34.6489406 129.4780353  79.3603132  34.0397860 129.8861363
  88.0500045  32.6998189 143.4123014  87.5339094  31.9156645 143.2252943
  88.9339993  32.3716905 143.5769534  85.7110772  26.4439204 139.3718827
  85.5135593  26.1354292 140.2562159  86.3210477  27.1700843 139.5016757
  93.7182106  36.9703152 142.5070768  94.4485495  36.7088440 143.0678471
  93.1089052  36.2331874 142.5472836  91.7997403  35.1111015 143.1045219
  91.0730567  34.9766980 142.4961710  91.3844690  35.4187843 143.9101937
  77.9231804  32.7033175 129.3446820  77.0163260  32.4066287 129.4209534
  78.2007786  32.4062993 128.4781106  79.5393870  27.2470064 135.4991061
  78.7294599  26.9017149 135.8746308  80.2278287  26.9377608 136.0878673
  81.4684419  26.3248111 137.1215358  82.0215457  26.7443565 137.7805381
  81.7054505  25.3983859 137.1638314  76.6930589  29.5620110 129.4858799
  77.5549753  29.8875008 129.7454617  76.8780933  28.7751606 128.9731865
  84.8463226  28.4348636 136.6294022  84.2661895  29.0933440 136.2472075
  84.5799158  27.6125981 136.2181440  83.2966792  27.8353694 138.8315343
  83.7966570  27.9470228 138.0229662  83.9402400  27.5314747 139.4716151
  70.6234747  37.5760703 139.6405003  70.6005436  37.6748391 138.6886886
  70.9335384  38.4225854 139.9622169  83.6288104  30.5948727 135.6850371
  82.7413959  30.8798377 135.4670565  84.0442093  30.4342490 134.8377648
  86.9802640  30.6195248 139.4004710  87.7563030  31.1091700 139.6729327
  86.2550774  31.0453302 139.8576579  89.4175198  31.3322867 140.4578650
  90.0119689  31.0918603 139.7471959  89.4901782  30.6129997 141.0852187
  71.6372354  45.1756478 140.7721815  71.5026822  44.4156879 140.2059813
  71.2204416  45.8997378 140.3050604  82.7731317  40.3593401 129.7798391
  83.4767167  40.5643404 130.3956046  82.0493966  40.9270163 130.0447474
  83.6029127  36.1103263 135.9000661  83.5464329  36.5671814 135.0608293
  84.1557470  35.3493947 135.7223504  87.4133933  31.8992994 136.7250780
  87.1570868  31.4989630 137.5558988  86.7886801  32.6136788 136.6000919
  91.7246271  34.6389068 139.2322072  91.1645829  34.7082257 140.0053634
  91.1189774  34.4630052 138.5121568  74.7941480  46.0725795 140.9840258
  74.6773864  47.0171227 140.8818948  73.9733926  45.7699356 141.3726057
  84.6818014  40.7975931 131.8296851  85.5163618  40.3657129 131.6474325
  84.5202357  40.6257944 132.7573745  84.3363907  37.3008044 133.1953190
  84.2812710  37.1352315 132.2541634  83.7109962  38.0084077 133.3515380
  77.6460032  26.8016153 132.7738508  77.6338702  27.7457993 132.9306779
  78.5383454  26.6186298 132.4797970  75.8195994  46.7254057 144.1996186
  76.7223241  46.7577667 144.5162681  75.5933364  45.7954508 144.2142522
  77.5749596  45.4785043 140.8606265  76.6245227  45.4786905 140.7470637
  77.8782082  44.7317778 140.3442300  81.4612152  23.3958929 137.0284445
  80.6944547  22.8417416 137.1741128  81.8722857  23.4680798 137.8898597
  93.3102290  51.3145582 141.9252027  93.9480700  51.1952329 141.2215367
  93.1923132  52.2626426 141.9839980  90.1191996  51.2673010 141.8613552
  89.7810507  51.1514074 140.9734087  90.9881764  50.8664175 141.8414558
  85.9778812  53.1208486 137.8510443  85.4143677  53.0298423 137.0826731
  85.8631207  52.3008391 138.3312936  90.6011779  52.4207861 147.8199758
  90.5900420  52.0260660 146.9480261  90.7632418  51.6873934 148.4133529
  83.5243243  54.6159678 140.6894663  84.3164535  54.2750502 140.2740963
  83.7639894  54.7254653 141.6096817  91.5578370  56.7879454 133.1624908
  90.9066350  57.3733534 132.7758922  92.3522733  57.3185649 133.2219945
  85.4833997  53.8768591 133.5612042  86.2564873  53.3297578 133.4224918
  85.8359396  54.7412840 133.7726504  87.3219040  55.2044973 146.7678942
  87.0308906  56.1090604 146.6525608  87.9576024  55.2461501 147.4823011
  88.2475247  52.5821822 143.3580301  88.8438819  52.3577844 142.6437264
  88.3050218  51.8406567 143.9605749  87.8200275  50.0361257 131.1930492
  88.0725796  49.5142778 130.4313955  86.8824834  49.8727403 131.2957176
  92.8643558  49.0397035 139.0005235  93.6506647  48.6216459 138.6495652
  93.1282262  49.9443128 139.1686884  93.0353635  54.4769886 133.6993892
  92.3999468  54.5504512 134.4114797  92.7051042  55.0663485 133.0212971
  98.2651985  48.9772269 139.9038214  98.9977157  48.4071485 140.1376043
  97.5091341  48.5893869 140.3444720  87.5396564  51.9389363 133.3954867
  87.4232822  51.2634266 134.0635951  87.6498824  51.4521737 132.5787020
  89.8828105  51.3999510 137.1001556  89.5186312  50.8730131 137.8114478
  90.7395221  51.0097979 136.9268042  95.7877406  42.6893843 144.3632823
  95.4560730  43.5589254 144.1394038  95.1923019  42.3730127 145.0426853
  89.5233592  46.4289410 132.0962905  89.6907994  47.2969646 132.4633376
  89.3330761  46.5916692 131.1724194  92.2808925  54.8906389 143.7628735
  91.9809648  55.7931428 143.6544543  91.9359985  54.6238572 144.6149888
  85.7321407  51.3420186 139.7965440  84.8071903  51.2096400 140.0043131
  85.9805820  52.1214405 140.2935382  95.6806069  47.4088929 141.4426173
  94.7722946  47.3404337 141.1484934  95.6293665  47.8860874 142.2707998
  89.5022813  48.8847067 133.0809572  89.3822438  49.3304118 133.9195052
  88.8075401  49.2332385 132.5223110  83.0930218  50.9853459 140.6309229
  83.2222599  51.2387938 141.5448640  82.4127669  51.5781167 140.3113884
  87.2629705  61.6550709 136.7299703  87.1853735  62.6058534 136.8088184
  86.6591348  61.3096582 137.3874629  89.7546935  48.8278575 149.3861070
  88.9780269  49.3872495 149.3763935  90.3937498  49.3135358 149.9075940
  97.5467715  45.6105367 143.2204047  96.9042096  45.9037901 142.5743841
  97.0422644  45.4958288 144.0257243  95.2007879  49.3568541 133.9089906
  96.1125735  49.5895927 133.7337603  94.6917526  49.9405585 133.3464984
  88.0093307  51.6364028 148.9479037  88.7507991  52.1749072 148.6713860
  87.3030292  52.2630317 149.1050589  93.4848647  53.7793168 147.5451198
  93.8932003  53.3375579 146.8005831  92.7625908  53.2045796 147.7985391
  89.8379717  48.7165775 144.9184755  90.6840912  49.1405189 145.0619404
  89.7778354  48.0599399 145.6123318  93.8077461  54.3394359 141.3003487
  93.1786324  54.5040073 140.5979555  93.4203123  54.7535969 142.0714451
  97.6866693  55.2748797 138.6547851  97.0017731  55.6547698 138.1044884
  97.7710542  55.8844123 139.3879799  92.9879162  46.3770143 146.5765929
  92.7440094  47.1312204 146.0400205  93.2639092  46.7555491 147.4113176
  94.9417625  52.9208756 145.2543195  95.1534520  53.5640516 144.5777576
  94.8947373  52.0871072 144.7865125  92.5443854  45.5326577 142.1579767
  91.6828333  45.8307830 142.4496504  92.5706288  45.7496975 141.2260799
  89.3605423  54.0768767 138.5653572  89.8243769  54.3556470 137.7758195
  89.0962221  53.1752212 138.3826663  86.2529504  53.6240249 141.5033336
  86.8230861  54.0527517 140.8650820  86.8437616  53.3422833 142.2017521
  88.2974309  50.1991919 135.3743137  88.9998353  50.6512963 135.8417064
  87.9654938  49.5575738 136.0023031  86.7454671  48.7903676 149.7494347
  86.1153331  49.4719957 149.9829744  86.6390759  48.6786758 148.8047485
  82.0399643  48.4575472 140.6760271  81.2498697  48.7133001 140.2000382
  82.5310890  49.2723810 140.7812312  96.0563453  55.7980711 143.4265552
  96.8780896  55.3960899 143.1448234  96.0525856  55.6948945 144.3781668
  83.9914389  48.8220051 137.6343748  83.1945552  48.9338746 138.1527243
  83.7639981  49.1606704 136.7684638  89.8220056  55.3464755 145.5826262
  89.8864489  55.8085162 146.4184434  89.1130980  54.7162119 145.7108572
  80.3237346  48.7105963 143.1075262  80.5745385  49.5952972 143.3732838
  80.8596895  48.5310564 142.3350354 104.1469446  52.1419460 139.7750523
 103.3933154  51.5726858 139.6194528 104.2816987  52.1082124 140.7221158
  89.5368074  57.0132862 135.4505243  89.4013749  57.8584398 135.8790091
  90.0777886  57.2152140 134.6871177  82.9897471  54.5308300 136.0233168
  83.5021992  55.3251550 136.1738732  83.6420184  53.8334591 135.9566769
  84.7992356  57.6474056 138.1055921  84.9758984  58.5692021 137.9176905
  85.5949189  57.3332476 138.5350301  88.9403374  44.5082321 149.7039854
  89.6813088  45.1089474 149.6244317  89.1721297  43.7659959 149.1457897
  84.0844712  49.6938688 147.9818084  83.9698228  48.7923946 148.2825183
  83.2289230  49.9402385 147.6302901  91.1636550  57.6356429 149.5805585
  90.7200404  56.8492807 149.2626489  91.8253764  57.8235579 148.9149476
  85.9223671  59.1652230 144.1066263  86.4731096  59.0369294 143.3343257
  85.0835147  59.4647119 143.7561156  93.2617788  57.9159229 147.6086986
  93.2436264  58.7368110 147.1167255  94.1837708  57.7913304 147.8337127
  89.7190842  55.4303358 148.4510494  90.2519179  54.6691646 148.2209802
  89.1904923  55.1377010 149.1934649  92.8860537  40.5363424 143.9804136
  92.5424807  41.4265066 143.9043247  93.2539500  40.3465082 143.1173721
  80.9546388  52.8596954 136.7992738  81.7921610  53.2693963 136.5826446
  81.1324656  51.9196397 136.7692932  92.8510820  50.5272035 132.4876571
  92.3357444  51.2976640 132.7264959  92.5788129  49.8537171 133.1109633
  90.4357931  45.3721736 137.5461810  89.5799527  44.9828586 137.3667448
  90.8484883  45.4513697 136.6861595  91.9657078  42.9068079 141.9453369
  91.4621873  42.8698214 141.1321175  92.2587685  43.8160822 142.0050026
  88.2099964  42.9906809 140.9519551  89.0752960  42.7949618 140.5925441
  88.2777473  42.7617161 141.8788908  97.8245094  53.2804390 134.4229745
  97.0474537  52.9415549 133.9784907  98.5036575  53.2857013 133.7484710
  92.6397123  48.3999127 134.3136352  92.3347259  48.7145276 135.1646496
  93.5927565  48.4780547 134.3563685  91.0843555  54.5589350 135.9629306
  90.5564917  53.8242110 135.6502544  90.5831058  55.3364027 135.7169275
  96.0636401  52.7538371 141.0796353  95.4060076  53.4437632 141.1676481
  96.8676800  53.1434803 141.4230339  85.8162283  45.2209017 138.3235918
  86.3906035  44.9984198 137.5909111  86.4033265  45.2897711 139.0764519
  94.8741860  51.1082744 139.1300294  95.3873742  51.7412735 139.6322004
  95.5243084  50.5083939 138.7643655  86.1431870  47.2513478 132.3431803
  85.3069182  47.5888164 132.6641078  86.0036639  47.1162458 131.4058940
  88.1184950  42.0950266 137.0510987  87.4649363  41.7799283 136.4267602
  88.0765425  41.4726006 137.7770810  89.2296155  52.3769561 128.9664279
  88.3223217  52.1458814 129.1655428  89.7267187  51.5807180 129.1538261
  92.1364234  61.0867068 131.8860966  91.4625933  61.3898765 132.4945923
  92.5230056  61.8896148 131.5366423  91.3522691  48.5832199 141.3758635
  90.4345252  48.8047146 141.2180323  91.7682834  48.6578510 140.5170342
  92.1357739  49.9823615 136.5061315  92.8829557  50.4945012 136.1968437
  92.4049328  49.6607668 137.3665709  90.4084389  52.4782156 133.4888270
  89.4995608  52.1941188 133.5860739  90.4379473  52.8981234 132.6291576
  95.6403656  56.0888745 137.2579437  95.1865983  55.2479655 137.3144628
  95.0097623  56.7250143 137.5954217  94.5836576  47.0180731 138.4880105
  93.8459332  46.5058117 138.8190347  94.8363349  46.5781113 137.6763381
  94.0836595  57.9265242 138.1929255  94.3759570  58.4870299 137.4741621
  94.5935216  58.2193803 138.9482414  94.6848203  39.7956983 139.0821874
  94.9907080  38.9354347 138.7947789  95.4100808  40.3874603 138.8820868
  80.9772559  50.1987670 137.4703472  80.7796959  49.6057030 136.7454538
  80.4219223  49.8939880 138.1879411  88.9569283  50.0910776 139.5898065
  89.0117893  49.1384613 139.5140541  88.1460485  50.2470215 140.0739363
  90.1060477  54.0190899 130.8276348  89.6679906  53.3026758 130.3681985
  90.8470917  54.2467014 130.2661440  86.8961643  48.7087836 137.3488444
  86.0829508  49.0082007 137.7553636  87.3920637  48.3143525 138.0662926
  89.0470221  58.7045593 139.2822708  89.0046399  58.9306439 138.3531240
  89.9632919  58.4708967 139.4308510  92.4935854  49.1729660 146.1803338
  92.8485242  49.4001134 147.0397803  93.1407986  49.5048037 145.5580593
  98.2233591  52.2948096 136.8852667  98.0851490  52.4849692 135.9573856
  97.8669810  53.0567479 137.3420718  86.3875717  46.2806191 142.9649679
  87.0275097  46.1394951 142.2672642  85.5553248  45.9940705 142.5888281
  98.2502971  54.3624623 141.8963938  98.6839478  54.2699912 142.7446992
  98.9634552  54.3382124 141.2583954  87.1636021  55.5808622 139.0784671
  87.9576620  55.0858942 138.8767246  86.4527714  55.0526485 138.7152377
  91.9830866  57.9626717 143.4297039  92.0367888  58.5317654 144.1974755
  91.1145647  58.1328602 143.0651076  83.4718785  49.7251704 135.1544424
  82.5416373  49.6636159 135.3714386  83.5676257  49.2027656 134.3581065
  83.3904334  46.2506516 137.7422666  83.6511151  47.1651850 137.6331826
  84.2121506  45.7830959 137.8919278  84.8629259  47.6644274 144.9121490
  85.5352313  47.4561636 144.2634139  84.0359046  47.4666360 144.4726722
  99.1118520  54.4048324 144.4296824  99.3054411  55.3094134 144.6756099
  99.0119139  53.9455743 145.2635409  90.7654831  44.2906215 146.9287151
  90.1182746  44.9896164 146.8351627  91.5355847  44.7242358 147.2963399
  94.1733629  54.5555067 150.0037704  94.0219136  54.3265618 149.0867788
  94.1638309  55.5125668 150.0169049  90.9418966  52.1286979 144.9883971
  91.8711026  52.2798139 144.8152938  90.5209996  52.2171000 144.1332617
  89.7407297  56.1537644 142.7582508  89.6018383  55.7856428 143.6308446
  88.9521894  56.6685283 142.5866466  90.3355449  61.2546740 134.1008045
  90.5107205  60.7834784 134.9153667  89.6488237  61.8812507 134.3289306
  91.2912512  55.5319247 140.1471346  90.9562345  55.4920017 141.0428996
  90.7916458  54.8663962 139.6741756  85.2656756  50.9386877 145.6723927
  85.1276554  50.2067115 146.2735466  86.1761680  50.8495777 145.3908115
  94.2271704  52.8775281 130.4208406  93.6100875  52.1522109 130.3241458
  93.7588193  53.6384641 130.0775480  87.8939057  50.6506836 145.1607607
  88.6038676  50.0100028 145.1194225  87.8508365  50.9019731 146.0833788
  95.8825836  57.5874189 148.0814186  95.8238382  56.9033409 147.4144769
  96.2845354  58.3293179 147.6294812  86.6067991  47.6372054 146.9803246
  86.0705348  47.1862792 147.6324843  86.0184700  47.7717963 146.2373711
  84.9016535  64.4036103 140.8747905  85.1413133  65.0354627 141.5526924
  84.0585731  64.0524143 141.1613264  86.0170250  47.0960705 129.5429710
  85.1399716  46.9749506 129.1791957  86.4928003  46.3046784 129.2908599
  95.8843243  55.5513773 146.3128166  94.9970022  55.2139695 146.4354565
  96.4541794  54.8196804 146.5496931  77.5372390  51.8837865 139.6371217
  78.2243430  51.5699595 139.0492232  77.3820519  52.7879230 139.3638469
  82.3407112  46.7728062 144.0656241  82.2565301  46.1653731 143.3306651
  81.5189819  47.2637080 144.0665737  89.4144396  60.2115226 143.2789409
  89.3414568  61.0170197 143.7908714  88.9721790  60.4107191 142.4537430
  89.2034176  59.4486996 136.7892231  88.4201698  59.9908676 136.8830455
  89.9026921  59.9660975 137.1886472  92.5130826  45.2581625 139.4326436
  93.0099526  44.5051587 139.1127506  91.7417808  45.2945942 138.8669645
 100.3660584  50.9621991 141.0744727 100.3550460  51.8446706 140.7038661
  99.4977963  50.6093541 140.8799264  91.8743080  60.1102060 145.4347568
  92.5871052  60.7449524 145.3623469  91.3833109  60.2065926 144.6187569
  93.5960607  54.0153312 137.0064859  92.6616886  54.1354775 136.8369564
  93.7737275  53.1125779 136.7424869  89.0965795  47.3999008 139.1598120
  88.7263582  46.8470048 139.8479026  89.5924887  46.7957142 138.6073121
  96.9833158  49.8570632 137.5414893  97.4493610  50.6898623 137.4675196
  97.4340659  49.3915613 138.2460152  86.9254994  57.8596503 146.2553138
  87.6264453  58.4932986 146.4082533  86.4550108  58.2011235 145.4948778
  95.0509389  56.2014453 134.5401045  95.3269233  56.0871047 135.4494920
  94.1813888  55.8031938 134.5013219  94.9549821  42.2251219 141.5805795
  94.0412901  42.4555445 141.7488002  95.3842922  42.3089663 142.4319827
  94.7256279  50.4141110 144.0805689  94.0727730  50.6617018 143.4258142
  95.1036659  49.6005249 143.7468166  91.6863453  60.4500804 138.1833859
  91.8685848  59.6322460 138.6461611  92.5096439  60.6668496 137.7458749
  92.0205619  59.3768989 135.4448908  92.5493385  58.8661443 134.8319070
  92.2833838  59.0611519 136.3094441  90.7743852  51.1560922 150.5671726
  90.0984490  51.0555051 151.2374101  91.5971486  51.0000135 151.0307723
  82.5222712  57.3932858 143.1884241  83.1076148  56.6476546 143.3212145
  82.3247550  57.7036815 144.0720905  85.3761367  60.4284105 138.2046684
  84.7071742  60.9130233 137.7210724  85.2374236  60.6753326 139.1190062
  77.1140366  49.9638458 141.9088684  77.1524466  49.4302049 142.7025802
  76.6080659  49.4373664 141.2899661  89.5166635  62.4627849 144.8029342
  90.0684943  62.6259471 145.5678427  89.8572829  63.0532287 144.1309367
  84.4931129  44.8102999 145.4051227  84.5572455  45.6717830 144.9928624
  84.4298249  44.1977000 144.6723585  83.9683401  46.8826131 149.0524261
  84.5955440  46.5003209 149.6661785  83.1111320  46.6640333 149.4179953
  94.3677510  57.2889107 150.6577996  94.9117414  57.9019065 150.1632951
  93.7864355  57.8468685 151.1745009  80.7448944  48.6902560 134.9842616
  81.0402385  47.7813239 134.9309669  79.8436980  48.6690300 134.6623618
  92.6535023  60.4109825 141.7893024  92.5286162  59.6099564 141.2803970
  93.3114114  60.9056018 141.3006994  84.2743191  46.7658557 140.9670164
  83.5529777  47.3794525 140.8277638  85.0636447  47.3016322 140.8886810
  94.7169931  58.2118845 143.4172574  93.7700267  58.0924196 143.3450901
  95.0652704  57.3241343 143.4998836  87.0769504  44.1012984 147.2410816
  87.6003906  44.3475280 148.0037125  86.8581838  44.9333018 146.8213953
  82.4736785  46.3716658 135.1081941  82.1449492  45.4914037 134.9257047
  82.8276156  46.3164327 135.9958330  91.7216364  58.0071561 139.6176926
  91.5741327  57.0788268 139.7984496  92.5469858  58.0291652 139.1334002
  85.5878609  46.6589628 135.4757419  85.9274681  47.1875549 134.7536027
  86.0350729  46.9970034 136.2515985  95.3250486  58.8300120 140.7041799
  96.2497034  58.6242981 140.5666250  95.1565790  58.5816521 141.6131141
  88.2822049  45.0426679 144.9260487  87.9418870  44.2434492 145.3281166
  87.5761056  45.3428389 144.3537320  88.9338521  42.1275991 143.3787810
  89.7564591  41.6536469 143.2566700  89.1776585  42.9066475 143.8786496
  87.5746756  45.1564250 133.6750711  88.2955118  45.5345502 133.1714428
  86.9512060  45.8753126 133.7785689  91.7177879  45.8609398 134.6109044
  91.9341493  46.7434036 134.3097872  91.2371946  45.4695612 133.8814686
  86.4577100  48.8195112 141.1879788  86.3121681  49.1335415 142.0804070
  85.9802304  49.4380012 140.6350687  88.3173483  45.8097660 141.2360678
  88.3035052  44.9138753 140.8992976  89.0345911  45.8168323 141.8698964
  90.1699614  46.2435000 143.2813805  89.9117391  47.1652071 143.2798136
  89.6384654  45.8465434 143.9714269  95.1145802  59.3485787 136.0603891
  95.2882680  58.7832209 135.3077743  95.6074694  60.1486682 135.8783381
  80.9322762  51.3600456 144.1267449  80.3876230  52.1360264 144.2587724
  81.8102112  51.7071261 143.9686571  87.7210379  44.6912040 136.5048248
  87.8426290  43.7628686 136.7039135  87.4312421  44.7050726 135.5926563
  90.5901569  42.3766950 139.6414968  90.6123266  42.4406283 138.6866947
  91.0069628  41.5371459 139.8355474 100.9685194  52.1122210 137.6794190
 101.4116340  51.3629535 137.2813314 100.0911704  52.1032346 137.2967922
  96.1020975  58.6652551 133.1600789  96.7971880  59.2859244 133.3788103
  96.4444125  57.8147903 133.4353167  81.7188784  50.4870352 147.0197606
  80.9770520  50.6352988 147.6062237  81.3981528  50.7478618 146.1564356
  98.0012398  56.1152257 134.6888120  98.5263722  56.4539530 133.9637440
  97.9134751  55.1799272 134.5051254  89.6632447  60.0286331 146.8177996
  89.9719573  59.7835477 147.6900696  90.4607929  60.2332969 146.3296866
  89.6853059  62.1824240 139.0483373  89.2458049  61.6900619 139.7416230
  90.4361176  61.6397208 138.8075448  82.1645398  58.3735781 139.0508001
  82.9903418  58.0739553 138.6706644  81.8139450  57.6043404 139.4997790
  87.1326931  57.7262249 141.1205674  86.5106940  57.0632954 140.8207902
  87.8031798  57.7523381 140.4379322  80.3654003  56.2922108 140.0096934
  79.5285911  55.8644282 139.8280936  80.3377648  56.4854551 140.9467726
  87.2051458  46.2044037 150.7138181  87.2539614  47.0806160 150.3315950
  87.7473973  45.6621430 150.1409824  97.6906304  56.7485161 149.9939318
  96.9001848  56.7309299 149.4543817  97.4539659  57.2873454 150.7488354
  97.8104179  53.5977627 147.3072046  97.8602184  53.4327634 148.2487569
  97.7018102  52.7304886 146.9169927  86.6940438  56.2766173 134.5964135
  86.8428558  56.9601637 133.9430808  87.5006881  56.2571263 135.1113591
  95.1007942  49.5808555 148.6231353  96.0017804  49.4415020 148.3315351
  95.1755916  49.7463010 149.5629530  89.4350747  46.9575410 147.4684539
  88.5654056  47.2508976 147.1967128  89.6710227  47.5415855 148.1891803
  99.3122376  56.0174568 147.5514068  99.0207184  56.3804549 148.3877529
  98.6994507  55.3041577 147.3727400 100.5118058  53.5827448 140.0716638
 101.3464950  54.0217252 140.2354198 100.6477187  53.1066101 139.2524884
  97.5609564  51.1407183 146.0194126  98.0363686  51.3334829 145.2112977
  96.6375130  51.1966369 145.7737509  84.4493071  52.3031350 135.6025204
  84.2039113  51.3993680 135.8005414  84.6188985  52.3048501 134.6604682
  92.1389781  43.1755027 144.9849960  92.6571725  43.9116054 144.6596448
  91.7844913  43.4819020 145.8196719  83.7188718  48.0359708 133.1011365
  83.0257963  48.1104063 132.4451401  83.4740470  47.2720052 133.6232882
  92.3902375  39.5955309 140.5050856  92.6704129  38.9278498 141.1311283
  93.1752982  39.7884405 139.9925520  90.1935843  58.7714303 132.0675882
  89.6209810  59.3904490 131.6146354  90.7668637  59.3213665 132.6015804
  96.2611233  48.0172943 144.2522431  97.2128656  48.1171041 144.2734655
  96.0914684  47.2251212 144.7620516  94.2825613  45.1028526 144.4381832
  93.6875545  45.3833539 143.7428321  93.9975309  45.5922427 145.2098573
  93.4133103  59.0551453 133.1984465  94.3463776  58.9897015 133.4017340
  93.3256316  59.8907720 132.7398997  96.0421120  58.3717324 130.1588412
  95.9634751  58.0377187 131.0524170  96.8630787  58.8639091 130.1579885
  98.7399311  51.2379063 143.3664731  98.7075631  50.2995064 143.5524415
  99.3499935  51.3163100 142.6330556  90.5782642  50.1075116 129.4091935
  91.5241747  49.9781324 129.4780353  90.1996887  49.3689778 129.8861363
  98.8893799  48.0290106 143.4123014  98.3732848  47.2448563 143.2252943
  99.7733748  47.7008823 143.5769534  96.5504526  41.7731122 139.3718827
  96.3529348  41.4646210 140.2562159  97.1604232  42.4992761 139.5016757
 104.5575861  52.2995070 142.5070768 105.2879249  52.0380358 143.0678471
 103.9482806  51.5623792 142.5472836 102.6391158  50.4402932 143.1045219
 101.9124322  50.3058897 142.4961710 102.2238445  50.7479761 143.9101937
  90.4621334  54.1592862 150.8692592  91.3824344  54.3371461 151.0632638
  90.4270917  53.2148907 150.7172291  88.7625559  48.0325092 129.3446820
  87.8557014  47.7358205 129.4209534  89.0401540  47.7354910 128.4781106
  79.6803499  49.3531456 139.7945867  79.3606284  48.4996764 139.5020241
  79.1336928  49.5680034 140.5503834  83.4583407  52.0693897 143.5115373
  83.6769417  53.0011004 143.5303407  83.8709181  51.7101871 144.2970177
  90.3787625  42.5761982 135.4991061  89.5688353  42.2309067 135.8746308
  91.0672042  42.2669526 136.0878673  92.3078173  41.6540029 137.1215358
  92.8609212  42.0735482 137.7805381  92.5448259  40.7275777 137.1638314
  88.3311272  47.6427102 152.9018122  88.2307999  48.5921459 152.8330213
  88.1132814  47.3145341 152.0294192  87.5324344  44.8912027 129.4858799
  88.3943508  45.2166926 129.7454617  87.7174688  44.1043523 128.9731865
  79.5491759  52.9734367 141.7638988  78.8555231  52.5588320 141.2508943
  80.2964750  53.0154904 141.1672407  95.6856980  43.7640554 136.6294022
  95.1055649  44.4225358 136.2472075  95.4192913  42.9417899 136.2181440
  94.1360546  43.1645612 138.8315343  94.6360325  43.2762146 138.0229662
  94.7796154  42.8606664 139.4716151  88.1942542  51.0724241 151.7183184
  87.7109624  51.8724601 151.9247073  88.2803481  51.0832186 150.7650628
  81.4628502  52.9052621 139.6405003  81.4399190  53.0040308 138.6886886
  81.7729138  53.7517772 139.9622169  84.1215880  54.9628776 143.7551617
  85.0759133  54.9312718 143.6881549  83.9228403  54.5019400 144.5701843
  84.7115262  53.5329892 146.3222415  85.5308151  54.0273971 146.3457252
  84.9852070  52.6161860 146.2939983  94.4681858  45.9240644 135.6850371
  93.5807713  46.2090295 135.4670565  94.8835847  45.7634408 134.8377648
  97.8196394  45.9487165 139.4004710  98.5956784  46.4383618 139.6729327
  97.0944528  46.3745219 139.8576579 100.2568953  46.6614785 140.4578650
 100.8513444  46.4210520 139.7471959 100.3295537  45.9421915 141.0852187
  82.4766109  60.5048395 140.7721815  82.3420576  59.7448796 140.2059813
  82.0598171  61.2289295 140.3050604  93.6125072  55.6885319 129.7798391
  94.3160922  55.8935321 130.3956046  92.8887720  56.2562081 130.0447474
  94.4422882  51.4395180 135.9000661  94.3858083  51.8963732 135.0608293
  94.9951224  50.6785865 135.7223504  98.2527688  47.2284912 136.7250780
  97.9964622  46.8281548 137.5558988  97.6280556  47.9428706 136.6000919
 102.5640026  49.9680985 139.2322072 102.0039584  50.0374175 140.0053634
 101.9583529  49.7921970 138.5121568  85.6335234  61.4017712 140.9840258
  85.5167619  62.3463145 140.8818948  84.8127681  61.0991274 141.3726057
  95.5211769  56.1267848 131.8296851  96.3557373  55.6949047 131.6474325
  95.3596112  55.9549862 132.7573745  95.1757661  52.6299961 133.1953190
  95.1206465  52.4644233 132.2541634  94.5503716  53.3375994 133.3515380
  79.9650176  47.8668026 147.0214612  80.6109040  47.3566980 147.5101837
  79.7567327  48.6036708 147.5958037  92.4903568  54.9348873 152.5206753
  93.3594728  55.1089526 152.1593388  92.0110320  55.7543290 152.3982482
  88.4853787  42.1308070 132.7738508  88.4732456  43.0749910 132.9306779
  89.3777208  41.9478216 132.4797970  86.6589749  62.0545974 144.1996186
  87.5616995  62.0869585 144.5162681  86.4327119  61.1246425 144.2142522
  88.4143351  60.8076961 140.8606265  87.4638982  60.8078823 140.7470637
  88.7175837  60.0609695 140.3442300  92.3005906  38.7250847 137.0284445
  91.5338302  38.1709334 137.1741128  92.7116611  38.7972716 137.8898597
 104.1496044  66.6437499 141.9252027 104.7874454  66.5244247 141.2215367
 104.0316887  67.5918343 141.9839980 100.9585750  66.5964927 141.8613552
 100.6204262  66.4805992 140.9734087 101.8275519  66.1956092 141.8414558
  96.8172566  68.4500404 137.8510443  96.2537431  68.3590341 137.0826731
  96.7024961  67.6300308 138.3312936 101.4405533  67.7499779 147.8199758
 101.4294174  67.3552577 146.9480261 101.6026173  67.0165852 148.4133529
  94.3636998  69.9451595 140.6894663  95.1558290  69.6042420 140.2740963
  94.6033648  70.0546570 141.6096817 102.3972125  72.1171372 133.1624908
 101.7460105  72.7025452 132.7758922 103.1916488  72.6477566 133.2219945
  96.3227752  69.2060509 133.5612042  97.0958628  68.6589496 133.4224918
  96.6753151  70.0704758 133.7726504  98.1612794  70.5336891 146.7678942
  97.8702660  71.4382522 146.6525608  98.7969779  70.5753419 147.4823011
  99.0869001  67.9113739 143.3580301  99.6832574  67.6869762 142.6437264
  99.1443973  67.1698485 143.9605749  98.6594030  65.3653175 131.1930492
  98.9119550  64.8434696 130.4313955  97.7218589  65.2019320 131.2957176
 103.7037313  64.3688953 139.0005235 104.4900402  63.9508376 138.6495652
 103.9676017  65.2735045 139.1686884 103.8747390  69.8061803 133.6993892
 103.2393223  69.8796430 134.4114797 103.5444796  70.3955402 133.0212971
 109.1045740  64.3064186 139.9038214 109.8370912  63.7363403 140.1376043
 108.3485095  63.9185787 140.3444720  98.3790318  67.2681281 133.3954867
  98.2626577  66.5926184 134.0635951  98.4892578  66.7813655 132.5787020
 100.7221859  66.7291428 137.1001556 100.3580067  66.2022049 137.8114478
 101.5788975  66.3389897 136.9268042 106.6271160  58.0185760 144.3632823
 106.2954485  58.8881171 144.1394038 106.0316773  57.7022044 145.0426853
 100.3627346  61.7581328 132.0962905 100.5301749  62.6261564 132.4633376
 100.1724515  61.9208609 131.1724194 103.1202680  70.2198306 143.7628735
 102.8203403  71.1223345 143.6544543 102.7753739  69.9530490 144.6149888
  96.5715161  66.6712103 139.7965440  95.6465658  66.5388317 140.0043131
  96.8199574  67.4506323 140.2935382 106.5199823  62.7380847 141.4426173
 105.6116701  62.6696255 141.1484934 106.4687419  63.2152792 142.2707998
 100.3416567  64.2138985 133.0809572 100.2216192  64.6596036 133.9195052
  99.6469156  64.5624303 132.5223110  93.9323972  66.3145377 140.6309229
  94.0616353  66.5679856 141.5448640  93.2521423  66.9073085 140.3113884
  98.1023459  76.9842627 136.7299703  98.0247489  77.9350452 136.8088184
  97.4985103  76.6388499 137.3874629 100.5940689  64.1570492 149.3861070
  99.8174023  64.7164412 149.3763935 101.2331252  64.6427275 149.9075940
 108.3861470  60.9397285 143.2204047 107.7435850  61.2329818 142.5743841
 107.8816398  60.8250205 144.0257243 106.0401633  64.6860458 133.9089906
 106.9519490  64.9187845 133.7337603 105.5311280  65.2697502 133.3464984
  98.8487061  66.9655946 148.9479037  99.5901746  67.5040990 148.6713860
  98.1424047  67.5922234 149.1050589 104.3242401  69.1085086 147.5451198
 104.7325757  68.6667497 146.8005831 103.6019663  68.5337714 147.7985391
 100.6773471  64.0457693 144.9184755 101.5234666  64.4697106 145.0619404
 100.6172109  63.3891317 145.6123318 104.6471216  69.6686277 141.3003487
 104.0180078  69.8331991 140.5979555 104.2596878  70.0827886 142.0714451
 108.5260448  70.6040715 138.6547851 107.8411486  70.9839616 138.1044884
 108.6104297  71.2136041 139.3879799 103.8272916  61.7062061 146.5765929
 103.5833848  62.4604122 146.0400205 104.1032847  62.0847409 147.4113176
 105.7811379  68.2500674 145.2543195 105.9928274  68.8932433 144.5777576
 105.7341127  67.4162990 144.7865125 103.3837608  60.8618494 142.1579767
 102.5222087  61.1599748 142.4496504 103.4100043  61.0788893 141.2260799
 100.1999178  69.4060685 138.5653572 100.6637523  69.6848388 137.7758195
  99.9355976  68.5044129 138.3826663  97.0923259  68.9532166 141.5033336
  97.6624616  69.3819435 140.8650820  97.6831371  68.6714751 142.2017521
  99.1368064  65.5283837 135.3743137  99.8392107  65.9804881 135.8417064
  98.8048692  64.8867656 136.0023031  97.5848425  64.1195594 149.7494347
  96.9547086  64.8011875 149.9829744  97.4784513  64.0078675 148.8047485
  92.8793398  63.7867390 140.6760271  92.0892452  64.0424918 140.2000382
  93.3704645  64.6015728 140.7812312 106.8957207  71.1272629 143.4265552
 107.7174651  70.7252816 143.1448234 106.8919610  71.0240863 144.3781668
  94.8308143  64.1511969 137.6343748  94.0339306  64.2630663 138.1527243
  94.6033735  64.4898621 136.7684638 100.6613811  70.6756672 145.5826262
 100.7258243  71.1377079 146.4184434  99.9524734  70.0454037 145.7108572
  91.1631101  64.0397880 143.1075262  91.4139139  64.9244890 143.3732838
  91.6990649  63.8602482 142.3350354 114.9863200  67.4711377 139.7750523
 114.2326909  66.9018776 139.6194528 115.1210741  67.4374042 140.7221158
 100.3761828  72.3424780 135.4505243 100.2407503  73.1876315 135.8790091
 100.9171641  72.5444057 134.6871177  96.8629168  58.4216360 152.1119598
  96.4696113  57.8682558 152.7867242  97.6795308  58.7326938 152.5026115
  93.8291226  69.8600218 136.0233168  94.3415746  70.6543468 136.1738732
  94.4813938  69.1626508 135.9566769  95.6386110  72.9765974 138.1055921
  95.8152739  73.8983939 137.9176905  96.4342944  72.6624393 138.5350301
  99.7797129  59.8374239 149.7039854 100.5206842  60.4381392 149.6244317
 100.0115052  59.0951876 149.1457897  94.9238467  65.0230606 147.9818084
  94.8091982  64.1215863 148.2825183  94.0682985  65.2694303 147.6302901
 102.0030305  72.9648346 149.5805585 101.5594159  72.1784725 149.2626489
 102.6647518  73.1527497 148.9149476  96.7617426  74.4944148 144.1066263
  97.3124851  74.3661211 143.3343257  95.9228902  74.7939037 143.7561156
 104.1011543  73.2451146 147.6086986 104.0830018  74.0660027 147.1167255
 105.0231463  73.1205221 147.8337127 100.5584597  70.7595276 148.4510494
 101.0912934  69.9983564 148.2209802 100.0298678  70.4668927 149.1934649
 103.7254292  55.8655342 143.9804136 103.3818561  56.7556983 143.9043247
 104.0933254  55.6756999 143.1173721  91.7940142  68.1888872 136.7992738
  92.6315364  68.5985880 136.5826446  91.9718410  67.2488314 136.7692932
 103.6904575  65.8563953 132.4876571 103.1751198  66.6268557 132.7264959
 103.4181883  65.1829089 133.1109633 101.2751686  60.7013654 137.5461810
 100.4193282  60.3120504 137.3667448 101.6878637  60.7805614 136.6861595
 102.8050832  58.2359997 141.9453369 102.3015628  58.1990132 141.1321175
 103.0981439  59.1452739 142.0050026  99.0493718  58.3198727 140.9519551
  99.9146715  58.1241535 140.5925441  99.1171227  58.0909078 141.8788908
 108.6638849  68.6096307 134.4229745 107.8868291  68.2707467 133.9784907
 109.3430330  68.6148931 133.7484710 103.4790878  63.7291045 134.3136352
 103.1741013  64.0437194 135.1646496 104.4321320  63.8072465 134.3563685
 101.9237310  69.8881268 135.9629306 101.3958671  69.1534028 135.6502544
 101.4224812  70.6655944 135.7169275 106.9030156  68.0830289 141.0796353
 106.2453830  68.7729550 141.1676481 107.7070555  68.4726721 141.4230339
  96.6556037  60.5500934 138.3235918  97.2299789  60.3276116 137.5909111
  97.2427020  60.6189629 139.0764519 105.7135614  66.4374661 139.1300294
 106.2267496  67.0704653 139.6322004 106.3636838  65.8375857 138.7643655
  96.9825624  62.5805395 132.3431803  96.1462937  62.9180082 132.6641078
  96.8430394  62.4454375 131.4058940  98.9578705  57.4242183 137.0510987
  98.3043117  57.1091201 136.4267602  98.9159179  56.8017924 137.7770810
 100.0689910  67.7061478 128.9664279  99.1616972  67.4750732 129.1655428
 100.5660942  66.9099098 129.1538261 102.9757989  76.4158986 131.8860966
 102.3019687  76.7190682 132.4945923 103.3623811  77.2188066 131.5366423
 102.1916445  63.9124117 141.3758635 101.2739007  64.1339064 141.2180323
 102.6076589  63.9870427 140.5170342 102.9751493  65.3115533 136.5061315
 103.7223312  65.8236930 136.1968437 103.2443083  64.9899585 137.3665709
 101.2478143  67.8074073 133.4888270 100.3389362  67.5233106 133.5860739
 101.2773227  68.2273152 132.6291576 106.4797411  71.4180663 137.2579437
 106.0259738  70.5771573 137.3144628 105.8491377  72.0542061 137.5954217
 105.4230330  62.3472649 138.4880105 104.6853087  61.8350035 138.8190347
 105.6757104  61.9073030 137.6763381 104.9230350  73.2557159 138.1929255
 105.2153324  73.8162217 137.4741621 105.4328970  73.5485720 138.9482414
 105.5241957  55.1248901 139.0821874 105.8300834  54.2646264 138.7947789
 106.2494562  55.7166521 138.8820868  91.8166314  65.5279587 137.4703472
  91.6190713  64.9348948 136.7454538  91.2612978  65.2231798 138.1879411
  99.7963037  65.4202694 139.5898065  99.8511647  64.4676530 139.5140541
  98.9854239  65.5762133 140.0739363 100.9454231  69.3482817 130.8276348
 100.5073661  68.6318676 130.3681985 101.6864672  69.5758932 130.2661440
  97.7355397  64.0379754 137.3488444  96.9223263  64.3373924 137.7553636
  98.2314391  63.6435442 138.0662926  99.8863975  74.0337511 139.2822708
  99.8440154  74.2598357 138.3531240 100.8026674  73.8000885 139.4308510
 103.3329609  64.5021578 146.1803338 103.6878997  64.7293051 147.0397803
 103.9801740  64.8339955 145.5580593 109.0627346  67.6240014 136.8852667
 108.9245244  67.8141610 135.9573856 108.7063565  68.3859397 137.3420718
  97.2269472  61.6098109 142.9649679  97.8668851  61.4686868 142.2672642
  96.3947002  61.3232623 142.5888281 109.0896725  69.6916541 141.8963938
 109.5233232  69.5991830 142.7446992 109.8028306  69.6674041 141.2583954
  98.0029776  70.9100540 139.0784671  98.7970374  70.4150860 138.8767246
  97.2921468  70.3818403 138.7152377 102.8224620  73.2918635 143.4297039
 102.8761643  73.8609571 144.1974755 101.9539402  73.4620520 143.0651076
  94.3112539  65.0543621 135.1544424  93.3810127  64.9928077 135.3714386
  94.4070011  64.5319574 134.3581065  94.2298088  61.5798434 137.7422666
  94.4904906  62.4943767 137.6331826  95.0515261  61.1122877 137.8919278
  95.7023014  62.9936191 144.9121490  96.3746067  62.7853553 144.2634139
  94.8752800  62.7958277 144.4726722 109.9512275  69.7340242 144.4296824
 110.1448165  70.6386052 144.6756099 109.8512893  69.2747661 145.2635409
 101.6048586  59.6198132 146.9287151 100.9576501  60.3188082 146.8351627
 102.3749601  60.0534276 147.2963399 105.0127384  69.8846984 150.0037704
 104.8612890  69.6557536 149.0867788 105.0032063  70.8417586 150.0169049
 101.7812720  67.4578897 144.9883971 102.7104780  67.6090057 144.8152938
 101.3603750  67.5462918 144.1332617 100.5801052  71.4829562 142.7582508
 100.4412138  71.1148346 143.6308446  99.7915648  71.9977201 142.5866466
 101.1749204  76.5838658 134.1008045 101.3500959  76.1126701 134.9153667
 100.4881992  77.2104424 134.3289306 102.1306267  70.8611164 140.1471346
 101.7956100  70.8211934 141.0428996 101.6310213  70.1955880 139.6741756
  96.1050511  66.2678794 145.6723927  95.9670309  65.5359033 146.2735466
  97.0155434  66.1787694 145.3908115 105.0665459  68.2067199 130.4208406
 104.4494629  67.4814027 130.3241458 104.5981947  68.9676559 130.0775480
  98.7332812  65.9798754 145.1607607  99.4432430  65.3391946 145.1194225
  98.6902120  66.2311648 146.0833788 106.7219590  72.9166107 148.0814186
 106.6632136  72.2325327 147.4144769 107.1239109  73.6585097 147.6294812
  97.4461746  62.9663971 146.9803246  96.9099103  62.5154710 147.6324843
  96.8578454  63.1009880 146.2373711  95.7410289  79.7328021 140.8747905
  95.9806887  80.3646545 141.5526924  94.8979486  79.3816061 141.1613264
  96.8564005  62.4252623 129.5429710  95.9793471  62.3041424 129.1791957
  97.3321758  61.6338701 129.2908599 106.7236998  70.8805691 146.3128166
 105.8363776  70.5431613 146.4354565 107.2935549  70.1488722 146.5496931
  88.3766145  67.2129783 139.6371217  89.0637185  66.8991513 139.0492232
  88.2214273  68.1171147 139.3638469  93.1800867  62.1019979 144.0656241
  93.0959056  61.4945649 143.3306651  92.3583573  62.5928997 144.0665737
 100.2538151  75.5407143 143.2789409 100.1808322  76.3462115 143.7908714
  99.8115544  75.7399109 142.4537430 100.0427931  74.7778913 136.7892231
  99.2595452  75.3200593 136.8830455 100.7420676  75.2952893 137.1886472
 103.3524581  60.5873543 139.4326436 103.8493280  59.8343505 139.1127506
 102.5811562  60.6237859 138.8669645 111.2054338  66.2913908 141.0744727
 111.1944214  67.1738624 140.7038661 110.3371718  65.9385459 140.8799264
 102.7136834  75.4393977 145.4347568 103.4264807  76.0741442 145.3623469
 102.2226863  75.5357843 144.6187569 104.4354361  69.3445230 137.0064859
 103.5010640  69.4646692 136.8369564 104.6131030  68.4417697 136.7424869
  99.9359549  62.7290926 139.1598120  99.5657337  62.1761966 139.8479026
 100.4318642  62.1249059 138.6073121 107.8226913  65.1862549 137.5414893
 108.2887365  66.0190541 137.4675196 108.2734413  64.7207531 138.2460152
  97.7648748  73.1888421 146.2553138  98.4658207  73.8224904 146.4082533
  97.2943863  73.5303152 145.4948778 105.8903144  71.5306371 134.5401045
 106.1662988  71.4162965 135.4494920 105.0207643  71.1323855 134.5013219
 105.7943575  57.5543136 141.5805795 104.8806655  57.7847363 141.7488002
 106.2236677  57.6381580 142.4319827 105.5650034  65.7433028 144.0805689
 104.9121484  65.9908936 143.4258142 105.9430414  64.9297166 143.7468166
 102.5257208  75.7792721 138.1833859 102.7079602  74.9614377 138.6461611
 103.3490194  75.9960414 137.7458749 102.8599373  74.7060906 135.4448908
 103.3887140  74.1953361 134.8319070 103.1227593  74.3903437 136.3094441
 101.6137607  66.4852839 150.5671726 100.9378244  66.3846969 151.2374101
 102.4365241  66.3292053 151.0307723  93.3616466  72.7224776 143.1884241
  93.9469903  71.9768464 143.3212145  93.1641305  73.0328732 144.0720905
  96.2155121  75.7576023 138.2046684  95.5465497  76.2422151 137.7210724
  96.0767991  76.0045244 139.1190062  87.9534121  65.2930376 141.9088684
  87.9918220  64.7593967 142.7025802  87.4474414  64.7665581 141.2899661
 100.3560390  77.7919767 144.8029342 100.9078698  77.9551388 145.5678427
 100.6966583  78.3824205 144.1309367  95.3324883  60.1394916 145.4051227
  95.3966210  61.0009747 144.9928624  95.2692003  59.5268918 144.6723585
  94.8077156  62.2118049 149.0524261  95.4349194  61.8295126 149.6661785
  93.9505074  61.9932251 149.4179953 105.2071264  72.6181024 150.6577996
 105.7511168  73.2310982 150.1632951 104.6258109  73.1760603 151.1745009
  91.5842698  64.0194478 134.9842616  91.8796139  63.1105157 134.9309669
  90.6830734  63.9982218 134.6623618 103.4928777  75.7401742 141.7893024
 103.3679917  74.9391482 141.2803970 104.1507868  76.2347936 141.3006994
  95.1136945  62.0950475 140.9670164  94.3923531  62.7086442 140.8277638
  95.9030201  62.6308240 140.8886810 105.5563686  73.5410762 143.4172574
 104.6094021  73.4216113 143.3450901 105.9046459  72.6533260 143.4998836
  97.9163259  59.4304901 147.2410816  98.4397661  59.6767198 148.0037125
  97.6975592  60.2624936 146.8213953  93.3130540  61.7008576 135.1081941
  92.9843246  60.8205955 134.9257047  93.6669911  61.6456244 135.9958330
 102.5610119  73.3363479 139.6176926 102.4135081  72.4080186 139.7984496
 103.3863612  73.3583569 139.1334002  96.4272363  61.9881546 135.4757419
  96.7668436  62.5167467 134.7536027  96.8744484  62.3261952 136.2515985
 106.1644241  74.1592037 140.7041799 107.0890788  73.9534899 140.5666250
 105.9959544  73.9108438 141.6131141  99.1215804  60.3718596 144.9260487
  98.7812624  59.5726409 145.3281166  98.4154810  60.6720307 144.3537320
  99.7732276  57.4567909 143.3787810 100.5958345  56.9828387 143.2566700
 100.0170339  58.2358392 143.8786496  98.4140510  60.4856167 133.6750711
  99.1348873  60.8637420 133.1714428  97.7905814  61.2045044 133.7785689
 102.5571633  61.1901316 134.6109044 102.7735248  62.0725954 134.3097872
 102.0765700  60.7987530 133.8814686  97.2970855  64.1487029 141.1879788
  97.1515435  64.4627332 142.0804070  96.8196058  64.7671930 140.6350687
  99.1567237  61.1389577 141.2360678  99.1428806  60.2430671 140.8992976
  99.8739666  61.1460241 141.8698964 101.0093368  61.5726918 143.2813805
 100.7511146  62.4943988 143.2798136 100.4778408  61.1757352 143.9714269
 105.9539557  74.6777705 136.0603891 106.1276434  74.1124127 135.3077743
 106.4468448  75.4778600 135.8783381  91.7716517  66.6892374 144.1267449
  91.2269985  67.4652182 144.2587724  92.6495867  67.0363178 143.9686571
  98.5604133  60.0203958 136.5048248  98.6820045  59.0920604 136.7039135
  98.2706176  60.0342644 135.5926563 101.4295324  57.7058868 139.6414968
 101.4517021  57.7698201 138.6866947 101.8463383  56.8663377 139.8355474
 111.8078948  67.4414128 137.6794190 112.2510094  66.6921453 137.2813314
 110.9305458  67.4324264 137.2967922 106.9414729  73.9944469 133.1600789
 107.6365634  74.6151162 133.3788103 107.2837880  73.1439820 133.4353167
  92.5582539  65.8162270 147.0197606  91.8164275  65.9644905 147.6062237
  92.2375283  66.0770536 146.1564356 108.8406152  71.4444175 134.6888120
 109.3657477  71.7831447 133.9637440 108.7528505  70.5091190 134.5051254
 100.5026201  75.3578248 146.8177996 100.8113328  75.1127395 147.6900696
 101.3001683  75.5624887 146.3296866 100.5246813  77.5116158 139.0483373
 100.0851804  77.0192537 139.7416230 101.2754930  76.9689126 138.8075448
  93.0039152  73.7027699 139.0508001  93.8297172  73.4031471 138.6706644
  92.6533204  72.9335321 139.4997790  97.9720685  73.0554167 141.1205674
  97.3500695  72.3924872 140.8207902  98.6425552  73.0815299 140.4379322
  91.2047757  71.6214025 140.0096934  90.3679666  71.1936200 139.8280936
  91.1771403  71.8146469 140.9467726  98.0445213  61.5335955 150.7138181
  98.0933368  62.4098078 150.3315950  98.5867727  60.9913348 150.1409824
 108.5300059  72.0777078 149.9939318 107.7395602  72.0601217 149.4543817
 108.2933413  72.6165372 150.7488354 108.6497934  68.9269545 147.3072046
 108.6995939  68.7619552 148.2487569 108.5411857  68.0596804 146.9169927
  97.5334192  71.6058090 134.5964135  97.6822313  72.2893555 133.9430808
  98.3400636  71.5863180 135.1113591 105.9401696  64.9100473 148.6231353
 106.8411559  64.7706938 148.3315351 106.0149671  65.0754928 149.5629530
 100.2744501  62.2867327 147.4684539  99.4047811  62.5800893 147.1967128
 100.5103982  62.8707772 148.1891803 110.1516130  71.3466486 147.5514068
 109.8600939  71.7096467 148.3877529 109.5388262  70.6333494 147.3727400
 111.3511813  68.9119366 140.0716638 112.1858704  69.3509170 140.2354198
 111.4870942  68.4358019 139.2524884 108.4003319  66.4699101 146.0194126
 108.8757440  66.6626747 145.2112977 107.4768884  66.5258287 145.7737509
  95.2886825  67.6323268 135.6025204  95.0432867  66.7285598 135.8005414
  95.4582740  67.6340418 134.6604682 102.9783535  58.5046944 144.9849960
 103.4965479  59.2407971 144.6596448 102.6238668  58.8110938 145.8196719
  94.5582473  63.3651626 133.1011365  93.8651718  63.4395981 132.4451401
  94.3134225  62.6011969 133.6232882 103.2296129  54.9247227 140.5050856
 103.5097883  54.2570416 141.1311283 104.0146736  55.1176322 139.9925520
 101.0329598  74.1006221 132.0675882 100.4603565  74.7196408 131.6146354
 101.6062391  74.6505582 132.6015804 107.1004988  63.3464861 144.2522431
 108.0522411  63.4462959 144.2734655 106.9308438  62.5543129 144.7620516
 105.1219367  60.4320444 144.4381832 104.5269299  60.7125457 143.7428321
 104.8369064  60.9214345 145.2098573 104.2526858  74.3843371 133.1984465
 105.1857531  74.3188933 133.4017340 104.1650070  75.2199638 132.7398997
 106.8814874  73.7009241 130.1588412 106.8028506  73.3669105 131.0524170
 107.7024541  74.1931009 130.1579885 109.5793065  66.5670981 143.3664731
 109.5469386  65.6286981 143.5524415 110.1893689  66.6455017 142.6330556
 101.4176396  65.4367034 129.4091935 102.3635501  65.3073242 129.4780353
 101.0390641  64.6981695 129.8861363 109.7287554  63.3582024 143.4123014
 109.2126603  62.5740481 143.2252943 110.6127502  63.0300741 143.5769534
 107.3898281  57.1023040 139.3718827 107.1923102  56.7938128 140.2562159
 107.9997986  57.8284678 139.5016757 115.3969615  67.6286987 142.5070768
 116.1273004  67.3672276 143.0678471 114.7876561  66.8915709 142.5472836
 113.4784912  65.7694850 143.1045219 112.7518076  65.6350815 142.4961710
 113.0632199  66.0771679 143.9101937 101.3015089  69.4884780 150.8692592
 102.2218098  69.6663379 151.0632638 101.2664672  68.5440825 150.7172291
  99.6019313  63.3617010 129.3446820  98.6950769  63.0650123 129.4209534
  99.8795294  63.0646828 128.4781106  90.5197254  64.6823373 139.7945867
  90.2000038  63.8288682 139.5020241  89.9730682  64.8971951 140.5503834
  94.2977161  67.3985814 143.5115373  94.5163171  68.3302922 143.5303407
  94.7102935  67.0393789 144.2970177 101.2181379  57.9053900 135.4991061
 100.4082108  57.5600985 135.8746308 101.9065796  57.5961443 136.0878673
 103.1471927  56.9831946 137.1215358 103.7002966  57.4027400 137.7805381
 103.3842014  56.0567695 137.1638314  99.1705027  62.9719020 152.9018122
  99.0701754  63.9213377 152.8330213  98.9526569  62.6437259 152.0294192
  98.3718098  60.2203945 129.4858799  99.2337262  60.5458843 129.7454617
  98.5568442  59.4335441 128.9731865  90.3885514  68.3026285 141.7638988
  89.6948985  67.8880238 141.2508943  91.1358505  68.3446821 141.1672407
 106.5250735  59.0932472 136.6294022 105.9449404  59.7517276 136.2472075
 106.2586667  58.2709816 136.2181440 104.9754301  58.4937529 138.8315343
 105.4754079  58.6054064 138.0229662 105.6189909  58.1898582 139.4716151
  99.0336297  66.4016159 151.7183184  98.5503378  67.2016519 151.9247073
  99.1197236  66.4124104 150.7650628  92.3022256  68.2344539 139.6405003
  92.2792944  68.3332226 138.6886886  92.6122893  69.0809689 139.9622169
  94.9609634  70.2920694 143.7551617  95.9152888  70.2604636 143.6881549
  94.7622158  69.8311317 144.5701843  95.5509016  68.8621810 146.3222415
  96.3701905  69.3565888 146.3457252  95.8245824  67.9453778 146.2939983
 105.3075613  61.2532562 135.6850371 104.4201468  61.5382213 135.4670565
 105.7229602  61.0926325 134.8377648 108.6590149  61.2779083 139.4004710
 109.4350539  61.7675535 139.6729327 107.9338283  61.7037137 139.8576579
 111.0962707  61.9906702 140.4578650 111.6907198  61.7502438 139.7471959
 111.1689291  61.2713833 141.0852187  93.3159863  75.8340313 140.7721815
  93.1814331  75.0740714 140.2059813  92.8991925  76.5581213 140.3050604
 104.4518826  71.0177237 129.7798391 105.1554676  71.2227239 130.3956046
 103.7281475  71.5853999 130.0447474 105.2816636  66.7687098 135.9000661
 105.2251838  67.2255649 135.0608293 105.8344979  66.0077783 135.7223504
 109.0921442  62.5576830 136.7250780 108.8358376  62.1573465 137.5558988
 108.4674310  63.2720624 136.6000919 113.4033780  65.2972903 139.2322072
 112.8433338  65.3666092 140.0053634 112.7977283  65.1213888 138.5121568
  96.4728989  76.7309630 140.9840258  96.3561373  77.6755063 140.8818948
  95.6521435  76.4283192 141.3726057 106.3605523  71.4559766 131.8296851
 107.1951127  71.0240964 131.6474325 106.1989866  71.2841780 132.7573745
 106.0151416  67.9591879 133.1953190 105.9600219  67.7936151 132.2541634
 105.3897471  68.6667912 133.3515380  90.8043931  63.1959944 147.0214612
  91.4502794  62.6858898 147.5101837  90.5961082  63.9328625 147.5958037
 103.3297323  70.2640791 152.5206753 104.1988482  70.4381443 152.1593388
 102.8504074  71.0835208 152.3982482  99.3247541  57.4599988 132.7738508
  99.3126211  58.4041828 132.9306779 100.2170963  57.2770134 132.4797970
  97.4983503  77.3837892 144.1996186  98.4010750  77.4161502 144.5162681
  97.2720873  76.4538343 144.2142522  99.2537105  76.1368879 140.8606265
  98.3032736  76.1370740 140.7470637  99.5569591  75.3901613 140.3442300
 103.1399661  54.0542765 137.0284445 102.3732056  53.5001252 137.1741128
 103.5510366  54.1264634 137.8898597  95.1441422  60.3427561 151.1189626
  96.0072883  59.9864365 151.3292951  94.5706832  60.0041455 151.8065031
 114.9889799  81.9729417 141.9252027 115.6268209  81.8536164 141.2215367
 114.8710641  82.9210261 141.9839980 111.7979505  81.9256845 141.8613552
 111.4598016  81.8097910 140.9734087 112.6669273  81.5248010 141.8414558
 107.6566321  83.7792321 137.8510443 107.0931186  83.6882258 137.0826731
 107.5418716  82.9592226 138.3312936 105.2030752  85.2743513 140.6894663
 105.9952044  84.9334338 140.2740963 105.4427403  85.3838488 141.6096817
 113.2365879  87.4463289 133.1624908 112.5853859  88.0317370 132.7758922
 114.0310242  87.9769484 133.2219945 107.1621506  84.5352426 133.5612042
 107.9352382  83.9881413 133.4224918 107.5146905  85.3996676 133.7726504
 109.9262756  83.2405657 143.3580301 110.5226328  83.0161680 142.6437264
 109.9837727  82.4990403 143.9605749 109.4987784  80.6945092 131.1930492
 109.7513305  80.1726614 130.4313955 108.5612343  80.5311238 131.2957176
 114.5431067  79.6980871 139.0005235 115.3294156  79.2800294 138.6495652
 114.8069771  80.6026963 139.1686884 114.7141144  85.1353721 133.6993892
 114.0786977  85.2088348 134.4114797 114.3838551  85.7247320 133.0212971
 119.9439494  79.6356104 139.9038214 120.6764666  79.0655321 140.1376043
 119.1878850  79.2477704 140.3444720 109.2184073  82.5973198 133.3954867
 109.1020331  81.9218102 134.0635951 109.3286333  82.1105572 132.5787020
 111.5615614  82.0583346 137.1001556 111.1973821  81.5313966 137.8114478
 112.4182730  81.6681815 136.9268042 117.4664915  73.3477678 144.3632823
 117.1348239  74.2173089 144.1394038 116.8710528  73.0313962 145.0426853
 111.2021101  77.0873245 132.0962905 111.3695503  77.9553482 132.4633376
 111.0118270  77.2500527 131.1724194 107.4108916  82.0004021 139.7965440
 106.4859412  81.8680235 140.0043131 107.6593329  82.7798240 140.2935382
 117.3593578  78.0672764 141.4426173 116.4510455  77.9988173 141.1484934
 117.3081174  78.5444709 142.2707998 111.1810322  79.5430903 133.0809572
 111.0609947  79.9887953 133.9195052 110.4862910  79.8916220 132.5223110
 104.7717727  81.6437295 140.6309229 104.9010108  81.8971773 141.5448640
 104.0915178  82.2365003 140.3113884 108.9417214  92.3134544 136.7299703
 108.8641244  93.2642370 136.8088184 108.3378857  91.9680417 137.3874629
 119.2255224  76.2689203 143.2204047 118.5829604  76.5621736 142.5743841
 118.7210153  76.1542123 144.0257243 116.8795388  80.0152376 133.9089906
 117.7913244  80.2479763 133.7337603 116.3705035  80.5989420 133.3464984
 111.5167226  79.3749610 144.9184755 112.3628421  79.7989024 145.0619404
 111.4565863  78.7183235 145.6123318 114.2231363  76.1910412 142.1579767
 113.3615842  76.4891665 142.4496504 114.2493797  76.4080811 141.2260799
 111.0392932  84.7352602 138.5653572 111.5031278  85.0140305 137.7758195
 110.7749730  83.8336047 138.3826663 107.9317013  84.2824084 141.5033336
 108.5018370  84.7111352 140.8650820 108.5225125  84.0006669 142.2017521
 109.9761818  80.8575755 135.3743137 110.6785861  81.3096798 135.8417064
 109.6442447  80.2159574 136.0023031 103.7187152  79.1159307 140.6760271
 102.9286206  79.3716836 140.2000382 104.2098399  79.9307645 140.7812312
 105.6701897  79.4803887 137.6343748 104.8733061  79.5922581 138.1527243
 105.4427490  79.8190539 136.7684638 102.0024855  79.3689798 143.1075262
 102.2532894  80.2536808 143.3732838 102.5384403  79.1894399 142.3350354
 111.2155583  87.6716697 135.4505243 111.0801258  88.5168233 135.8790091
 111.7565395  87.8735975 134.6871177 104.6684980  85.1892135 136.0233168
 105.1809501  85.9835386 136.1738732 105.3207693  84.4918426 135.9566769
 106.4779865  88.3057892 138.1055921 106.6546493  89.2275856 137.9176905
 107.2736698  87.9916311 138.5350301 105.7632221  80.3522524 147.9818084
 105.6485737  79.4507781 148.2825183 104.9076739  80.5986220 147.6302901
 114.5648046  71.1947259 143.9804136 114.2212316  72.0848901 143.9043247
 114.9327009  71.0048917 143.1173721 102.6333897  83.5180790 136.7992738
 103.4709119  83.9277798 136.5826446 102.8112165  82.5780232 136.7692932
 114.5298329  81.1855870 132.4876571 114.0144952  81.9560475 132.7264959
 114.2575638  80.5121007 133.1109633 112.1145440  76.0305571 137.5461810
 111.2587036  75.6412422 137.3667448 112.5272392  76.1097532 136.6861595
 113.6444587  73.5651914 141.9453369 113.1409382  73.5282050 141.1321175
 113.9375194  74.4744657 142.0050026 109.8887473  73.6490644 140.9519551
 110.7540469  73.4533453 140.5925441 109.9564982  73.4200996 141.8788908
 119.5032603  83.9388225 134.4229745 118.7262046  83.5999385 133.9784907
 120.1824084  83.9440848 133.7484710 114.3184632  79.0582963 134.3136352
 114.0134768  79.3729112 135.1646496 115.2715074  79.1364382 134.3563685
 112.7631064  85.2173186 135.9629306 112.2352426  84.4825945 135.6502544
 112.2618567  85.9947862 135.7169275 107.4949792  75.8792852 138.3235918
 108.0693544  75.6568034 137.5909111 108.0820774  75.9481547 139.0764519
 116.5529369  81.7666579 139.1300294 117.0661251  82.3996571 139.6322004
 117.2030593  81.1667775 138.7643655 107.8219379  77.9097313 132.3431803
 106.9856691  78.2472000 132.6641078 107.6824148  77.7746293 131.4058940
 109.7972459  72.7534101 137.0510987 109.1436872  72.4383118 136.4267602
 109.7552934  72.1309841 137.7770810 110.9083664  83.0353396 128.9664279
 110.0010726  82.8042650 129.1655428 111.4054696  82.2391015 129.1538261
 113.8151743  91.7450903 131.8860966 113.1413442  92.0482600 132.4945923
 114.2017565  92.5479984 131.5366423 113.0310200  79.2416035 141.3758635
 112.1132761  79.4630982 141.2180323 113.4470343  79.3162345 140.5170342
 113.8145248  80.6407450 136.5061315 114.5617066  81.1528847 136.1968437
 114.0836837  80.3191503 137.3665709 112.0871898  83.1365991 133.4888270
 111.1783117  82.8525024 133.5860739 112.1166981  83.5565070 132.6291576
 117.3191165  86.7472580 137.2579437 116.8653492  85.9063490 137.3144628
 116.6885132  87.3833979 137.5954217 116.2624085  77.6764566 138.4880105
 115.5246841  77.1641953 138.8190347 116.5150858  77.2364948 137.6763381
 115.7624104  88.5849077 138.1929255 116.0547079  89.1454134 137.4741621
 116.2722725  88.8777638 138.9482414 116.3635712  70.4540818 139.0821874
 116.6694589  69.5938182 138.7947789 117.0888317  71.0458439 138.8820868
 102.6560068  80.8571505 137.4703472 102.4584468  80.2640866 136.7454538
 102.1006732  80.5523715 138.1879411 110.6356792  80.7494612 139.5898065
 110.6905402  79.7968448 139.5140541 109.8247994  80.9054051 140.0739363
 111.7847985  84.6774735 130.8276348 111.3467415  83.9610594 130.3681985
 112.5258426  84.9050849 130.2661440 108.5749152  79.3671671 137.3488444
 107.7617017  79.6665842 137.7553636 109.0708146  78.9727360 138.0662926
 110.7257730  89.3629428 139.2822708 110.6833908  89.5890275 138.3531240
 111.6420428  89.1292803 139.4308510 119.9021100  82.9531932 136.8852667
 119.7638999  83.1433528 135.9573856 119.5457319  83.7151314 137.3420718
 108.0663226  76.9390027 142.9649679 108.7062606  76.7978786 142.2672642
 107.2340757  76.6524540 142.5888281 108.8423530  86.2392457 139.0784671
 109.6364129  85.7442777 138.8767246 108.1315223  85.7110320 138.7152377
 105.1506294  80.3835539 135.1544424 104.2203882  80.3219994 135.3714386
 105.2463766  79.8611492 134.3581065 105.0691843  76.9090352 137.7422666
 105.3298660  77.8235685 137.6331826 105.8909015  76.4414794 137.8919278
 106.5416768  78.3228109 144.9121490 107.2139822  78.1145471 144.2634139
 105.7146555  78.1250195 144.4726722 112.4442340  74.9490050 146.9287151
 111.7970255  75.6480000 146.8351627 113.2143356  75.3826194 147.2963399
 112.0142958  91.9130576 134.1008045 112.1894714  91.4418619 134.9153667
 111.3275746  92.5396342 134.3289306 112.9700021  86.1903082 140.1471346
 112.6349854  86.1503852 141.0428996 112.4703967  85.5247798 139.6741756
 106.9444265  81.5970712 145.6723927 106.8064063  80.8650951 146.2735466
 107.8549189  81.5079612 145.3908115 115.9059213  83.5359116 130.4208406
 115.2888384  82.8105944 130.3241458 115.4375702  84.2968477 130.0775480
 108.2855500  78.2955889 146.9803246 107.7492857  77.8446628 147.6324843
 107.6972209  78.4301798 146.2373711 107.6957759  77.7544541 129.5429710
 106.8187225  77.6333341 129.1791957 108.1715512  76.9630619 129.2908599
  99.2159899  82.5421700 139.6371217  99.9030939  82.2283430 139.0492232
  99.0608028  83.4463065 139.3638469 104.0194621  77.4311897 144.0656241
 103.9352810  76.8237566 143.3306651 103.1977328  77.9220915 144.0665737
 110.8821685  90.1070831 136.7892231 110.0989207  90.6492511 136.8830455
 111.5814430  90.6244811 137.1886472 114.1918335  75.9165460 139.4326436
 114.6887035  75.1635423 139.1127506 113.4205317  75.9529777 138.8669645
 115.2748116  84.6737148 137.0064859 114.3404395  84.7938610 136.8369564
 115.4524784  83.7709614 136.7424869 110.7753304  78.0582843 139.1598120
 110.4051091  77.5053884 139.8479026 111.2712396  77.4540977 138.6073121
 118.6620667  80.5154467 137.5414893 119.1281119  81.3482458 137.4675196
 119.1128168  80.0499448 138.2460152 116.7296898  86.8598288 134.5401045
 117.0056742  86.7454883 135.4494920 115.8601397  86.4615773 134.5013219
 116.6337330  72.8835054 141.5805795 115.7200410  73.1139281 141.7488002
 117.0630431  72.9673498 142.4319827 113.3650962  91.1084639 138.1833859
 113.5473357  90.2906295 138.6461611 114.1883948  91.3252331 137.7458749
 113.6993128  90.0352824 135.4448908 114.2280894  89.5245279 134.8319070
 113.9621347  89.7195354 136.3094441 104.2010221  88.0516693 143.1884241
 104.7863657  87.3060381 143.3212145 104.0035059  88.3620650 144.0720905
 107.0548876  91.0867941 138.2046684 106.3859251  91.5714068 137.7210724
 106.9161745  91.3337161 139.1190062  98.7927875  80.6222294 141.9088684
  98.8311975  80.0885884 142.7025802  98.2868168  80.0957499 141.2899661
 106.1718638  75.4686834 145.4051227 106.2359964  76.3301665 144.9928624
 106.1085758  74.8560836 144.6723585 105.6470910  77.5409967 149.0524261
 106.2742949  77.1587044 149.6661785 104.7898829  77.3224169 149.4179953
 102.4236453  79.3486396 134.9842616 102.7189894  78.4397074 134.9309669
 101.5224489  79.3274135 134.6623618 105.9530700  77.4242392 140.9670164
 105.2317286  78.0378360 140.8277638 106.7423956  77.9600157 140.8886810
 108.7557013  74.7596819 147.2410816 109.2791415  75.0059115 148.0037125
 108.5369347  75.5916854 146.8213953 104.1524294  77.0300493 135.1081941
 103.8237001  76.1497872 134.9257047 104.5063665  76.9748162 135.9958330
 113.4003873  88.6655396 139.6176926 113.2528836  87.7372104 139.7984496
 114.2257367  88.6875487 139.1334002 107.2666118  77.3173463 135.4757419
 107.6062190  77.8459385 134.7536027 107.7138238  77.6553869 136.2515985
 109.9609558  75.7010514 144.9260487 109.6206379  74.9018327 145.3281166
 109.2548565  76.0012225 144.3537320 110.6126030  72.7859826 143.3787810
 111.4352100  72.3120305 143.2566700 110.8564094  73.5650310 143.8786496
 109.2534265  75.8148085 133.6750711 109.9742627  76.1929338 133.1714428
 108.6299569  76.5336962 133.7785689 113.3965388  76.5193234 134.6109044
 113.6129002  77.4017872 134.3097872 112.9159455  76.1279447 133.8814686
 108.1364609  79.4778947 141.1879788 107.9909190  79.7919250 142.0804070
 107.6589813  80.0963847 140.6350687 109.9960992  76.4681495 141.2360678
 109.9822561  75.5722588 140.8992976 110.7133420  76.4752159 141.8698964
 111.8487123  76.9018835 143.2813805 111.5904900  77.8235906 143.2798136
 111.3172163  76.5049270 143.9714269 116.7933311  90.0069622 136.0603891
 116.9670189  89.4416045 135.3077743 117.2862203  90.8070517 135.8783381
 102.6110271  82.0184291 144.1267449 102.0663739  82.7944099 144.2587724
 103.4889621  82.3655096 143.9686571 109.3997888  75.3495875 136.5048248
 109.5213799  74.4212522 136.7039135 109.1099930  75.3634561 135.5926563
 112.2689078  73.0350786 139.6414968 112.2910775  73.0990119 138.6866947
 112.6857137  72.1955294 139.8355474 122.6472703  82.7706045 137.6794190
 123.0903849  82.0213371 137.2813314 121.7699213  82.7616182 137.2967922
 117.7808484  89.3236387 133.1600789 118.4759388  89.9443079 133.3788103
 118.1231634  88.4731738 133.4353167 103.3976293  81.1454188 147.0197606
 102.6558029  81.2936823 147.6062237 103.0769037  81.4062453 146.1564356
 119.6799907  86.7736092 134.6888120 120.2051231  87.1123365 133.9637440
 119.5922260  85.8383108 134.5051254 103.8432907  89.0319616 139.0508001
 104.6690927  88.7323388 138.6706644 103.4926959  88.2627239 139.4997790
 108.8114440  88.3846085 141.1205674 108.1894449  87.7216790 140.8207902
 109.4819307  88.4107217 140.4379322 102.0441512  86.9505943 140.0096934
 101.2073420  86.5228117 139.8280936 102.0165157  87.1438386 140.9467726
 108.3727947  86.9350008 134.5964135 108.5216067  87.6185472 133.9430808
 109.1794390  86.9155098 135.1113591 106.1280580  82.9615186 135.6025204
 105.8826622  82.0577516 135.8005414 106.2976494  82.9632336 134.6604682
 113.8177290  73.8338862 144.9849960 114.3359234  74.5699889 144.6596448
 113.4632422  74.1402855 145.8196719 105.3976227  78.6943543 133.1011365
 104.7045472  78.7687898 132.4451401 105.1527979  77.9303887 133.6232882
 114.0689884  70.2539145 140.5050856 114.3491638  69.5862334 141.1311283
 114.8540491  70.4468240 139.9925520 111.8723352  89.4298138 132.0675882
 111.2997319  90.0488326 131.6146354 112.4456146  89.9797500 132.6015804
 115.9613122  75.7612362 144.4381832 115.3663054  76.0417374 143.7428321
 115.6762818  76.2506263 145.2098573 115.0920612  89.7135289 133.1984465
 116.0251285  89.6480850 133.4017340 115.0043825  90.5491555 132.7398997
 117.7208629  89.0301159 130.1588412 117.6422260  88.6961023 131.0524170
 118.5418296  89.5222927 130.1579885 112.2570151  80.7658951 129.4091935
 113.2029256  80.6365159 129.4780353 111.8784396  80.0273613 129.8861363
 118.2292035  72.4314957 139.3718827 118.0316856  72.1230045 140.2562159
 118.8391741  73.1576596 139.5016757 110.4413068  78.6908928 129.3446820
 109.5344523  78.3942040 129.4209534 110.7189049  78.3938746 128.4781106
 101.3591008  80.0115291 139.7945867 101.0393793  79.1580599 139.5020241
 100.8124437  80.2263869 140.5503834 105.1370916  82.7277732 143.5115373
 105.3556926  83.6594840 143.5303407 105.5496690  82.3685706 144.2970177
 112.0575134  73.2345817 135.4991061 111.2475862  72.8892902 135.8746308
 112.7459551  72.9253361 136.0878673 113.9865682  72.3123864 137.1215358
 114.5396721  72.7319318 137.7805381 114.2235768  71.3859612 137.1638314
 109.2111853  75.5495863 129.4858799 110.0731017  75.8750761 129.7454617
 109.3962197  74.7627359 128.9731865 101.2279268  83.6318202 141.7638988
 100.5342740  83.2172155 141.2508943 101.9752259  83.6738739 141.1672407
 117.3644489  74.4224389 136.6294022 116.7843158  75.0809193 136.2472075
 117.0980422  73.6001734 136.2181440 115.8148055  73.8229447 138.8315343
 116.3147834  73.9345982 138.0229662 116.4583663  73.5190500 139.4716151
 103.1416011  83.5636456 139.6405003 103.1186699  83.6624144 138.6886886
 103.4516647  84.4101607 139.9622169 105.8003389  85.6212611 143.7551617
 106.7546642  85.5896554 143.6881549 105.6015912  85.1603235 144.5701843
 116.1469367  76.5824480 135.6850371 115.2595222  76.8674130 135.4670565
 116.5623356  76.4218243 134.8377648 119.4983903  76.6071001 139.4004710
 120.2744293  77.0967453 139.6729327 118.7732037  77.0329055 139.8576579
 121.9356462  77.3198620 140.4578650 122.5300953  77.0794356 139.7471959
 122.0083046  76.6005750 141.0852187 104.1553618  91.1632231 140.7721815
 104.0208085  90.4032632 140.2059813 103.7385680  91.8873131 140.3050604
 115.2912581  86.3469154 129.7798391 115.9948431  86.5519157 130.3956046
 114.5675229  86.9145916 130.0447474 116.1210391  82.0979016 135.9000661
 116.0645592  82.5547567 135.0608293 116.6738733  81.3369700 135.7223504
 119.9315197  77.8868747 136.7250780 119.6752131  77.4865383 137.5558988
 119.3068065  78.6012541 136.6000919 124.2427535  80.6264821 139.2322072
 123.6827093  80.6958010 140.0053634 123.6371038  80.4505805 138.5121568
 117.1999278  86.7851684 131.8296851 118.0344882  86.3532882 131.6474325
 117.0383621  86.6133697 132.7573745 116.8545170  83.2883797 133.1953190
 116.7993974  83.1228068 132.2541634 116.2291225  83.9959830 133.3515380
 101.6437685  78.5251861 147.0214612 102.2896549  78.0150815 147.5101837
 101.4354836  79.2620543 147.5958037 110.1641296  72.7891906 132.7738508
 110.1519965  73.7333746 132.9306779 111.0564717  72.6062051 132.4797970
 113.9793415  69.3834682 137.0284445 113.2125811  68.8293169 137.1741128
 114.3904120  69.4556551 137.8898597 120.3381539  96.0237010 131.1930492
 120.5907059  95.5018531 130.4313955 119.4006098  95.8603156 131.2957176
 122.0414855  92.4165163 132.0962905 122.2089258  93.2845399 132.4633376
 121.8512024  92.5792445 131.1724194 118.6613133  93.2389231 132.3431803
 117.8250446  93.5763917 132.6641078 118.5217903  93.1038211 131.4058940
 120.6366214  88.0826019 137.0510987 119.9830626  87.7675036 136.4267602
 120.5946688  87.4601759 137.7770810 121.7477419  98.3645314 128.9664279
 120.8404480  98.1334567 129.1655428 122.2448451  97.5682933 129.1538261
 118.5351514  93.0836458 129.5429710 117.6580980  92.9625259 129.1791957
 119.0109267  92.2922537 129.2908599 113.2630207  94.6778313 134.9842616
 113.5583648  93.7688992 134.9309669 112.3618243  94.6566053 134.6623618
 114.9918049  92.3592411 135.1081941 114.6630755  91.4789790 134.9257047
 115.3457420  92.3040080 135.9958330 120.0928019  91.1440003 133.6750711
 120.8136382  91.5221255 133.1714428 119.4693323  91.8628879 133.7785689
 116.2369982  94.0235461 133.1011365 115.5439227  94.0979816 132.4451401
 115.9921734  93.2595805 133.6232882 123.0963905  96.0950869 129.4091935
 124.0423010  95.9657077 129.4780353 122.7178150  95.3565531 129.8861363
 121.2806822  94.0200845 129.3446820 120.3738278  93.7233958 129.4209534
 121.5582803  93.7230663 128.4781106 122.8968888  88.5637735 135.4991061
 122.0869616  88.2184820 135.8746308 123.5853305  88.2545279 136.0878673
 120.0505607  90.8787780 129.4858799 120.9124771  91.2042679 129.7454617
 120.2355951  90.0919276 128.9731865 121.0035050  88.1183824 132.7738508
 120.9913720  89.0625663 132.9306779 121.8958472  87.9353969 132.4797970
  69.8790863   3.1357741 119.8870215  69.2278842   3.7211821 119.5004228
  70.6735225   3.6663936 119.9465252  76.1457586  -0.3717323 121.1475051
  75.3687029  -0.7106164 120.7030213  76.8249067  -0.3664700 120.4730016
  67.5508648  -1.2752152 115.6909586  66.6435709  -1.5062899 115.8900735
  68.0479680  -2.0714533 115.8783568  70.4576726   7.4345355 118.6106272
  69.7838425   7.7377052 119.2191230  70.8442548   8.2374436 118.2611729
  68.4272969   0.3669187 117.5521655  67.9892399  -0.3494955 117.0927292
  69.1683410   0.5945301 116.9906746  68.6567942   7.6025028 120.8253351
  68.8319697   7.1313071 121.6398974  67.9700730   8.2290794 121.0534612
  72.5484196  -0.7746432 117.1453712  71.9313367  -1.4999604 117.0486765
  72.0800685  -0.0137072 116.8020787  73.3721882   2.5492740 121.2646352
  73.6481726   2.4349335 122.1740226  72.5026380   2.1510225 121.2258525
  70.3418111   5.7247276 122.1694214  70.8705878   5.2139731 121.5564376
  70.6046331   5.4089806 123.0339747  73.4358295   5.6964074 122.7849197
  73.6095172   5.1310497 122.0323050  73.9287186   6.4964969 122.6028687
  74.4233467   5.0130839 119.8846095  75.1184372   5.6337531 120.1033410
  74.7656617   4.1626190 120.1598473  76.3224890   2.4630544 121.4133426
  76.8476214   2.8017817 120.6882746  76.2347243   1.5277560 121.2296561
  68.5148336   5.1192590 118.7921189  67.9422303   5.7382777 118.3391661
  69.0881129   5.6691952 119.3261111  71.7345595   5.4029740 119.9229771
  72.6676269   5.3375302 120.1262647  71.6468808   6.2386007 119.4644304
  74.3633612   4.7195611 116.8833719  74.2847244   4.3855474 117.7769477
  75.1843279   5.2117379 116.8825191  68.8995134  -3.5446597 116.1337242
  69.8454239  -3.6740389 116.2025660  68.5209379  -4.2831935 116.6106670
  71.9337564   2.0363606 116.5043697  72.6373414   2.2413609 117.1201353
  71.2100213   2.6040368 116.7692781  73.8424261   2.4746135 118.5542157
  74.6769865   2.0427334 118.3719632  73.6808604   2.3028149 119.4819052
  73.4970153  -1.0221751 119.9198497  73.4418957  -1.1877480 118.9786941
  72.8716209  -0.3145718 120.0760686  82.4708536  12.9915787 128.6497334
  83.1086946  12.8722534 127.9460674  82.3529379  13.9396630 128.7085286
  79.2798243  12.9443215 128.5858859  78.9416754  12.8284279 127.6979394
  80.1488011  12.5434380 128.5659865  75.1385058  14.7978691 124.5755750
  74.5749923  14.7068628 123.8072037  75.0237453  13.9778596 125.0558242
  72.6849490  16.2929883 127.4139970  73.4770782  15.9520707 126.9986269
  72.9246140  16.4024858 128.3342123  80.7184617  18.4649659 119.8870215
  80.0672597  19.0503739 119.5004228  81.5128980  18.9955854 119.9465252
  74.6440244  15.5538796 120.2857349  75.4171120  15.0067783 120.1470225
  74.9965643  16.4183045 120.4971810  77.4081494  14.2592027 130.0825608
  78.0045066  14.0348049 129.3682571  77.4656465  13.5176772 130.6851056
  76.9806522  11.7131462 117.9175799  77.2332043  11.1912983 117.1559262
  76.0431081  11.5497607 118.0202482  82.0249805  10.7167240 125.7250542
  82.8112894  10.2986664 125.3740959  82.2888509  11.6213333 125.8932190
  82.1959882  16.1540091 120.4239199  81.5605715  16.2274717 121.1360104
  81.8657289  16.7433690 119.7458278  87.4258232  10.6542474 126.6283521
  88.1583404  10.0841690 126.8621350  86.6697588  10.2664074 127.0690026
  76.7002811  13.6159568 120.1200174  76.5839069  12.9404471 120.7881258
  76.8105071  13.1291942 119.3032327  79.0434352  13.0769715 123.8246863
  78.6792559  12.5500336 124.5359785  79.9001468  12.6868184 123.6513348
  78.6839839   8.1059615 118.8208212  78.8514241   8.9739851 119.1878683
  78.4937008   8.2686896 117.8969501  81.4415172  16.5676594 130.4874042
  81.1415895  17.4701632 130.3789849  81.0966231  16.3008777 131.3395195
  74.8927653  13.0190391 126.5210746  73.9678150  12.8866605 126.7288438
  75.1412067  13.7984610 127.0180689  84.8412316   9.0859134 128.1671479
  83.9329193   9.0174542 127.8730240  84.7899911   9.5631079 128.9953305
  78.6629060  10.5617272 119.8054878  78.5428685  11.0074323 120.6440359
  77.9681648  10.9102590 119.2468417  72.2536464  12.6623664 127.3554535
  72.3828846  12.9158143 128.2693947  71.5733916  13.2551372 127.0359190
  76.4235952  23.3320914 123.4545010  76.3459981  24.2828739 123.5333490
  75.8197595  22.9866787 124.1119936  84.3614126  11.0338745 120.6335212
  85.2731982  11.2666132 120.4582910  83.8523773  11.6175790 120.0710291
  82.9683708  16.0164564 128.0248794  82.3392570  16.1810278 127.3224862
  82.5809370  16.4306173 128.7959758  86.8472940  16.9519002 125.3793158
  86.1623978  17.3317903 124.8290191  86.9316789  17.5614328 126.1125105
  84.1023872  14.5978961 131.9788501  84.3140767  15.2410721 131.3022882
  84.0553620  13.7641277 131.5110431  78.5211670  15.7538972 125.2898879
  78.9850015  16.0326675 124.5003501  78.2568468  14.8522417 125.1071970
  75.4135751  15.3010454 128.2278642  75.9837108  15.7297722 127.5896127
  76.0043863  15.0193038 128.9262828  77.4580556  11.8762124 122.0988444
  78.1604599  12.3283168 122.5662370  77.1261184  11.2345943 122.7268337
  85.2169699  17.4750916 130.1510859  86.0387143  17.0731103 129.8693540
  85.2132102  17.3719150 131.1026974  73.1520635  10.4990256 124.3589054
  72.3551799  10.6108951 124.8772550  72.9246227  10.8376908 123.4929945
  78.9826303  17.0234959 132.3071569  79.0470735  17.4855367 133.1429741
  78.2737227  16.3932324 132.4353879  93.3075693  13.8189665 126.4995830
  92.5539401  13.2497063 126.3439834  93.4423234  13.7852329 127.4466465
  78.6974321  18.6903067 122.1750549  78.5619995  19.5354603 122.6035397
  79.2384133  18.8922345 121.4116483  72.1503718  16.2078505 122.7478474
  72.6628239  17.0021755 122.8984039  72.8026431  15.5104795 122.6812076
  73.9598603  19.3244261 124.8301228  74.1365231  20.2462226 124.6422212
  74.7555436  19.0102681 125.2595607  75.0829918  20.8422435 130.8311570
  75.6337343  20.7139498 130.0588564  74.2441394  21.1417324 130.4806463
  82.4224035  19.5929433 134.3332293  82.4042510  20.4138314 133.8412562
  83.3443955  19.4683509 134.5582434  70.1152635  14.5367159 123.5238045
  70.9527857  14.9464168 123.3071753  70.2930902  13.5966601 123.4938239
  82.0117067  12.2042240 119.2121878  81.4963690  12.9746845 119.4510265
  81.7394375  11.5307376 119.8354939  79.5964178   7.0491941 124.2707116
  78.7405774   6.6598791 124.0912755  80.0091130   7.1283902 123.4106902
  86.9851341  14.9574595 121.1475051  86.2080784  14.6185754 120.7030213
  87.6642822  14.9627218 120.4730016  81.8003370  10.0769332 121.0381659
  81.4953506  10.3915481 121.8891802  82.7533812  10.1550752 121.0808992
  80.2449802  16.2359555 122.6874613  79.7171163  15.5012315 122.3747851
  79.7437305  17.0134232 122.4414581  85.2242648  14.4308576 127.8041659
  84.5666322  15.1207837 127.8921788  86.0283047  14.8205008 128.1475646
  74.9768529   6.8979222 125.0481225  75.5512281   6.6754403 124.3154418
  75.5639512   6.9667916 125.8009826  84.0348107  12.7852949 125.8545601
  84.5479988  13.4182940 126.3567311  84.6849331  12.1854144 125.4888961
  75.3038117   8.9283683 119.0677110  74.4675429   9.2658369 119.3886385
  75.1642886   8.7932662 118.1304247  77.2791197   3.7720471 123.7756294
  76.6255610   3.4569488 123.1512909  77.2371671   3.1496211 124.5016117
  78.3902402  14.0539766 115.6909586  77.4829464  13.8229019 115.8900735
  78.8873434  13.2577385 115.8783568  81.2970481  22.7637273 118.6106272
  80.6232180  23.0668970 119.2191230  81.6836303  23.5666353 118.2611729
  80.5128938  10.2602404 128.1003942  79.5951499  10.4817351 127.9425630
  80.9289081  10.3348715 127.2415649  81.2963985  11.6593820 123.2306622
  82.0435804  12.1715217 122.9213744  81.5655575  11.3377873 124.0911015
  79.5690635  14.1552361 120.2133576  78.6601855  13.8711393 120.3106046
  79.5985719  14.5751439 119.3536883  84.8009903  17.7658950 123.9824744
  84.3472230  16.9249860 124.0389934  84.1703870  18.4020348 124.3199524
  83.7442822   8.6950936 125.2125411  83.0065579   8.1828322 125.5435654
  83.9969596   8.2551318 124.4008688  83.2442842  19.6035447 124.9174562
  83.5365817  20.1640504 124.1986928  83.7541463  19.8964008 125.6727721
  83.8454450   1.4727188 125.8067180  84.1513327   0.6124551 125.5193096
  84.5707055   2.0644808 125.6066174  70.1378806  11.8757875 124.1948778
  69.9403206  11.2827235 123.4699845  69.5825470  11.5710085 124.9124717
  78.1175530  11.7680981 126.3143372  78.1724139  10.8154818 126.2385848
  77.3066732  11.9240420 126.7984670  79.2666723  15.6961104 117.5521655
  78.8286153  14.9796963 117.0927292  80.0077164  15.9237219 116.9906746
  76.0567889  10.3858041 124.0733750  75.2435755  10.6852211 124.4798943
  76.5526884   9.9913730 124.7908233  78.2076467  20.3815798 126.0068015
  78.1652646  20.6076644 125.0776547  79.1239166  20.1479172 126.1553816
  87.3839838  13.9718301 123.6097973  87.2457737  14.1619897 122.6819163
  87.0276057  14.7337684 124.0666024  87.4109218  16.0394828 128.6209245
  87.8445724  15.9470117 129.4692299  88.1240798  16.0152329 127.9829261
  76.3242268  17.2578827 125.8029978  77.1182867  16.7629147 125.6012553
  75.6133960  16.7296690 125.4397683  81.1437113  19.6396922 130.1542345
  81.1974135  20.2087859 130.9220061  80.2751894  19.8098807 129.7896383
  72.6325032  11.4021909 121.8789731  71.7022620  11.3406364 122.0959693
  72.7282504  10.8797861 121.0826372  72.5510581   7.9276721 124.4667972
  72.8117398   8.8422055 124.3577133  73.3727753   7.4601164 124.6164585
  88.2724767  16.0818529 131.1542130  88.4660657  16.9864339 131.4001405
  88.1725385  15.6225948 131.9880715  80.1025212  13.8057184 131.7129277
  81.0317272  13.9568344 131.5398245  79.6816242  13.8941205 130.8577924
  78.9013544  17.8307849 129.4827815  78.7624630  17.4626633 130.3553753
  78.1128140  18.3455488 129.3111773  79.4961696  22.9316945 120.8253351
  79.6713452  22.4604988 121.6398974  78.8094484  23.5582711 121.0534612
  80.4518759  17.2089451 126.8716653  80.1168592  17.1690221 127.7674303
  79.9522705  16.5434167 126.3987063  83.3877951  14.5545486 117.1453712
  82.7707122  13.8292314 117.0486765  82.9194439  15.3154846 116.8020787
  85.0432083  19.2644394 134.8059493  84.9844629  18.5803614 134.1390076
  85.4451601  20.0063384 134.3540119  74.0622781  26.0806308 127.5993212
  74.3019380  26.7124832 128.2772230  73.2191978  25.7294348 127.8858571
  75.1776497   8.7730910 116.2675017  74.3005963   8.6519711 115.9037263
  75.6534250   7.9816988 116.0153905  85.0449490  17.2283978 133.0373472
  84.1576269  16.8909900 133.1599871  85.6148041  16.4967009 133.2742238
  78.5750643  21.8885430 130.0034716  78.5020815  22.6940402 130.5154020
  78.1328036  22.0877396 129.1782737  78.3640423  21.1257200 123.5137537
  77.5807945  21.6678881 123.6075762  79.0633168  21.6431180 123.9131778
  81.6737073   6.9351830 126.1571743  82.1705772   6.1821792 125.8372813
  80.9024054   6.9716147 125.5914952  89.5266830  12.6392195 127.7990034
  89.5156707  13.5216911 127.4283967  88.6584210  12.2863746 127.6044571
  81.0349327  21.7872264 132.1592874  81.7477299  22.4219729 132.0868776
  80.5439355  21.8836130 131.3432876  82.7566854  15.6923517 123.7310166
  81.8223132  15.8124980 123.5614870  82.9343522  14.7895984 123.4670176
  78.2572042   9.0769213 125.8843427  77.8869829   8.5240253 126.5724333
  78.7531134   8.4727346 125.3318427  86.1439405  11.5340836 124.2660200
  86.6099857  12.3668828 124.1920503  86.5946905  11.0685818 124.9705459
  76.0861240  19.5366708 132.9798445  76.7870700  20.1703191 133.1327839
  75.6156355  19.8781440 132.2194084  84.2115636  17.8784658 121.2646352
  84.4875480  17.7641252 122.1740226  83.3420135  17.4802143 121.2258525
  83.8862526  12.0911315 130.8050995  83.2333976  12.3387223 130.1503448
  84.2642906  11.2775454 130.4713473  80.8469700  22.1271009 124.9079166
  81.0292095  21.3092665 125.3706918  81.6702686  22.3438701 124.4704056
  81.1811866  21.0539194 122.1694214  81.7099632  20.5431648 121.5564376
  81.4440085  20.7381724 123.0339747  71.6828958  19.0703063 129.9129548
  72.2682395  18.3246751 130.0457452  71.4853797  19.3807020 130.7966212
  74.5367614  22.1054310 124.9291990  73.8677989  22.5900438 124.4456030
  74.3980483  22.3523531 125.8435369  78.6772882  24.1398054 131.5274649
  79.2291190  24.3029675 132.2923734  79.0179076  24.7302492 130.8554673
  69.9055191  10.3672765 121.7087922  70.2008632   9.4583444 121.6554976
  69.0043226  10.3460505 121.3868925  81.8141269  22.0880029 128.5138331
  81.6892409  21.2869769 128.0049276  82.4720361  22.5826223 128.0252301
  83.8776178  19.8889050 130.1417881  82.9306513  19.7694401 130.0696207
  84.2258951  19.0011548 130.2244142  71.6343032   8.0486863 121.8327247
  71.3055738   7.1684242 121.6502353  71.9882403   7.9934532 122.7203637
  80.8822611  19.6841766 126.3422233  80.7347574  18.7558473 126.5229803
  81.7076105  19.7061856 125.8579308  74.7484855   8.3359833 122.2002725
  75.0880928   8.8645754 121.4781333  75.1956976   8.6740239 122.9761292
  84.4856733  20.5070324 127.4287106  85.4103280  20.3013186 127.2911557
  84.3172036  20.2586726 128.3376447  76.7353003   6.8334454 120.3996018
  77.4561365   7.2115707 119.8959735  76.1118307   7.5523331 120.5030996
  80.8784125   7.5379603 121.3354350  81.0947740   8.4204241 121.0343178
  80.3978193   7.1465817 120.6059992  84.2752049  21.0255992 122.7849197
  84.4488927  20.4602414 122.0323050  84.7680940  21.8256887 122.6028687
  76.8816626   6.3682245 123.2293555  77.0032537   5.4398891 123.4284442
  76.5918668   6.3820931 122.3171870  90.1291440  13.7892415 124.4039497
  90.5722586  13.0399740 124.0058620  89.2517951  13.7802551 124.0213229
  85.2627222  20.3422756 119.8846095  85.9578126  20.9629449 120.1033410
  85.6050372  19.4918108 120.1598473  87.1618645  17.7922462 121.4133426
  87.6869969  18.1309735 120.6882746  87.0740997  16.8569477 121.2296561
  78.8238693  21.7056536 133.5423303  79.1325820  21.4605682 134.4146002
  79.6214175  21.9103174 133.0542173  78.8459306  23.8594445 125.7728679
  78.4064296  23.3670824 126.4661536  79.5967422  23.3167413 125.5320755
  71.3251644  20.0505986 125.7753308  72.1509664  19.7509758 125.3951951
  70.9745696  19.2813608 126.2243096  76.2933178  19.4032454 127.8450981
  75.6713187  18.7403159 127.5453209  76.9638045  19.4293586 127.1624629
  69.5260250  17.9692312 126.7342241  68.6892158  17.5414487 126.5526242
  69.4983895  18.1624756 127.6713032  86.8512551  18.4255366 136.7184624
  86.0608095  18.4079504 136.1789124  86.6145905  18.9643659 137.4733661
  86.9710426  15.2747832 134.0317353  87.0208431  15.1097839 134.9732876
  86.8624349  14.4075091 133.6415234  75.8546685  17.9536378 121.3209442
  76.0034805  18.6371842 120.6676114  76.6613128  17.9341468 121.8358897
  88.4728623  17.6944773 134.2759374  88.1813431  18.0574754 135.1122835
  87.8600754  16.9811782 134.0972706  89.6724305  15.2597653 126.7961945
  90.5071196  15.6987457 126.9599505  89.8083434  14.7836306 125.9770190
  86.7215811  12.8177388 132.7439432  87.1969933  13.0105034 131.9358284
  85.7981376  12.8736574 132.4982816  73.6099318  13.9801555 122.3270511
  73.3645359  13.0763885 122.5250721  73.7795232  13.9818706 121.3849989
  72.8794965   9.7129913 119.8256672  72.1864210   9.7874268 119.1696708
  72.6346717   8.9490256 120.3478189  79.3542090  20.4484508 118.7921189
  78.7816057  21.0674695 118.3391661  79.9274884  20.9983870 119.3261111
  82.5739350  20.7321658 119.9229771  83.5070023  20.6667220 120.1262647
  82.4862563  21.5677925 119.4644304  85.2027367  20.0487529 116.8833719
  85.1240998  19.7147392 117.7769477  86.0237033  20.5409296 116.8825191
  87.9005558  12.9149268 130.0910038  87.8681878  11.9765269 130.2769721
  88.5106181  12.9933305 129.3575862  79.7388889  11.7845321 116.1337242
  80.6847993  11.6551529 116.2025660  79.3603134  11.0459983 116.6106670
  88.0500046   9.7060311 130.1368321  87.5339095   8.9218768 129.9498250
  88.9339995   9.3779028 130.3014840  85.7110773   3.4501327 126.0964133
  85.5135594   3.1416415 126.9807465  86.3210479   4.1762966 126.2262063
  93.7182108  13.9765275 129.2316074  94.4485496  13.7150563 129.7923778
  93.1089053  13.2393997 129.2718142  91.7997405  12.1173137 129.8290526
  91.0730568  11.9829102 129.2207017  91.3844692  12.4249966 130.6347244
  77.9231806   9.7095297 116.0692127  77.0163261   9.4128410 116.1454840
  78.2007787   9.4125115 115.2026413  79.5393871   4.2532187 122.2236368
  78.7294600   3.9079272 122.5991614  80.2278288   3.9439731 122.8123980
  81.4684420   3.3310234 123.8460665  82.0215458   3.7505687 124.5050688
  81.7054506   2.4045982 123.8883621  76.6930590   6.5682232 116.2104106
  77.5549754   6.8937131 116.4699923  76.8780935   5.7813728 115.6977172
  84.8463227   5.4410759 123.3539329  84.2661896   6.0995563 122.9717381
  84.5799160   4.6188103 122.9426746  83.2966793   4.8415817 125.5560649
  83.7966572   4.9532351 124.7474968  83.9402401   4.5376869 126.1961458
  70.6234749  14.5822826 126.3650310  70.6005437  14.6810513 125.4132193
  70.9335385  15.4287977 126.6867476  83.6288105   7.6010849 122.4095677
  82.7413960   7.8860500 122.1915872  84.0442094   7.4404613 121.5622954
  86.9802641   7.6257370 126.1250016  87.7563031   8.1153823 126.3974633
  86.2550775   8.0515424 126.5821886  89.4175200   8.3384989 127.1823957
  90.0119690   8.0980725 126.4717265  89.4901783   7.6192120 127.8097493
  71.6372355  22.1818600 127.4967122  71.5026823  21.4219001 126.9305120
  71.2204418  22.9059500 127.0295911  82.7731318  17.3655524 116.5043697
  83.4767168  17.5705526 117.1201353  82.0493967  17.9332286 116.7692781
  83.6029129  13.1165385 122.6245967  83.5464330  13.5733937 121.7853600
  84.1557471  12.3556070 122.4468810  87.4133935   8.9055117 123.4496087
  87.1570869   8.5051753 124.2804295  86.7886803   9.6198911 123.3246226
  91.7246272  11.6451190 125.9567378  91.1645830  11.7144380 126.7298940
  91.1189776  11.4692175 125.2366875  74.7941481  23.0787917 127.7085565
  74.6773865  24.0233350 127.6064255  73.9733927  22.7761479 128.0971364
  84.6818016  17.8038053 118.5542157  85.5163620  17.3719252 118.3719632
  84.5202359  17.6320067 119.4819052  84.3363908  14.3070166 119.9198497
  84.2812712  14.1414438 118.9786941  83.7109963  15.0146199 120.0760686
  77.6460033   3.8078275 119.4983815  77.6338703   4.7520115 119.6552086
  78.5383455   3.6248421 119.2043276  75.8195995  23.7316179 130.9241493
  76.7223242  23.7639790 131.2407988  75.5933365  22.8016630 130.9387829
  77.5749597  22.4847166 127.5851572  76.6245228  22.4849027 127.4715944
  77.8782083  21.7379900 127.0687606  81.4612153   0.4021052 123.7529752
  80.6944549  -0.1520461 123.8986434  81.8722858   0.4742921 124.6143903
  93.3102291  28.3207704 128.6497334  93.9480701  28.2014452 127.9460674
  93.1923134  29.2688548 128.7085286  90.1191997  28.2735132 128.5858859
  89.7810509  28.1576197 127.6979394  90.9881765  27.8726297 128.5659865
  85.9778813  30.1270609 124.5755750  85.4143678  30.0360546 123.8072037
  85.8631208  29.3070513 125.0558242  90.6011780  29.4269984 134.5445064
  90.5900421  29.0322782 133.6725568  90.7632420  28.6936057 135.1378836
  83.5243245  31.6221800 127.4139970  84.3164537  31.2812625 126.9986269
  83.7639895  31.7316775 128.3342123  91.5578372  33.7941576 119.8870215
  90.9066351  34.3795657 119.5004228  92.3522734  34.3247771 119.9465252
  85.4833999  30.8830714 120.2857349  86.2564875  30.3359701 120.1470225
  85.8359398  31.7474963 120.4971810  87.3219041  32.2107096 133.4924248
  87.0308907  33.1152727 133.3770915  87.9576026  32.2523623 134.2068318
  88.2475248  29.5883944 130.0825608  88.8438820  29.3639967 129.3682571
  88.3050220  28.8468690 130.6851056  87.8200277  27.0423380 117.9175799
  88.0725797  26.5204901 117.1559262  86.8824836  26.8789525 118.0202482
  92.8643559  26.0459158 125.7250542  93.6506649  25.6278581 125.3740959
  93.1282264  26.9505250 125.8932190  93.0353637  31.4832008 120.4239199
  92.3999470  31.5566635 121.1360104  92.7051043  32.0725607 119.7458278
  98.2651986  25.9834391 126.6283521  98.9977158  25.4133608 126.8621350
  97.5091342  25.5955992 127.0690026  87.5396565  28.9451486 120.1200174
  87.4232823  28.2696389 120.7881258  87.6498825  28.4583860 119.3032327
  89.8828106  28.4061633 123.8246863  89.5186313  27.8792254 124.5359785
  90.7395222  28.0160102 123.6513348  95.7877407  19.6955965 131.0878129
  95.4560732  20.5651376 130.8639344  95.1923020  19.3792249 131.7672160
  89.5233593  23.4351532 118.8208212  89.6907996  24.3031769 119.1878683
  89.3330762  23.5978814 117.8969501  92.2808926  31.8968511 130.4874042
  91.9809649  32.7993550 130.3789849  91.9359986  31.6300695 131.3395195
  85.7321408  28.3482308 126.5210746  84.8071904  28.2158522 126.7288438
  85.9805821  29.1276527 127.0180689  95.6806070  24.4151052 128.1671479
  94.7722947  24.3466460 127.8730240  95.6293666  24.8922996 128.9953305
  89.5022814  25.8909190 119.8054878  89.3822439  26.3366241 120.6440359
  88.8075402  26.2394508 119.2468417  83.0930219  27.9915582 127.3554535
  83.2222600  28.2450061 128.2693947  82.4127670  28.5843290 127.0359190
  87.2629706  38.6612832 123.4545010  87.1853736  39.6120657 123.5333490
  86.6591350  38.3158704 124.1119936  89.7546936  25.8340697 136.1106377
  88.9780270  26.3934617 136.1009241  90.3937499  26.3197480 136.6321247
  97.5467717  22.6167490 129.9449353  96.9042097  22.9100023 129.2989148
  97.0422645  22.5020410 130.7502550  95.2007880  26.3630663 120.6335212
  96.1125736  26.5958050 120.4582910  94.6917527  26.9467707 120.0710291
  88.0093308  28.6426150 135.6724344  88.7507993  29.1811194 135.3959167
  87.3030294  29.2692439 135.8295895  93.4848648  30.7855291 134.2696505
  93.8932004  30.3437701 133.5251137  92.7625909  30.2107918 134.5230698
  89.8379718  25.7227898 131.6430062  90.6840913  26.1467311 131.7864711
  89.7778356  25.0661522 132.3368625  93.8077462  31.3456482 128.0248794
  93.1786325  31.5102196 127.3224862  93.4203125  31.7598091 128.7959758
  97.6866694  32.2810919 125.3793158  97.0017733  32.6609821 124.8290191
  97.7710544  32.8906246 126.1125105  92.9879163  23.3832266 133.3011236
  92.7440095  24.1374327 132.7645511  93.2639094  23.7617614 134.1358483
  94.9417626  29.9270878 131.9788501  95.1534521  30.5702638 131.3022882
  94.8947374  29.0933195 131.5110431  92.5443855  22.5388699 128.8825073
  91.6828334  22.8369953 129.1741811  92.5706290  22.7559098 127.9506106
  89.3605424  31.0830890 125.2898879  89.8243770  31.3618593 124.5003501
  89.0962222  30.1814334 125.1071970  86.2529505  30.6302371 128.2278642
  86.8230862  31.0589640 127.5896127  86.8437617  30.3484956 128.9262828
  88.2974310  27.2054042 122.0988444  88.9998354  27.6575086 122.5662370
  87.9654939  26.5637861 122.7268337  86.7454672  25.7965799 136.4739654
  86.1153333  26.4782080 136.7075050  86.6390760  25.6848880 135.5292792
  82.0399644  25.4637595 127.4005578  81.2498698  25.7195123 126.9245688
  82.5310892  26.2785933 127.5057618  96.0563454  32.8042834 130.1510859
  96.8780898  32.4023021 129.8693540  96.0525857  32.7011068 131.1026974
  83.9914390  25.8282174 124.3589054  83.1945553  25.9400868 124.8772550
  83.7639982  26.1668826 123.4929945  89.8220057  32.3526877 132.3071569
  89.8864490  32.8147284 133.1429741  89.1130981  31.7224242 132.4353879
  80.3237347  25.7168085 129.8320568  80.5745386  26.6015095 130.0978144
  80.8596896  25.5372687 129.0595660 104.1469447  29.1481582 126.4995830
 103.3933155  28.5788980 126.3439834 104.2816988  29.1144247 127.4466465
  89.5368075  34.0194985 122.1750549  89.4013750  34.8646520 122.6035397
  90.0777888  34.2214262 121.4116483  82.9897472  31.5370423 122.7478474
  83.5021993  32.3313673 122.8984039  83.6420185  30.8396713 122.6812076
  84.7992357  34.6536179 124.8301228  84.9758985  35.5754144 124.6422212
  85.5949191  34.3394598 125.2595607  88.9403376  21.5144444 136.4285161
  89.6813089  22.1151597 136.3489624  89.1721298  20.7722081 135.8703204
  84.0844714  26.7000811 134.7063391  83.9698229  25.7986068 135.0070490
  83.2289231  26.9464508 134.3548207  91.1636551  34.6418551 136.3050891
  90.7200406  33.8554930 135.9871796  91.8253765  34.8297702 135.6394782
  85.9223673  36.1714353 130.8311570  86.4731098  36.0431416 130.0588564
  85.0835149  36.4709242 130.4806463  93.2617789  34.9221351 134.3332293
  93.2436265  35.7430232 133.8412562  94.1837710  34.7975426 134.5582434
  89.7190844  32.4365481 135.1755801  90.2519180  31.6753769 134.9455109
  89.1904925  32.1439132 135.9179956  92.8860539  17.5425547 130.7049443
  92.5424808  18.4327188 130.6288553  93.2539501  17.3527204 129.8419028
  80.9546389  29.8659077 123.5238045  81.7921611  30.2756085 123.3071753
  81.1324657  28.9258519 123.4938239  92.8510821  27.5334158 119.2121878
  92.3357445  28.3038762 119.4510265  92.5788130  26.8599294 119.8354939
  90.4357932  22.3783858 124.2707116  89.5799529  21.9890709 124.0912755
  90.8484884  22.4575819 123.4106902  91.9657079  19.9130202 128.6698676
  91.4621875  19.8760337 127.8566481  92.2587686  20.8222944 128.7295333
  88.2099965  19.9968931 127.6764858  89.0752962  19.8011740 127.3170747
  88.2777474  19.7679283 128.6034215  97.8245095  30.2866512 121.1475051
  97.0474538  29.9477672 120.7030213  98.5036576  30.2919135 120.4730016
  92.6397125  25.4061250 121.0381659  92.3347260  25.7207399 121.8891802
  93.5927567  25.4842670 121.0808992  91.0843556  31.5651473 122.6874613
  90.5564918  30.8304233 122.3747851  90.5831059  32.3426149 122.4414581
  96.0636402  29.7600494 127.8041659  95.4060077  30.4499755 127.8921788
  96.8676802  30.1496925 128.1475646  85.8162284  22.2271139 125.0481225
  86.3906036  22.0046321 124.3154418  86.4033266  22.2959834 125.8009826
  94.8741861  28.1144866 125.8545601  95.3873743  28.7474858 126.3567311
  95.5243085  27.5146062 125.4888961  86.1431871  24.2575600 119.0677110
  85.3069183  24.5950287 119.3886385  86.0036641  24.1224580 118.1304247
  88.1184952  19.1012388 123.7756294  87.4649364  18.7861405 123.1512909
  88.0765426  18.4788129 124.5016117  89.2296157  29.3831683 115.6909586
  88.3223218  29.1520937 115.8900735  89.7267189  28.5869303 115.8783568
  92.1364235  38.0929191 118.6106272  91.4625934  38.3960887 119.2191230
  92.5230057  38.8958271 118.2611729  91.3522692  25.5894322 128.1003942
  90.4345253  25.8109269 127.9425630  91.7682836  25.6640632 127.2415649
  92.1357740  26.9885737 123.2306622  92.8829559  27.5007135 122.9213744
  92.4049329  26.6669790 124.0911015  90.4084390  29.4844278 120.2133576
  89.4995609  29.2003311 120.3106046  90.4379474  29.9043357 119.3536883
  95.6403657  33.0950868 123.9824744  95.1865984  32.2541778 124.0389934
  95.0097624  33.7312266 124.3199524  94.5836577  24.0242854 125.2125411
  93.8459334  23.5120240 125.5435654  94.8363350  23.5843235 124.4008688
  94.0836597  34.9327364 124.9174562  94.3759571  35.4932421 124.1986928
  94.5935217  35.2255925 125.6727721  94.6848204  16.8019106 125.8067180
  94.9907081  15.9416469 125.5193096  95.4100809  17.3936726 125.6066174
  80.9772560  27.2049792 124.1948778  80.7796960  26.6119153 123.4699845
  80.4219224  26.9002003 124.9124717  88.9569284  27.0972899 126.3143372
  89.0117894  26.1446735 126.2385848  88.1460486  27.2532338 126.7984670
  90.1060478  31.0253022 117.5521655  89.6679908  30.3088881 117.0927292
  90.8470919  31.2529137 116.9906746  86.8961644  25.7149959 124.0733750
  86.0829509  26.0144129 124.4798943  87.3920638  25.3205647 124.7908233
  89.0470222  35.7107715 126.0068015  89.0046401  35.9368562 125.0776547
  89.9632921  35.4771090 126.1553816  92.4935856  26.1791783 132.9048644
  92.8485243  26.4063256 133.7643110  93.1407987  26.5110160 132.2825900
  98.2233593  29.3010219 123.6097973  98.0851491  29.4911815 122.6819163
  97.8669811  30.0629602 124.0666024  86.3875719  23.2868314 129.6894985
  87.0275098  23.1457073 128.9917949  85.5553249  23.0002827 129.3133587
  98.2502972  31.3686746 128.6209245  98.6839479  31.2762035 129.4692299
  98.9634553  31.3444246 127.9829261  87.1636023  32.5870744 125.8029978
  87.9576621  32.0921065 125.6012553  86.4527715  32.0588608 125.4397683
  91.9830867  34.9688840 130.1542345  92.0367889  35.5379776 130.9220061
  91.1145648  35.1390725 129.7896383  83.4718786  26.7313826 121.8789731
  82.5416374  26.6698282 122.0959693  83.5676258  26.2089779 121.0826372
  83.3904335  23.2568639 124.4667972  83.6511152  24.1713972 124.3577133
  84.2121507  22.7893082 124.6164585  84.8629260  24.6706396 131.6366797
  85.5352314  24.4623758 130.9879446  84.0359047  24.4728482 131.1972029
  99.1118522  31.4110447 131.1542130  99.3054412  32.3156257 131.4001405
  99.0119140  30.9517866 131.9880715  90.7654832  21.2968337 133.6532458
  90.1182747  21.9958287 133.5596934  91.5355848  21.7304481 134.0208706
  94.1733630  31.5617189 136.7283011  94.0219137  31.3327741 135.8113095
  94.1638310  32.5187791 136.7414356  90.9418967  29.1349102 131.7129277
  91.8711027  29.2860262 131.5398245  90.5209997  29.2233123 130.8577924
  89.7407299  33.1599766 129.4827815  89.6018384  32.7918551 130.3553753
  88.9521895  33.6747406 129.3111773  90.3355451  38.2608863 120.8253351
  90.5107206  37.7896906 121.6398974  89.6488239  38.8874629 121.0534612
  91.2912514  32.5381369 126.8716653  90.9562346  32.4982139 127.7674303
  90.7916459  31.8726085 126.3987063  85.2656758  27.9448999 132.3969234
  85.1276556  27.2129238 132.9980773  86.1761681  27.8557899 132.1153422
  94.2271705  29.8837404 117.1453712  93.6100876  29.1584232 117.0486765
  93.7588194  30.6446764 116.8020787  87.8939058  27.6568959 131.8852914
  88.6038677  27.0162151 131.8439532  87.8508367  27.9081853 132.8079094
  95.8825837  34.5936312 134.8059493  95.8238383  33.9095532 134.1390076
  96.2845355  35.3355302 134.3540119  86.6067992  24.6434176 133.7048553
  86.0705349  24.1924915 134.3570149  86.0184701  24.7780085 132.9619017
  84.9016536  41.4098226 127.5993212  85.1413134  42.0416750 128.2772230
  84.0585732  41.0586266 127.8858571  86.0170251  24.1022828 116.2675017
  85.1399718  23.9811629 115.9037263  86.4928004  23.3108906 116.0153905
  95.8843244  32.5575896 133.0373472  94.9970023  32.2201818 133.1599871
  96.4541795  31.8258927 133.2742238  77.5372391  28.8899988 126.3616524
  78.2243431  28.5761718 125.7737539  77.3820520  29.7941352 126.0883775
  82.3407114  23.7790184 130.7901547  82.2565302  23.1715854 130.0551957
  81.5189820  24.2699202 130.7911044  89.4144398  37.2177348 130.0034716
  89.3414569  38.0232320 130.5154020  88.9721791  37.4169314 129.1782737
  89.2034177  36.4549118 123.5137537  88.4201699  36.9970798 123.6075762
  89.9026923  36.9723098 123.9131778  92.5130827  22.2643748 126.1571743
  93.0099527  21.5113710 125.8372813  91.7417809  22.3008064 125.5914952
 100.3660585  27.9684113 127.7990034 100.3550461  28.8508829 127.4283967
  99.4977964  27.6155664 127.6044571  91.8743081  37.1164182 132.1592874
  92.5871053  37.7511647 132.0868776  91.3833110  37.2128048 131.3432876
  93.5960608  31.0215435 123.7310166  92.6616887  31.1416897 123.5614870
  93.7737277  30.1187902 123.4670176  89.0965796  24.4061131 125.8843427
  88.7263584  23.8532171 126.5724333  89.5924889  23.8019264 125.3318427
  96.9833159  26.8632754 124.2660200  97.4493612  27.6960746 124.1920503
  97.4340660  26.3977736 124.9705459  86.9254995  34.8658626 132.9798445
  87.6264454  35.4995109 133.1327839  86.4550110  35.2073357 132.2194084
  95.0509391  33.2076575 121.2646352  95.3269234  33.0933170 122.1740226
  94.1813889  32.8094060 121.2258525  94.9549822  19.2313341 128.3051101
  94.0412902  19.4617568 128.4733308  95.3842924  19.3151785 129.1565134
  94.7256281  27.4203233 130.8050995  94.0727731  27.6679141 130.1503448
  95.1036661  26.6067371 130.4713473  91.6863455  37.4562926 124.9079166
  91.8685849  36.6384582 125.3706918  92.5096441  37.6730619 124.4704056
  92.0205620  36.3831111 122.1694214  92.5493387  35.8723566 121.5564376
  92.2833840  36.0673642 123.0339747  90.7743854  28.1623044 137.2917033
  90.0984491  28.0617173 137.9619408  91.5971488  28.0062258 137.7553030
  82.5222713  34.3994981 129.9129548  83.1076150  33.6538669 130.0457452
  82.3247551  34.7098937 130.7966212  85.3761368  37.4346228 124.9291990
  84.7071743  37.9192356 124.4456030  85.2374238  37.6815449 125.8435369
  77.1140368  26.9700581 128.6333991  77.1524467  26.4364172 129.4271109
  76.6080660  26.4435786 128.0144968  89.5166637  39.4689972 131.5274649
  90.0684945  39.6321593 132.2923734  89.8572830  40.0594409 130.8554673
  84.4931130  21.8165121 132.1296533  84.5572456  22.6779952 131.7173931
  84.4298250  21.2039123 131.3968892  83.9683402  23.8888254 135.7769567
  84.5955441  23.5065331 136.3907092  83.1111321  23.6702456 136.1425260
  94.3677511  34.2951229 137.3823303  94.9117415  34.9081187 136.8878258
  93.7864356  34.8530808 137.8990316  80.7448945  25.6964683 121.7087922
  81.0402386  24.7875361 121.6554976  79.8436981  25.6752423 121.3868925
  92.6535024  37.4171947 128.5138331  92.5286163  36.6161687 128.0049276
  93.3114115  37.9118140 128.0252301  84.2743192  23.7720680 127.6915471
  83.5529778  24.3856647 127.5522944  85.0636448  24.3078444 127.6132117
  94.7169932  35.2180967 130.1417881  93.7700268  35.0986318 130.0696207
  95.0652705  34.3303465 130.2244142  87.0769506  21.1075106 133.9656123
  87.6003907  21.3537403 134.7282432  86.8581839  21.9395141 133.5459260
  82.4736787  23.3778781 121.8327247  82.1449493  22.4976160 121.6502353
  82.8276157  23.3226449 122.7203637  91.7216366  35.0133683 126.3422233
  91.5741328  34.0850391 126.5229803  92.5469859  35.0353774 125.8579308
  85.5878610  23.6651751 122.2002725  85.9274682  24.1937672 121.4781333
  86.0350730  24.0032157 122.9761292  95.3250487  35.8362242 127.4287106
  96.2497035  35.6305104 127.2911557  95.1565791  35.5878643 128.3376447
  88.2822051  22.0488801 131.6505793  87.9418871  21.2496614 132.0526473
  87.5761057  22.3490512 131.0782626  88.9338523  19.1338114 130.1033116
  89.7564592  18.6598592 129.9812007  89.1776586  19.9128597 130.6031803
  87.5746757  22.1626372 120.3996018  88.2955120  22.5407625 119.8959735
  86.9512061  22.8815249 120.5030996  91.7177880  22.8671521 121.3354350
  91.9341494  23.7496159 121.0343178  91.2371947  22.4757734 120.6059992
  86.4577101  25.8257234 127.9125095  86.3121682  26.1397537 128.8049376
  85.9802305  26.4442135 127.3595993  88.3173484  22.8159782 127.9605984
  88.3035053  21.9200876 127.6238282  89.0345912  22.8230446 128.5944270
  90.1699615  23.2497122 130.0059112  89.9117393  24.1714193 130.0043442
  89.6384655  22.8527557 130.6959576  95.1145804  36.3547910 122.7849197
  95.2882681  35.7894332 122.0323050  95.6074695  37.1548804 122.6028687
  80.9322763  28.3662579 130.8512756  80.3876232  29.1422387 130.9833030
  81.8102113  28.7133383 130.6931877  87.7210380  21.6974163 123.2293555
  87.8426291  20.7690809 123.4284442  87.4312422  21.7112849 122.3171870
  90.5901570  19.3829073 126.3660274  90.6123267  19.4468406 125.4112254
  91.0069629  18.5433582 126.5600781 100.9685195  29.1184333 124.4039497
 101.4116341  28.3691658 124.0058620 100.0911705  29.1094469 124.0213229
  96.1020976  35.6714674 119.8846095  96.7971881  36.2921367 120.1033410
  96.4444126  34.8210025 120.1598473  81.7188785  27.4932475 133.7442913
  80.9770521  27.6415110 134.3307543  81.3981530  27.7540741 132.8809662
  98.0012399  33.1214380 121.4133426  98.5263723  33.4601652 120.6882746
  97.9134752  32.1861395 121.2296561  89.6632448  37.0348453 133.5423303
  89.9719574  36.7897600 134.4146002  90.4607930  37.2395092 133.0542173
  89.6853060  39.1886363 125.7728679  89.2458050  38.6962742 126.4661536
  90.4361177  38.6459330 125.5320755  82.1645399  35.3797904 125.7753308
  82.9903419  35.0801676 125.3951951  81.8139451  34.6105526 126.2243096
  87.1326932  34.7324372 127.8450981  86.5106941  34.0695077 127.5453209
  87.8031799  34.7585504 127.1624629  80.3654004  33.2984230 126.7342241
  79.5285912  32.8706404 126.5526242  80.3377649  33.4916673 127.6713032
  87.2051460  23.2106160 137.4383487  87.2539615  24.0868283 137.0561257
  87.7473974  22.6683553 136.8655130  97.6906305  33.7547283 136.7184624
  96.9001849  33.7371422 136.1789124  97.4539660  34.2935577 137.4733661
  97.8104180  30.6039750 134.0317353  97.8602185  30.4389757 134.9732876
  97.7018104  29.7367009 133.6415234  86.6940439  33.2828295 121.3209442
  86.8428559  33.9663760 120.6676114  87.5006883  33.2633385 121.8358897
  95.1007943  26.5870678 135.3476659  96.0017806  26.4477142 135.0560657
  95.1755917  26.7525132 136.2874837  89.4350748  23.9637532 134.1929846
  88.5654057  24.2571098 133.9212434  89.6710228  24.5477977 134.9137109
  99.3122377  33.0236691 134.2759374  99.0207186  33.3866672 135.1122835
  98.6994508  32.3103699 134.0972706 100.5118060  30.5889571 126.7961945
 101.3464951  31.0279375 126.9599505 100.6477188  30.1128224 125.9770190
  97.5609565  28.1469306 132.7439432  98.0363687  28.3396952 131.9358284
  96.6375131  28.2028492 132.4982816  84.4493072  29.3093473 122.3270511
  84.2039114  28.4055803 122.5250721  84.6188987  29.3110623 121.3849989
  92.1389782  20.1817149 131.7095266  92.6571726  20.9178176 131.3841755
  91.7844915  20.4881143 132.5442025  83.7188720  25.0421830 119.8256672
  83.0257965  25.1166185 119.1696708  83.4740471  24.2782174 120.3478189
  92.3902376  16.6017432 127.2296163  92.6704130  15.9340621 127.8556589
  93.1752983  16.7946527 126.7170827  90.1935845  35.7776426 118.7921189
  89.6209812  36.3966613 118.3391661  90.7668638  36.3275787 119.3261111
  96.2611234  25.0235066 130.9767738  97.2128657  25.1233163 130.9979962
  96.0914685  24.2313334 131.4865822  94.2825614  22.1090649 131.1627139
  93.6875546  22.3895662 130.4673627  93.9975311  22.5984550 131.9343880
  93.4133104  36.0613576 119.9229771  94.3463778  35.9959138 120.1262647
  93.3256317  36.8969843 119.4644304  96.0421121  35.3779446 116.8833719
  95.9634753  35.0439310 117.7769477  96.8630788  35.8701214 116.8825191
  98.7399312  28.2441185 130.0910038  98.7075632  27.3057186 130.2769721
  99.3499936  28.3225222 129.3575862  90.5782643  27.1137238 116.1337242
  91.5241748  26.9843447 116.2025660  90.1996888  26.3751900 116.6106670
  98.8893801  25.0352229 130.1368321  98.3732849  24.2510686 129.9498250
  99.7733749  24.7070946 130.3014840  96.5504528  18.7793244 126.0964133
  96.3529349  18.4708333 126.9807465  97.1604233  19.5054883 126.2262063
 104.5575862  29.3057192 129.2316074 105.2879251  29.0442480 129.7923778
 103.9482808  28.5685914 129.2718142 102.6391159  27.4465055 129.8290526
 101.9124323  27.3121020 129.2207017 102.2238446  27.7541884 130.6347244
  90.4621336  31.1654985 137.5937899  91.3824345  31.3433584 137.7877945
  90.4270919  30.2211030 137.4417598  88.7625560  25.0387215 116.0692127
  87.8557016  24.7420328 116.1454840  89.0401541  24.7417033 115.2026413
  79.6803501  26.3593578 126.5191173  79.3606285  25.5058886 126.2265547
  79.1336929  26.5742156 127.2749141  83.4583408  29.0756019 130.2360680
  83.6769418  30.0073127 130.2548714  83.8709182  28.7163994 131.0215484
  90.3787626  19.5824105 122.2236368  89.5688354  19.2371190 122.5991614
  91.0672043  19.2731648 122.8123980  92.3078174  18.6602151 123.8460665
  92.8609213  19.0797605 124.5050688  92.5448261  17.7337899 123.8883621
  88.3311273  24.6489225 139.6263429  88.2308000  25.5983582 139.5575520
  88.1132816  24.3207464 138.7539499  87.5324345  21.8974150 116.2104106
  88.3943509  22.2229048 116.4699923  87.7174689  21.1105646 115.6977172
  79.5491761  29.9796490 128.4884295  78.8555232  29.5650443 127.9754249
  80.2964752  30.0217026 127.8917714  95.6856981  20.7702677 123.3539329
  95.1055650  21.4287481 122.9717381  95.4192914  19.9480021 122.9426746
  94.1360548  20.1707734 125.5560649  94.6360326  20.2824269 124.7474968
  94.7796156  19.8668787 126.1961458  88.1942544  28.0786364 138.4428490
  87.7109625  28.8786724 138.6492379  88.2803483  28.0894309 137.4895934
  81.4628503  29.9114744 126.3650310  81.4399191  30.0102431 125.4132193
  81.7729140  30.7579894 126.6867476  84.1215881  31.9690899 130.4796924
  85.0759135  31.9374841 130.4126856  83.9228405  31.5081522 131.2947150
  84.7115263  30.5392015 133.0467722  85.5308152  31.0336093 133.0702559
  84.9852071  29.6223983 133.0185289  94.4681859  22.9302767 122.4095677
  93.5807714  23.2152418 122.1915872  94.8835848  22.7696530 121.5622954
  97.8196396  22.9549288 126.1250016  98.5956786  23.4445740 126.3974633
  97.0944530  23.3807342 126.5821886 100.2568954  23.6676907 127.1823957
 100.8513445  23.4272643 126.4717265 100.3295538  22.9484038 127.8097493
  82.4766110  37.5110518 127.4967122  82.3420578  36.7510919 126.9305120
  82.0598172  38.2351418 127.0295911  93.6125073  32.6947442 116.5043697
  94.3160923  32.8997444 117.1201353  92.8887722  33.2624203 116.7692781
  94.4422883  28.4457303 122.6245967  94.3858085  28.9025854 121.7853600
  94.9951226  27.6847987 122.4468810  98.2527689  24.2347035 123.4496087
  97.9964623  23.8343670 124.2804295  97.6280557  24.9490829 123.3246226
 102.5640027  26.9743108 125.9567378 102.0039585  27.0436297 126.7298940
 101.9583530  26.7984093 125.2366875  85.6335236  38.4079835 127.7085565
  85.5167620  39.3525268 127.6064255  84.8127682  38.1053397 128.0971364
  95.5211770  33.1329971 118.5542157  96.3557374  32.7011169 118.3719632
  95.3596113  32.9611984 119.4819052  95.1757662  29.6362084 119.9198497
  95.1206466  29.4706356 118.9786941  94.5503718  30.3438117 120.0760686
  79.9650177  24.8730148 133.7459919  80.6109041  24.3629102 134.2347144
  79.7567329  25.6098830 134.3203344  92.4903570  31.9410996 139.2452059
  93.3594729  32.1151648 138.8838694  92.0110321  32.7605413 139.1227789
  88.4853788  19.1370193 119.4983815  88.4732458  20.0812033 119.6552086
  89.3777210  18.9540339 119.2043276  86.6589750  39.0608097 130.9241493
  87.5616997  39.0931707 131.2407988  86.4327120  38.1308548 130.9387829
  88.4143352  37.8139083 127.5851572  87.4638983  37.8140945 127.4715944
  88.7175838  37.0671818 127.0687606  92.3005907  15.7312970 123.7529752
  91.5338303  15.1771456 123.8986434  92.7116612  15.8034838 124.6143903
 104.1496045  43.6499622 128.6497334 104.7874455  43.5306369 127.9460674
 104.0316888  44.5980466 128.7085286 100.9585752  43.6027050 128.5858859
 100.6204263  43.4868115 127.6979394 101.8275520  43.2018215 128.5659865
  96.8172567  45.4562526 124.5755750  96.2537432  45.3652463 123.8072037
  96.7024962  44.6362431 125.0558242 101.4405535  44.7561902 134.5445064
 101.4294175  44.3614700 133.6725568 101.6026174  44.0227974 135.1378836
  94.3636999  46.9513718 127.4139970  95.1558291  46.6104543 126.9986269
  94.6033649  47.0608693 128.3342123 102.3972126  49.1233494 119.8870215
 101.7460106  49.7087575 119.5004228 103.1916489  49.6539689 119.9465252
  96.3227753  46.2122631 120.2857349  97.0958629  45.6651618 120.1470225
  96.6753152  47.0766881 120.4971810  98.1612796  47.5399014 133.4924248
  97.8702662  48.4444644 133.3770915  98.7969780  47.5815541 134.2068318
  99.0869003  44.9175862 130.0825608  99.6832575  44.6931884 129.3682571
  99.1443974  44.1760608 130.6851056  98.6594031  42.3715297 117.9175799
  98.9119552  41.8496819 117.1559262  97.7218590  42.2081443 118.0202482
 103.7037314  41.3751076 125.7250542 104.4900403  40.9570499 125.3740959
 103.9676018  42.2797168 125.8932190 103.8747391  46.8123926 120.4239199
 103.2393224  46.8858553 121.1360104 103.5444798  47.4017525 119.7458278
 109.1045741  41.3126309 126.6283521 109.8370913  40.7425526 126.8621350
 108.3485097  40.9247909 127.0690026  98.3790320  44.2743403 120.1200174
  98.2626578  43.5988307 120.7881258  98.4892580  43.7875777 119.3032327
 100.7221861  43.7353550 123.8246863 100.3580068  43.2084171 124.5359785
 101.5788977  43.3452019 123.6513348 106.6271161  35.0247883 131.0878129
 106.2954486  35.8943294 130.8639344 106.0316775  34.7084167 131.7672160
 100.3627348  38.7643450 118.8208212 100.5301750  39.6323687 119.1878683
 100.1724517  38.9270732 117.8969501 103.1202681  47.2260429 130.4874042
 102.8203404  48.1285468 130.3789849 102.7753740  46.9592612 131.3395195
  96.5715162  43.6774226 126.5210746  95.6465659  43.5450440 126.7288438
  96.8199576  44.4568445 127.0180689 106.5199825  39.7442969 128.1671479
 105.6116702  39.6758378 127.8730240 106.4687420  40.2214914 128.9953305
 100.3416569  41.2201108 119.8054878 100.2216194  41.6658158 120.6440359
  99.6469157  41.5686425 119.2468417  93.9323973  43.3207499 127.3554535
  94.0616355  43.5741978 128.2693947  93.2521425  43.9135207 127.0359190
  98.1023461  53.9904749 123.4545010  98.0247490  54.9412574 123.5333490
  97.4985104  53.6450622 124.1119936 100.5940690  41.1632615 136.1106377
  99.8174024  41.7226535 136.1009241 101.2331253  41.6489398 136.6321247
 108.3861471  37.9459408 129.9449353 107.7435851  38.2391941 129.2989148
 107.8816400  37.8312328 130.7502550 106.0401635  41.6922581 120.6335212
 106.9519491  41.9249968 120.4582910 105.5311282  42.2759625 120.0710291
  98.8487063  43.9718068 135.6724344  99.5901747  44.5103112 135.3959167
  98.1424048  44.5984357 135.8295895 104.3242402  46.1147209 134.2696505
 104.7325758  45.6729619 133.5251137 103.6019664  45.5399836 134.5230698
 100.6773472  41.0519815 131.6430062 101.5234668  41.4759229 131.7864711
 100.6172110  40.3953440 132.3368625 104.6471217  46.6748399 128.0248794
 104.0180079  46.8394113 127.3224862 104.2596879  47.0890009 128.7959758
 108.5260449  47.6102837 125.3793158 107.8411487  47.9901738 124.8290191
 108.6104298  48.2198164 126.1125105 103.8272918  38.7124184 133.3011236
 103.5833850  39.4666244 132.7645511 104.1032848  39.0909531 134.1358483
 105.7811380  45.2562796 131.9788501 105.9928276  45.8994556 131.3022882
 105.7341129  44.4225113 131.5110431 103.3837609  37.8680617 128.8825073
 102.5222088  38.1661870 129.1741811 103.4100044  38.0851016 127.9506106
 100.1999179  46.4122807 125.2898879 100.6637524  46.6910510 124.5003501
  99.9355977  45.5106252 125.1071970  97.0923260  45.9594289 128.2278642
  97.6624617  46.3881557 127.5896127  97.6831372  45.6776874 128.9262828
  99.1368065  42.5345960 122.0988444  99.8392108  42.9867003 122.5662370
  98.8048693  41.8929779 122.7268337  97.5848426  41.1257716 136.4739654
  96.9547087  41.8073997 136.7075050  97.4784514  41.0140798 135.5292792
  92.8793399  40.7929512 127.4005578  92.0892453  41.0487041 126.9245688
  93.3704646  41.6077850 127.5057618 106.8957208  48.1334752 130.1510859
 107.7174652  47.7314939 129.8693540 106.8919611  48.0302986 131.1026974
  94.8308144  41.1574092 124.3589054  94.0339308  41.2692786 124.8772550
  94.6033736  41.4960744 123.4929945 100.6613812  47.6818795 132.3071569
 100.7258244  48.1439202 133.1429741  99.9524736  47.0516160 132.4353879
  91.1631102  41.0460003 129.8320568  91.4139140  41.9307013 130.0978144
  91.6990650  40.8664604 129.0595660 114.9863201  44.4773500 126.4995830
 114.2326910  43.9080898 126.3439834 115.1210743  44.4436165 127.4466465
 100.3761830  49.3486902 122.1750549 100.2407504  50.1938438 122.6035397
 100.9171642  49.5506180 121.4116483  96.8629169  35.4278482 138.8364905
  96.4696115  34.8744681 139.5112549  97.6795309  35.7389061 139.2271422
  93.8291227  46.8662340 122.7478474  94.3415747  47.6605591 122.8984039
  94.4813940  46.1688631 122.6812076  95.6386112  49.9828097 124.8301228
  95.8152740  50.9046061 124.6422212  96.4342945  49.6686516 125.2595607
  99.7797130  36.8436361 136.4285161 100.5206844  37.4443514 136.3489624
 100.0115053  36.1013999 135.8703204  94.9238468  42.0292729 134.7063391
  94.8091983  41.1277986 135.0070490  94.0682986  42.2756425 134.3548207
 102.0030306  49.9710469 136.3050891 101.5594160  49.1846847 135.9871796
 102.6647519  50.1589619 135.6394782  96.7617427  51.5006270 130.8311570
  97.3124852  51.3723334 130.0588564  95.9228903  51.8001159 130.4806463
 104.1011544  50.2513269 134.3332293 104.0830019  51.0722150 133.8412562
 105.0231464  50.1267344 134.5582434 100.5584598  47.7657398 135.1755801
 101.0912935  47.0045686 134.9455109 100.0298679  47.4731050 135.9179956
 103.7254293  32.8717464 130.7049443 103.3818562  33.7619106 130.6288553
 104.0933256  32.6819122 129.8419028  91.7940144  45.1950995 123.5238045
  92.6315366  45.6048003 123.3071753  91.9718411  44.2550437 123.4938239
 103.6904576  42.8626075 119.2121878 103.1751199  43.6330680 119.4510265
 103.4181884  42.1891211 119.8354939 101.2751687  37.7075776 124.2707116
 100.4193283  37.3182627 124.0912755 101.6878639  37.7867737 123.4106902
 102.8050833  35.2422119 128.6698676 102.3015629  35.2052255 127.8566481
 103.0981440  36.1514862 128.7295333  99.0493719  35.3260849 127.6764858
  99.9146716  35.1303658 127.3170747  99.1171228  35.0971201 128.6034215
 108.6638850  45.6158430 121.1475051 107.8868293  45.2769589 120.7030213
 109.3430331  45.6211053 120.4730016 103.4790879  40.7353167 121.0381659
 103.1741015  41.0499317 121.8891802 104.4321321  40.8134587 121.0808992
 101.9237311  46.8943391 122.6874613 101.3958672  46.1596150 122.3747851
 101.4224814  47.6718067 122.4414581 106.9030157  45.0892411 127.8041659
 106.2453831  45.7791673 127.8921788 107.7070556  45.4788843 128.1475646
  96.6556038  37.5563057 125.0481225  97.2299790  37.3338239 124.3154418
  97.2427021  37.6251752 125.8009826 105.7135616  43.4436784 125.8545601
 106.2267497  44.0766776 126.3567311 106.3636840  42.8437979 125.4888961
  96.9825626  39.5867518 119.0677110  96.1462938  39.9242205 119.3886385
  96.8430395  39.4516498 118.1304247  98.9578706  34.4304306 123.7756294
  98.3043119  34.1153323 123.1512909  98.9159180  33.8080046 124.5016117
 100.0689911  44.7123601 115.6909586  99.1616973  44.4812854 115.8900735
 100.5660943  43.9161220 115.8783568 102.9757990  53.4221108 118.6106272
 102.3019689  53.7252805 119.2191230 103.3623812  54.2250189 118.2611729
 102.1916447  40.9186239 128.1003942 101.2739008  41.1401186 127.9425630
 102.6076590  40.9932550 127.2415649 102.9751494  42.3177655 123.2306622
 103.7223313  42.8299052 122.9213744 103.2443084  41.9961708 124.0911015
 101.2478144  44.8136196 120.2133576 100.3389364  44.5295229 120.3106046
 101.2773228  45.2335274 119.3536883 106.4797412  48.4242785 123.9824744
 106.0259739  47.5833695 124.0389934 105.8491379  49.0604184 124.3199524
 105.4230331  39.3534771 125.2125411 104.6853088  38.8412158 125.5435654
 105.6757105  38.9135153 124.4008688 104.9230351  50.2619282 124.9174562
 105.2153325  50.8224339 124.1986928 105.4328972  50.5547843 125.6727721
 105.5241959  32.1311023 125.8067180 105.8300836  31.2708387 125.5193096
 106.2494564  32.7228644 125.6066174  91.8166315  42.5341710 124.1948778
  91.6190715  41.9411071 123.4699845  91.2612979  42.2293920 124.9124717
  99.7963038  42.4264816 126.3143372  99.8511648  41.4738653 126.2385848
  98.9854241  42.5824256 126.7984670 100.9454232  46.3544940 117.5521655
 100.5073662  45.6380798 117.0927292 101.6864673  46.5821054 116.9906746
  97.7355398  41.0441876 124.0733750  96.9223264  41.3436047 124.4798943
  98.2314393  40.6497565 124.7908233  99.8863976  51.0399633 126.0068015
  99.8440155  51.2660479 125.0776547 100.8026675  50.8063008 126.1553816
 103.3329610  41.5083701 132.9048644 103.6878998  41.7355174 133.7643110
 103.9801741  41.8402077 132.2825900 109.0627347  44.6302137 123.6097973
 108.9245246  44.8203733 122.6819163 108.7063566  45.3921519 124.0666024
  97.2269473  38.6160232 129.6894985  97.8668853  38.4748991 128.9917949
  96.3947004  38.3294745 129.3133587 109.0896727  46.6978664 128.6209245
 109.5233233  46.6053953 129.4692299 109.8028307  46.6736164 127.9829261
  98.0029777  47.9162662 125.8029978  98.7970376  47.4212982 125.6012553
  97.2921469  47.3880525 125.4397683 102.8224622  50.2980758 130.1542345
 102.8761644  50.8671694 130.9220061 101.9539403  50.4682643 129.7896383
  94.3112541  42.0605744 121.8789731  93.3810129  41.9990199 122.0959693
  94.4070013  41.5381697 121.0826372  94.2298090  38.5860557 124.4667972
  94.4904907  39.5005890 124.3577133  95.0515262  38.1184999 124.6164585
  95.7023015  39.9998314 131.6366797  96.3746068  39.7915676 130.9879446
  94.8752801  39.8020400 131.1972029 109.9512276  46.7402364 131.1542130
 110.1448166  47.6448175 131.4001405 109.8512894  46.2809783 131.9880715
 101.6048587  36.6260255 133.6532458 100.9576502  37.3250204 133.5596934
 102.3749602  37.0596399 134.0208706 105.0127385  46.8909107 136.7283011
 104.8612891  46.6619659 135.8113095 105.0032064  47.8479708 136.7414356
 101.7812721  44.4641020 131.7129277 102.7104781  44.6152179 131.5398245
 101.3603751  44.5525041 130.8577924 100.5801053  48.4891684 129.4827815
 100.4412139  48.1210469 130.3553753  99.7915649  49.0039324 129.3111773
 101.1749205  53.5900781 120.8253351 101.3500961  53.1188824 121.6398974
 100.4881993  54.2166547 121.0534612 102.1306268  47.8673287 126.8716653
 101.7956101  47.8274057 127.7674303 101.6310214  47.2018003 126.3987063
  96.1050512  43.2740917 132.3969234  95.9670310  42.5421156 132.9980773
  97.0155436  43.1849817 132.1153422 105.0665460  45.2129321 117.1453712
 104.4494631  44.4876149 117.0486765 104.5981948  45.9738681 116.8020787
  98.7332813  42.9860876 131.8852914  99.4432431  42.3454068 131.8439532
  98.6902121  43.2373771 132.8079094 106.7219592  49.9228230 134.8059493
 106.6632138  49.2387450 134.1390076 107.1239110  50.6647220 134.3540119
  97.4461747  39.9726094 133.7048553  96.9099104  39.5216833 134.3570149
  96.8578455  40.1072003 132.9619017  95.7410290  56.7390143 127.5993212
  95.9806889  57.3708668 128.2772230  94.8979487  56.3878183 127.8858571
  96.8564006  39.4314745 116.2675017  95.9793472  39.3103546 115.9037263
  97.3321759  38.6400824 116.0153905 106.7236999  47.8867813 133.0373472
 105.8363778  47.5493735 133.1599871 107.2935550  47.1550845 133.2742238
  88.3766146  44.2191905 126.3616524  89.0637186  43.9053635 125.7737539
  88.2214275  45.1233270 126.0883775  93.1800868  39.1082102 130.7901547
  93.0959057  38.5007771 130.0551957  92.3583574  39.5991120 130.7911044
 100.2538152  52.5469266 130.0034716 100.1808324  53.3524237 130.5154020
  99.8115545  52.7461232 129.1782737 100.0427932  51.7841036 123.5137537
  99.2595454  52.3262716 123.6075762 100.7420677  52.3015015 123.9131778
 103.3524582  37.5935665 126.1571743 103.8493281  36.8405628 125.8372813
 102.5811563  37.6299982 125.5914952 111.2054339  43.2976031 127.7990034
 111.1944216  44.1800746 127.4283967 110.3371719  42.9447582 127.6044571
 102.7136836  52.4456100 132.1592874 103.4264808  53.0803565 132.0868776
 102.2226864  52.5419966 131.3432876 104.4354363  46.3507353 123.7310166
 103.5010641  46.4708815 123.5614870 104.6131031  45.4479819 123.4670176
  99.9359551  39.7353048 125.8843427  99.5657338  39.1824089 126.5724333
 100.4318643  39.1311182 125.3318427 107.8226914  42.1924672 124.2660200
 108.2887366  43.0252663 124.1920503 108.2734414  41.7269653 124.9705459
  97.7648749  50.1950543 132.9798445  98.4658209  50.8287026 133.1327839
  97.2943864  50.5365275 132.2194084 105.8903145  48.5368493 121.2646352
 106.1662989  48.4225088 122.1740226 105.0207644  48.1385978 121.2258525
 105.7943577  34.5605259 128.3051101 104.8806657  34.7909486 128.4733308
 106.2236678  34.6443703 129.1565134 105.5650035  42.7495151 130.8050995
 104.9121485  42.9971058 130.1503448 105.9430415  41.9359289 130.4713473
 102.5257209  52.7854844 124.9079166 102.7079604  51.9676500 125.3706918
 103.3490195  53.0022536 124.4704056 102.8599375  51.7123029 122.1694214
 103.3887141  51.2015484 121.5564376 103.1227594  51.3965559 123.0339747
 101.6137608  43.4914962 137.2917033 100.9378245  43.3909091 137.9619408
 102.4365242  43.3354176 137.7553030  93.3616467  49.7286898 129.9129548
  93.9469904  48.9830586 130.0457452  93.1641306  50.0390855 130.7966212
  96.2155123  52.7638146 124.9291990  95.5465498  53.2484273 124.4456030
  96.0767992  53.0107366 125.8435369  87.9534122  42.2992499 128.6333991
  87.9918222  41.7656089 129.4271109  87.4474415  41.7727704 128.0144968
 100.3560391  54.7981889 131.5274649 100.9078699  54.9613511 132.2923734
 100.6966585  55.3886327 130.8554673  95.3324884  37.1457039 132.1296533
  95.3966211  38.0071870 131.7173931  95.2692005  36.5331041 131.3968892
  94.8077157  39.2180172 135.7769567  95.4349196  38.8357249 136.3907092
  93.9505076  38.9994374 136.1425260 105.2071265  49.6243147 137.3823303
 105.7511169  50.2373105 136.8878258 104.6258110  50.1822725 137.8990316
  91.5842700  41.0256601 121.7087922  91.8796141  40.1167279 121.6554976
  90.6830735  41.0044340 121.3868925 103.4928778  52.7463865 128.5138331
 103.3679918  51.9453605 128.0049276 104.1507870  53.2410058 128.0252301
  95.1136947  39.1012597 127.6915471  94.3923532  39.7148565 127.5522944
  95.9030202  39.6370362 127.6132117 105.5563687  50.5472885 130.1417881
 104.6094022  50.4278236 130.0696207 105.9046460  49.6595383 130.2244142
  97.9163260  36.4367024 133.9656123  98.4397662  36.6829320 134.7282432
  97.6975593  37.2687059 133.5459260  93.3130541  38.7070698 121.8327247
  92.9843247  37.8268077 121.6502353  93.6669912  38.6518367 122.7203637
 102.5610120  50.3425601 126.3422233 102.4135083  49.4142309 126.5229803
 103.3863614  50.3645692 125.8579308  96.4272364  38.9943668 122.2002725
  96.7668437  39.5229589 121.4781333  96.8744485  39.3324074 122.9761292
 106.1644242  51.1654160 127.4287106 107.0890789  50.9597021 127.2911557
 105.9959545  50.9170561 128.3376447  99.1215805  37.3780719 131.6505793
  98.7812626  36.5788532 132.0526473  98.4154811  37.6782430 131.0782626
  99.7732277  34.4630031 130.1033116 100.5958346  33.9890510 129.9812007
 100.0170341  35.2420515 130.6031803  98.4140512  37.4918290 120.3996018
  99.1348874  37.8699543 119.8959735  97.7905816  38.2107167 120.5030996
 102.5571634  38.1963439 121.3354350 102.7735249  39.0788077 121.0343178
 102.0765702  37.8049652 120.6059992  97.2970856  41.1549152 127.9125095
  97.1515436  41.4689455 128.8049376  96.8196059  41.7734052 127.3595993
  99.1567239  38.1451700 127.9605984  99.1428807  37.2492793 127.6238282
  99.8739667  38.1522364 128.5944270 101.0093369  38.5789040 130.0059112
 100.7511147  39.5006111 130.0043442 100.4778410  38.1819475 130.6959576
 105.9539558  51.6839827 122.7849197 106.1276436  51.1186250 122.0323050
 106.4468449  52.4840722 122.6028687  91.7716518  43.6954496 130.8512756
  91.2269986  44.4714304 130.9833030  92.6495868  44.0425301 130.6931877
  98.5604135  37.0266080 123.2293555  98.6820046  36.0982726 123.4284442
  98.2706177  37.0404766 122.3171870 101.4295325  34.7120991 126.3660274
 101.4517022  34.7760324 125.4112254 101.8463384  33.8725499 126.5600781
 111.8078949  44.4476250 124.4039497 112.2510095  43.6983575 124.0058620
 110.9305460  44.4386387 124.0213229 106.9414731  51.0006592 119.8846095
 107.6365635  51.6213284 120.1033410 107.2837881  50.1501943 120.1598473
  92.5582540  42.8224393 133.7442913  91.8164276  42.9707028 134.3307543
  92.2375284  43.0832658 132.8809662 108.8406154  48.4506297 121.4133426
 109.3657478  48.7893570 120.6882746 108.7528506  47.5153313 121.2296561
 100.5026202  52.3640371 133.5423303 100.8113329  52.1189518 134.4146002
 101.3001684  52.5687009 133.0542173 100.5246814  54.5178281 125.7728679
 100.0851805  54.0254659 126.4661536 101.2754931  53.9751248 125.5320755
  93.0039153  50.7089821 125.7753308  93.8297173  50.4093593 125.3951951
  92.6533205  49.9397444 126.2243096  97.9720687  50.0616290 127.8450981
  97.3500696  49.3986995 127.5453209  98.6425554  50.0877421 127.1624629
  91.2047759  48.6276148 126.7342241  90.3679667  48.1998322 126.5526242
  91.1771404  48.8208591 127.6713032  98.0445214  38.5398078 137.4383487
  98.0933370  39.4160200 137.0561257  98.5867728  37.9975471 136.8655130
 108.5300060  49.0839201 136.7184624 107.7395604  49.0663340 136.1789124
 108.2933414  49.6227495 137.4733661 108.6497935  45.9331667 134.0317353
 108.6995940  45.7681675 134.9732876 108.5411858  45.0658926 133.6415234
  97.5334194  48.6120213 121.3209442  97.6822314  49.2955677 120.6676114
  98.3400637  48.5925303 121.8358897 105.9401697  41.9162595 135.3476659
 106.8411560  41.7769060 135.0560657 106.0149672  42.0817050 136.2874837
 100.2744503  39.2929450 134.1929846  99.4047812  39.5863016 133.9212434
 100.5103983  39.8769895 134.9137109 110.1516132  48.3528609 134.2759374
 109.8600940  48.7158589 135.1122835 109.5388263  47.6395617 134.0972706
 111.3511814  45.9181489 126.7961945 112.1858705  46.3571293 126.9599505
 111.4870943  45.4420142 125.9770190 108.4003320  43.4761223 132.7439432
 108.8757442  43.6688870 131.9358284 107.4768885  43.5320409 132.4982816
  95.2886827  44.6385391 122.3270511  95.0432868  43.7347721 122.5250721
  95.4582741  44.6402541 121.3849989 102.9783536  35.5109067 131.7095266
 103.4965480  36.2470094 131.3841755 102.6238669  35.8173060 132.5442025
  94.5582474  40.3713748 119.8256672  93.8651719  40.4458103 119.1696708
  94.3134226  39.6074092 120.3478189 103.2296131  31.9309349 127.2296163
 103.5097884  31.2632539 127.8556589 104.0146738  32.1238445 126.7170827
 101.0329599  51.1068343 118.7921189 100.4603566  51.7258531 118.3391661
 101.6062393  51.6567705 119.3261111 107.1004989  40.3526983 130.9767738
 108.0522412  40.4525081 130.9979962 106.9308439  39.5605252 131.4865822
 105.1219368  37.4382567 131.1627139 104.5269301  37.7187579 130.4673627
 104.8369065  37.9276468 131.9343880 104.2526859  51.3905494 119.9229771
 105.1857532  51.3251055 120.1262647 104.1650072  52.2261760 119.4644304
 106.8814876  50.7071364 116.8833719 106.8028507  50.3731227 117.7769477
 107.7024542  51.1993132 116.8825191 109.5793067  43.5733103 130.0910038
 109.5469387  42.6349104 130.2769721 110.1893690  43.6517140 129.3575862
 101.4176398  42.4429156 116.1337242 102.3635502  42.3135364 116.2025660
 101.0390643  41.7043818 116.6106670 109.7287555  40.3644147 130.1368321
 109.2126604  39.5802603 129.9498250 110.6127504  40.0362863 130.3014840
 107.3898282  34.1085162 126.0964133 107.1923103  33.8000250 126.9807465
 107.9997988  34.8346801 126.2262063 115.3969617  44.6349110 129.2316074
 116.1273005  44.3734398 129.7923778 114.7876562  43.8977832 129.2718142
 113.4784914  42.7756973 129.8290526 112.7518077  42.6412938 129.2207017
 113.0632201  43.0833801 130.6347244 101.3015090  46.4946902 137.5937899
 102.2218100  46.6725501 137.7877945 101.2664673  45.5502948 137.4417598
  99.6019315  40.3679133 116.0692127  98.6950770  40.0712245 116.1454840
  99.8795296  40.0708951 115.2026413  90.5197255  41.6885496 126.5191173
  90.2000039  40.8350804 126.2265547  89.9730683  41.9034074 127.2749141
  94.2977163  44.4047937 130.2360680  94.5163172  45.3365045 130.2548714
  94.7102936  44.0455911 131.0215484 101.2181380  34.9116022 122.2236368
 100.4082109  34.5663107 122.5991614 101.9065797  34.6023566 122.8123980
 103.1471929  33.9894069 123.8460665 103.7002967  34.4089522 124.5050688
 103.3842015  33.0629817 123.8883621  99.1705028  39.9781143 139.6263429
  99.0701755  40.9275500 139.5575520  98.9526570  39.6499382 138.7539499
  98.3718099  37.2266068 116.2104106  99.2337263  37.5520966 116.4699923
  98.5568444  36.4397564 115.6977172  90.3885515  45.3088407 128.4884295
  89.6948987  44.8942360 127.9754249  91.1358506  45.3508944 127.8917714
 106.5250736  36.0994594 123.3539329 105.9449405  36.7579398 122.9717381
 106.2586669  35.2771939 122.9426746 104.9754302  35.4999652 125.5560649
 105.4754081  35.6116186 124.7474968 105.6189910  35.1960705 126.1961458
  99.0336298  43.4078282 138.4428490  98.5503380  44.2078642 138.6492379
  99.1197237  43.4186226 137.4895934  92.3022258  45.2406661 126.3650310
  92.2792946  45.3394348 125.4132193  92.6122894  46.0871812 126.6867476
  94.9609636  47.2982816 130.4796924  95.9152889  47.2666759 130.4126856
  94.7622159  46.8373440 131.2947150  95.5509018  45.8683932 133.0467722
  96.3701907  46.3628011 133.0702559  95.8245825  44.9515900 133.0185289
 105.3075614  38.2594685 122.4095677 104.4201469  38.5444335 122.1915872
 105.7229603  38.0988448 121.5622954 108.6590150  38.2841206 126.1250016
 109.4350540  38.7737658 126.3974633 107.9338284  38.7099260 126.5821886
 111.0962709  38.9968825 127.1823957 111.6907199  38.7564561 126.4717265
 111.1689292  38.2775955 127.8097493  93.3159864  52.8402436 127.4967122
  93.1814332  52.0802837 126.9305120  92.8991927  53.5643336 127.0295911
 104.4518827  48.0239359 116.5043697 105.1554677  48.2289362 117.1201353
 103.7281476  48.5916121 116.7692781 105.2816638  43.7749221 122.6245967
 105.2251839  44.2317772 121.7853600 105.8344980  43.0139905 122.4468810
 109.0921444  39.5638952 123.4496087 108.8358378  39.1635588 124.2804295
 108.4674312  40.2782746 123.3246226 113.4033781  42.3035026 125.9567378
 112.8433339  42.3728215 126.7298940 112.7977285  42.1276010 125.2366875
  96.4728990  53.7371753 127.7085565  96.3561374  54.6817185 127.6064255
  95.6521436  53.4345314 128.0971364 106.3605525  48.4621888 118.5542157
 107.1951129  48.0303087 118.3719632 106.1989868  48.2903902 119.4819052
 106.0151417  44.9654002 119.9198497 105.9600221  44.7998273 118.9786941
 105.3897472  45.6730035 120.0760686  90.8043932  40.2022066 133.7459919
  91.4502795  39.6921020 134.2347144  90.5961083  40.9390748 134.3203344
 103.3297324  47.2702914 139.2452059 104.1988484  47.4443566 138.8838694
 102.8504076  48.0897330 139.1227789  99.3247542  34.4662111 119.4983815
  99.3126212  35.4103951 119.6552086 100.2170964  34.2832256 119.2043276
  97.4983504  54.3900015 130.9241493  98.4010751  54.4223625 131.2407988
  97.2720874  53.4600466 130.9387829  99.2537106  53.1431001 127.5851572
  98.3032737  53.1432863 127.4715944  99.5569592  52.3963736 127.0687606
 103.1399662  31.0604887 123.7529752 102.3732058  30.5063374 123.8986434
 103.5510367  31.1326756 124.6143903  95.1441423  37.3489683 137.8434933
  96.0072884  36.9926488 138.0538258  94.5706834  37.0103578 138.5310337
 114.9889800  58.9791540 128.6497334 115.6268210  58.8598287 127.9460674
 114.8710643  59.9272384 128.7085286 111.7979506  58.9318968 128.5858859
 111.4598018  58.8160032 127.6979394 112.6669274  58.5310133 128.5659865
 107.6566322  60.7854444 124.5755750 107.0931187  60.6944381 123.8072037
 107.5418717  59.9654349 125.0558242 112.2799289  60.0853819 134.5445064
 112.2687930  59.6906618 133.6725568 112.4419929  59.3519892 135.1378836
 105.2030754  62.2805636 127.4139970 105.9952046  61.9396460 126.9986269
 105.4427404  62.3900611 128.3342123 113.2365881  64.4525412 119.8870215
 112.5853860  65.0379492 119.5004228 114.0310243  64.9831607 119.9465252
 107.1621508  61.5414549 120.2857349 107.9352384  60.9943536 120.1470225
 107.5146907  62.4058798 120.4971810 109.0006550  62.8690931 133.4924248
 108.7096416  63.7736562 133.3770915 109.6363535  62.9107459 134.2068318
 109.9262757  60.2467780 130.0825608 110.5226329  60.0223802 129.3682571
 109.9837729  59.5052525 130.6851056 109.4987785  57.7007215 117.9175799
 109.7513306  57.1788736 117.1559262 108.5612345  57.5373360 118.0202482
 114.5431068  56.7042993 125.7250542 115.3294158  56.2862417 125.3740959
 114.8069773  57.6089086 125.8932190 114.7141146  62.1415844 120.4239199
 114.0786979  62.2150470 121.1360104 114.3838552  62.7309443 119.7458278
 119.9439495  56.6418227 126.6283521 120.6764667  56.0717443 126.8621350
 119.1878851  56.2539827 127.0690026 109.2184074  59.6035321 120.1200174
 109.1020332  58.9280224 120.7881258 109.3286334  59.1167695 119.3032327
 111.5615615  59.0645468 123.8246863 111.1973822  58.5376089 124.5359785
 112.4182731  58.6743937 123.6513348 117.4664916  50.3539801 131.0878129
 117.1348241  51.2235212 130.8639344 116.8710529  50.0376085 131.7672160
 111.2021102  54.0935368 118.8208212 111.3695504  54.9615604 119.1878683
 111.0118271  54.2562650 117.8969501 113.9596435  62.5552347 130.4874042
 113.6597158  63.4577386 130.3789849 113.6147495  62.2884530 131.3395195
 107.4108917  59.0066144 126.5210746 106.4859413  58.8742358 126.7288438
 107.6593330  59.7860363 127.0180689 117.3593579  55.0734887 128.1671479
 116.4510456  55.0050295 127.8730240 117.3081175  55.5506832 128.9953305
 111.1810323  56.5493025 119.8054878 111.0609948  56.9950076 120.6440359
 110.4862911  56.8978343 119.2468417 104.7717728  58.6499417 127.3554535
 104.9010109  58.9033896 128.2693947 104.0915179  59.2427125 127.0359190
 108.9417215  69.3196667 123.4545010 108.8641245  70.2704492 123.5333490
 108.3378859  68.9742540 124.1119936 111.4334445  56.4924532 136.1106377
 110.6567779  57.0518453 136.1009241 112.0725008  56.9781315 136.6321247
 119.2255226  53.2751325 129.9449353 118.5829606  53.5683858 129.2989148
 118.7210154  53.1604246 130.7502550 116.8795389  57.0214498 120.6335212
 117.7913245  57.2541885 120.4582910 116.3705036  57.6051543 120.0710291
 109.6880817  59.3009986 135.6724344 110.4295502  59.8395030 135.3959167
 108.9817803  59.9276275 135.8295895 115.1636157  61.4439126 134.2696505
 115.5719513  61.0021537 133.5251137 114.4413418  60.8691754 134.5230698
 111.5167227  56.3811733 131.6430062 112.3628422  56.8051147 131.7864711
 111.4565865  55.7245357 132.3368625 115.4864971  62.0040317 128.0248794
 114.8573834  62.1686031 127.3224862 115.0990634  62.4181926 128.7959758
 119.3654203  62.9394755 125.3793158 118.6805242  63.3193656 124.8290191
 119.4498053  63.5490081 126.1125105 114.6666672  54.0416101 133.3011236
 114.4227604  54.7958162 132.7645511 114.9426603  54.4201449 134.1358483
 116.6205135  60.5854714 131.9788501 116.8322030  61.2286474 131.3022882
 116.5734883  59.7517030 131.5110431 114.2231364  53.1972534 128.8825073
 113.3615843  53.4953788 129.1741811 114.2493799  53.4142933 127.9506106
 111.0392933  61.7414725 125.2898879 111.5031279  62.0202428 124.5003501
 110.7749731  60.8398170 125.1071970 107.9317014  61.2886207 128.2278642
 108.5018371  61.7173475 127.5896127 108.5225126  61.0068791 128.9262828
 109.9761819  57.8637877 122.0988444 110.6785863  58.3158921 122.5662370
 109.6442448  57.2221696 122.7268337 108.4242181  56.4549634 136.4739654
 107.7940842  57.1365915 136.7075050 108.3178269  56.3432716 135.5292792
 103.7187153  56.1221430 127.4005578 102.9286207  56.3778959 126.9245688
 104.2098401  56.9369768 127.5057618 117.7350963  63.4626669 130.1510859
 118.5568407  63.0606857 129.8693540 117.7313366  63.3594903 131.1026974
 105.6701899  56.4866009 124.3589054 104.8733062  56.5984704 124.8772550
 105.4427491  56.8252662 123.4929945 111.5007566  63.0110713 132.3071569
 111.5651999  63.4731120 133.1429741 110.7918490  62.3808077 132.4353879
 102.0024856  56.3751921 129.8320568 102.2532895  57.2598930 130.0978144
 102.5384405  56.1956522 129.0595660 125.8256956  59.8065418 126.4995830
 125.0720664  59.2372816 126.3439834 125.9604497  59.7728082 127.4466465
 111.2155584  64.6778820 122.1750549 111.0801259  65.5230356 122.6035397
 111.7565397  64.8798098 121.4116483 107.7022924  50.7570400 138.8364905
 107.3089869  50.2036598 139.5112549 108.5189064  51.0680978 139.2271422
 104.6684981  62.1954258 122.7478474 105.1809502  62.9897508 122.8984039
 105.3207694  61.4980549 122.6812076 106.4779866  65.3120014 124.8301228
 106.6546494  66.2337979 124.6422212 107.2736700  64.9978434 125.2595607
 110.6190885  52.1728279 136.4285161 111.3600598  52.7735432 136.3489624
 110.8508807  51.4305917 135.8703204 105.7632223  57.3584646 134.7063391
 105.6485738  56.4569903 135.0070490 104.9076740  57.6048343 134.3548207
 112.8424060  65.3002387 136.3050891 112.3987915  64.5138765 135.9871796
 113.5041274  65.4881537 135.6394782 107.6011182  66.8298188 130.8311570
 108.1518607  66.7015251 130.0588564 106.7622657  67.1293077 130.4806463
 114.9405298  65.5805186 134.3332293 114.9223774  66.4014067 133.8412562
 115.8625219  65.4559262 134.5582434 111.3978353  63.0949316 135.1755801
 111.9306689  62.3337604 134.9455109 110.8692434  62.8022968 135.9179956
 114.5648048  48.2009382 130.7049443 114.2212317  49.0911024 130.6288553
 114.9327010  48.0111040 129.8419028 102.6333898  60.5242912 123.5238045
 103.4709120  60.9339921 123.3071753 102.8112166  59.5842355 123.4938239
 114.5298330  58.1917993 119.2121878 114.0144954  58.9622598 119.4510265
 114.2575639  57.5183129 119.8354939 112.1145441  53.0367694 124.2707116
 111.2587038  52.6474544 124.0912755 112.5272393  53.1159655 123.4106902
 113.6444588  50.5714037 128.6698676 113.1409384  50.5344172 127.8566481
 113.9375195  51.4806780 128.7295333 109.8887474  50.6552767 127.6764858
 110.7540471  50.4595575 127.3170747 109.9564983  50.4263119 128.6034215
 119.5032604  60.9450348 121.1475051 118.7262047  60.6061507 120.7030213
 120.1824085  60.9502971 120.4730016 114.3184633  56.0645085 121.0381659
 114.0134769  56.3791234 121.8891802 115.2715076  56.1426505 121.0808992
 112.7631065  62.2235308 122.6874613 112.2352427  61.4888068 122.3747851
 112.2618568  63.0009985 122.4414581 117.7423911  60.4184329 127.8041659
 117.0847586  61.1083590 127.8921788 118.5464311  60.8080761 128.1475646
 107.4949793  52.8854975 125.0481225 108.0693545  52.6630156 124.3154418
 108.0820775  52.9543669 125.8009826 116.5529370  58.7728702 125.8545601
 117.0661252  59.4058693 126.3567311 117.2030594  58.1729897 125.4888961
 107.8219380  54.9159436 119.0677110 106.9856692  55.2534122 119.3886385
 107.6824150  54.7808416 118.1304247 109.7972461  49.7596224 123.7756294
 109.1436873  49.4445241 123.1512909 109.7552935  49.1371964 124.5016117
 110.9083666  60.0415519 115.6909586 110.0010727  59.8104772 115.8900735
 111.4054697  59.2453138 115.8783568 113.8151744  68.7513026 118.6106272
 113.1413443  69.0544723 119.2191230 114.2017566  69.5542106 118.2611729
 113.0310201  56.2478157 128.1003942 112.1132762  56.4693104 127.9425630
 113.4470345  56.3224468 127.2415649 113.8145249  57.6469573 123.2306622
 114.5617068  58.1590970 122.9213744 114.0836838  57.3253626 124.0911015
 112.0871899  60.1428114 120.2133576 111.1783118  59.8587146 120.3106046
 112.1166983  60.5627192 119.3536883 117.3191166  63.7534703 123.9824744
 116.8653493  62.9125613 124.0389934 116.6885133  64.3896101 124.3199524
 116.2624086  54.6826689 125.2125411 115.5246843  54.1704075 125.5435654
 116.5150859  54.2427071 124.4008688 115.7624106  65.5911200 124.9174562
 116.0547080  66.1516257 124.1986928 116.2722726  65.8839761 125.6727721
 116.3635713  47.4602941 125.8067180 116.6694590  46.6000305 125.5193096
 117.0888318  48.0520561 125.6066174 102.6560069  57.8633628 124.1948778
 102.4584469  57.2702988 123.4699845 102.1006733  57.5585838 124.9124717
 110.6356793  57.7556734 126.3143372 110.6905403  56.8030571 126.2385848
 109.8247995  57.9116173 126.7984670 111.7847987  61.6836857 117.5521655
 111.3467417  60.9672716 117.0927292 112.5258428  61.9112972 116.9906746
 108.5749153  56.3733794 124.0733750 107.7617018  56.6727964 124.4798943
 109.0708147  55.9789483 124.7908233 110.7257731  66.3691551 126.0068015
 110.6833910  66.5952397 125.0776547 111.6420430  66.1354925 126.1553816
 114.1723365  56.8375618 132.9048644 114.5272752  57.0647092 133.7643110
 114.8195496  57.1693995 132.2825900 119.9021102  59.9594054 123.6097973
 119.7639000  60.1495650 122.6819163 119.5457320  60.7213437 124.0666024
 108.0663228  53.9452149 129.6894985 108.7062607  53.8040909 128.9917949
 107.2340758  53.6586663 129.3133587 119.9290481  62.0270581 128.6209245
 120.3626988  61.9345870 129.4692299 120.6422062  62.0028082 127.9829261
 108.8423532  63.2454580 125.8029978 109.6364130  62.7504900 125.6012553
 108.1315224  62.7172443 125.4397683 113.6618376  65.6272675 130.1542345
 113.7155398  66.1963612 130.9220061 112.7933157  65.7974560 129.7896383
 105.1506295  57.3897662 121.8789731 104.2203883  57.3282117 122.0959693
 105.2463767  56.8673614 121.0826372 105.0691844  53.9152474 124.4667972
 105.3298661  54.8297808 124.3577133 105.8909016  53.4476917 124.6164585
 106.5416769  55.3290232 131.6366797 107.2139823  55.1207594 130.9879446
 105.7146556  55.1312318 131.1972029 120.7906031  62.0694282 131.1542130
 120.9841921  62.9740092 131.4001405 120.6906649  61.6101701 131.9880715
 112.4442341  51.9552172 133.6532458 111.7970256  52.6542122 133.5596934
 113.2143357  52.3888316 134.0208706 115.8521139  62.2201025 136.7283011
 115.7006646  61.9911576 135.8113095 115.8425819  63.1771626 136.7414356
 112.6206476  59.7932937 131.7129277 113.5498536  59.9444097 131.5398245
 112.1997506  59.8816958 130.8577924 111.4194808  63.8183602 129.4827815
 111.2805893  63.4502386 130.3553753 110.6309404  64.3331241 129.3111773
 112.0142960  68.9192698 120.8253351 112.1894715  68.4480741 121.6398974
 111.3275748  69.5458464 121.0534612 112.9700023  63.1965205 126.8716653
 112.6349855  63.1565974 127.7674303 112.4703968  62.5309920 126.3987063
 106.9444267  58.6032835 132.3969234 106.8064065  57.8713073 132.9980773
 107.8549190  58.5141735 132.1153422 115.9059214  60.5421239 117.1453712
 115.2888385  59.8168067 117.0486765 115.4375703  61.3030599 116.8020787
 109.5726567  58.3152794 131.8852914 110.2826186  57.6745986 131.8439532
 109.5295876  58.5665689 132.8079094 117.5613346  65.2520147 134.8059493
 117.5025892  64.5679367 134.1390076 117.9632864  65.9939137 134.3540119
 108.2855501  55.3018012 133.7048553 107.7492858  54.8508750 134.3570149
 107.6972210  55.4363921 132.9619017 106.5804045  72.0682061 127.5993212
 106.8200643  72.7000585 128.2772230 105.7373241  71.7170101 127.8858571
 107.6957760  54.7606663 116.2675017 106.8187227  54.6395464 115.9037263
 108.1715513  53.9692741 116.0153905 117.5630753  63.2159731 133.0373472
 116.6757532  62.8785653 133.1599871 118.1329304  62.4842762 133.2742238
  99.2159900  59.5483823 126.3616524  99.9030940  59.2345553 125.7737539
  99.0608029  60.4525188 126.0883775 104.0194623  54.4374019 130.7901547
 103.9352811  53.8299689 130.0551957 103.1977329  54.9283038 130.7911044
 111.0931907  67.8761183 130.0034716 111.0202078  68.6816155 130.5154020
 110.6509300  68.0753149 129.1782737 110.8821686  67.1132954 123.5137537
 110.0989208  67.6554634 123.6075762 111.5814431  67.6306933 123.9131778
 114.1918336  52.9227583 126.1571743 114.6887036  52.1697545 125.8372813
 113.4205318  52.9591900 125.5914952 122.0448094  58.6267949 127.7990034
 122.0337970  59.5092664 127.4283967 121.1765473  58.2739499 127.6044571
 113.5530590  67.7748018 132.1592874 114.2658562  68.4095482 132.0868776
 113.0620619  67.8711884 131.3432876 115.2748117  61.6799270 123.7310166
 114.3404396  61.8000733 123.5614870 115.4524786  60.7771737 123.4670176
 110.7753305  55.0644966 125.8843427 110.4051093  54.5116006 126.5724333
 111.2712398  54.4603099 125.3318427 118.6620668  57.5216589 124.2660200
 119.1281121  58.3544581 124.1920503 119.1128169  57.0561571 124.9705459
 108.6042504  65.5242461 132.9798445 109.3051963  66.1578944 133.1327839
 108.1337619  65.8657193 132.2194084 116.7296900  63.8660411 121.2646352
 117.0056743  63.7517005 122.1740226 115.8601398  63.4677896 121.2258525
 116.6337331  49.8897176 128.3051101 115.7200411  50.1201403 128.4733308
 117.0630433  49.9735621 129.1565134 116.4043790  58.0787068 130.8050995
 115.7515240  58.3262976 130.1503448 116.7824170  57.2651207 130.4713473
 113.3650964  68.1146762 124.9079166 113.5473358  67.2968418 125.3706918
 114.1883950  68.3314454 124.4704056 113.6993129  67.0414947 122.1694214
 114.2280896  66.5307401 121.5564376 113.9621349  66.7257477 123.0339747
 112.4531363  58.8206880 137.2917033 111.7772000  58.7201009 137.9619408
 113.2758997  58.6646093 137.7553030 104.2010222  65.0578816 129.9129548
 104.7863659  64.3122504 130.0457452 104.0035060  65.3682773 130.7966212
 107.0548877  68.0930063 124.9291990 106.3859252  68.5776191 124.4456030
 106.9161747  68.3399284 125.8435369  98.7927877  57.6284416 128.6333991
  98.8311976  57.0948007 129.4271109  98.2868169  57.1019622 128.0144968
 111.1954146  70.1273807 131.5274649 111.7472454  70.2905428 132.2923734
 111.5360339  70.7178245 130.8554673 106.1718639  52.4748957 132.1296533
 106.2359965  53.3363788 131.7173931 106.1085759  51.8622958 131.3968892
 105.6470911  54.5472089 135.7769567 106.2742950  54.1649167 136.3907092
 104.7898830  54.3286291 136.1425260 116.0465020  64.9535064 137.3823303
 116.5904924  65.5665023 136.8878258 115.4651865  65.5114643 137.8990316
 102.4236454  56.3548518 121.7087922 102.7189895  55.4459197 121.6554976
 101.5224490  56.3336258 121.3868925 114.3322533  68.0755782 128.5138331
 114.2073672  67.2745522 128.0049276 114.9901624  68.5701976 128.0252301
 105.9530701  54.4304515 127.6915471 105.2317287  55.0440483 127.5522944
 106.7423957  54.9662280 127.6132117 116.3957441  65.8764803 130.1417881
 115.4487777  65.7570154 130.0696207 116.7440214  64.9887301 130.2244142
 108.7557015  51.7658941 133.9656123 109.2791416  52.0121238 134.7282432
 108.5369348  52.5978976 133.5459260 104.1524296  54.0362616 121.8327247
 103.8237002  53.1559995 121.6502353 104.5063666  53.9810285 122.7203637
 113.4003875  65.6717519 126.3422233 113.2528837  64.7434226 126.5229803
 114.2257368  65.6937609 125.8579308 107.2666119  54.3235586 122.2002725
 107.6062191  54.8521507 121.4781333 107.7138239  54.6615992 122.9761292
 117.0037996  66.4946078 127.4287106 117.9284544  66.2888939 127.2911557
 116.8353300  66.2462479 128.3376447 109.9609560  52.7072637 131.6505793
 109.6206380  51.9080450 132.0526473 109.2548566  53.0074347 131.0782626
 110.6126032  49.7921949 130.1033116 111.4352101  49.3182427 129.9812007
 110.8564095  50.5712433 130.6031803 109.2534266  52.8210207 120.3996018
 109.9742628  53.1991460 119.8959735 108.6299570  53.5399084 120.5030996
 113.3965389  53.5255356 121.3354350 113.6129003  54.4079994 121.0343178
 112.9159456  53.1341570 120.6059992 108.1364610  56.4841070 127.9125095
 107.9909191  56.7981373 128.8049376 107.6589814  57.1025970 127.3595993
 109.9960993  53.4743618 127.9605984 109.9822562  52.5784711 127.6238282
 110.7133421  53.4814281 128.5944270 111.8487124  53.9080958 130.0059112
 111.5904902  54.8298028 130.0043442 111.3172164  53.5111392 130.6959576
 116.7933313  67.0131745 122.7849197 116.9670190  66.4478167 122.0323050
 117.2862204  67.8132640 122.6028687 102.6110272  59.0246414 130.8512756
 102.0663741  59.8006222 130.9833030 103.4889622  59.3717219 130.6931877
 109.3997889  52.3557998 123.2293555 109.5213800  51.4274644 123.4284442
 109.1099931  52.3696684 122.3171870 112.2689079  50.0412908 126.3660274
 112.2910776  50.1052241 125.4112254 112.6857138  49.2017417 126.5600781
 122.6472704  59.7768168 124.4039497 123.0903850  59.0275493 124.0058620
 121.7699214  59.7678304 124.0213229 117.7808485  66.3298509 119.8846095
 118.4759390  66.9505202 120.1033410 118.1231635  65.4793861 120.1598473
 103.3976294  58.1516310 133.7442913 102.6558030  58.2998946 134.3307543
 103.0769039  58.4124576 132.8809662 119.6799908  63.7798215 121.4133426
 120.2051232  64.1185488 120.6882746 119.5922261  62.8445230 121.2296561
 111.3419957  67.6932289 133.5423303 111.6507083  67.4481435 134.4146002
 112.1395439  67.8978927 133.0542173 111.3640569  69.8470198 125.7728679
 110.9245559  69.3546577 126.4661536 112.1148686  69.3043166 125.5320755
 103.8432908  66.0381739 125.7753308 104.6690928  65.7385511 125.3951951
 103.4926960  65.2689361 126.2243096 108.8114441  65.3908207 127.8450981
 108.1894450  64.7278912 127.5453209 109.4819308  65.4169339 127.1624629
 102.0441513  63.9568065 126.7342241 101.2073421  63.5290240 126.5526242
 102.0165158  64.1500509 127.6713032 108.8838969  53.8689995 137.4383487
 108.9327124  54.7452118 137.0561257 109.4261483  53.3267388 136.8655130
 119.3693814  64.4131119 136.7184624 118.5789358  64.3955257 136.1789124
 119.1327169  64.9519412 137.4733661 119.4891689  61.2623585 134.0317353
 119.5389694  61.0973592 134.9732876 119.3805613  60.3950844 133.6415234
 108.3727948  63.9412131 121.3209442 108.5216068  64.6247595 120.6676114
 109.1794391  63.9217221 121.8358897 116.7795452  57.2454513 135.3476659
 117.6805314  57.1060978 135.0560657 116.8543426  57.4108968 136.2874837
 111.1138257  54.6221368 134.1929846 110.2441566  54.9154934 133.9212434
 111.3497737  55.2061813 134.9137109 120.9909886  63.6820526 134.2759374
 120.6994694  64.0450507 135.1122835 120.3782017  62.9687535 134.0972706
 122.1905568  61.2473406 126.7961945 123.0252460  61.6863210 126.9599505
 122.3264697  60.7712059 125.9770190 119.2397074  58.8053141 132.7439432
 119.7151196  58.9980787 131.9358284 118.3162640  58.8612327 132.4982816
 106.1280581  59.9677308 122.3270511 105.8826623  59.0639638 122.5250721
 106.2976496  59.9694459 121.3849989 113.8177291  50.8400985 131.7095266
 114.3359235  51.5762012 131.3841755 113.4632424  51.1464978 132.5442025
 105.3976229  55.7005666 119.8256672 104.7045473  55.7750021 119.1696708
 105.1527980  54.9366009 120.3478189 114.0689885  47.2601267 127.2296163
 114.3491639  46.5924456 127.8556589 114.8540492  47.4530363 126.7170827
 111.8723354  66.4360261 118.7921189 111.2997321  67.0550448 118.3391661
 112.4456147  66.9859623 119.3261111 117.9398743  55.6818901 130.9767738
 118.8916166  55.7816999 130.9979962 117.7702194  54.8897170 131.4865822
 115.9613123  52.7674484 131.1627139 115.3663055  53.0479497 130.4673627
 115.6762820  53.2568385 131.9343880 115.0920613  66.7197411 119.9229771
 116.0251287  66.6542973 120.1262647 115.0043826  67.5553678 119.4644304
 117.7208630  66.0363282 116.8833719 117.6422262  65.7023145 117.7769477
 118.5418297  66.5285049 116.8825191 120.4186821  58.9025021 130.0910038
 120.3863141  57.9641022 130.2769721 121.0287445  58.9809058 129.3575862
 112.2570152  57.7721074 116.1337242 113.2029257  57.6427282 116.2025660
 111.8784397  57.0335736 116.6106670 120.5681310  55.6936064 130.1368321
 120.0520358  54.9094521 129.9498250 121.4521258  55.3654781 130.3014840
 118.2292037  49.4377080 126.0964133 118.0316858  49.1292168 126.9807465
 118.8391742  50.1638719 126.2262063 126.2363371  59.9641028 129.2316074
 126.9666760  59.7026316 129.7923778 125.6270317  59.2269750 129.2718142
 124.3178668  58.1048890 129.8290526 123.5911832  57.9704855 129.2207017
 123.9025955  58.4125719 130.6347244 112.1408845  61.8238820 137.5937899
 113.0611854  62.0017419 137.7877945 112.1058428  60.8794865 137.4417598
 110.4413069  55.6971050 116.0692127 109.5344525  55.4004163 116.1454840
 110.7189050  55.4000868 115.2026413 101.3591010  57.0177414 126.5191173
 101.0393794  56.1642722 126.2265547 100.8124438  57.2325992 127.2749141
 105.1370917  59.7339855 130.2360680 105.3556927  60.6656962 130.2548714
 105.5496691  59.3747829 131.0215484 112.0575135  50.2407940 122.2236368
 111.2475863  49.8955025 122.5991614 112.7459552  49.9315484 122.8123980
 113.9865683  49.3185987 123.8460665 114.5396722  49.7381440 124.5050688
 114.2235770  48.3921735 123.8883621 110.0098782  55.3073060 139.6263429
 109.9095509  56.2567417 139.5575520 109.7920325  54.9791299 138.7539499
 109.2111854  52.5557985 116.2104106 110.0731018  52.8812884 116.4699923
 109.3962198  51.7689481 115.6977172 101.2279270  60.6380325 128.4884295
 100.5342741  60.2234278 127.9754249 101.9752261  60.6800862 127.8917714
 117.3644490  51.4286512 123.3539329 116.7843159  52.0871316 122.9717381
 117.0980423  50.6063856 122.9426746 115.8148057  50.8291570 125.5560649
 116.3147835  50.9408104 124.7474968 116.4583665  50.5252622 126.1961458
 109.8730053  58.7370199 138.4428490 109.3897134  59.5370559 138.6492379
 109.9590992  58.7478144 137.4895934 103.1416012  60.5698579 126.3650310
 103.1186700  60.6686266 125.4132193 103.4516649  61.4163730 126.6867476
 105.8003390  62.6274734 130.4796924 106.7546644  62.5958676 130.4126856
 105.6015914  62.1665358 131.2947150 106.3902772  61.1975850 133.0467722
 107.2095661  61.6919929 133.0702559 106.6639580  60.2807818 133.0185289
 116.1469368  53.5886602 122.4095677 115.2595223  53.8736253 122.1915872
 116.5623357  53.4280366 121.5622954 119.4983904  53.6133123 126.1250016
 120.2744295  54.1029576 126.3974633 118.7732039  54.0391177 126.5821886
 121.9356463  54.3260742 127.1823957 122.5300954  54.0856478 126.4717265
 122.0083047  53.6067873 127.8097493 104.1553619  68.1694353 127.4967122
 104.0208087  67.4094754 126.9305120 103.7385681  68.8935253 127.0295911
 115.2912582  63.3531277 116.5043697 115.9948432  63.5581279 117.1201353
 114.5675231  63.9208039 116.7692781 116.1210392  59.1041138 122.6245967
 116.0645593  59.5609690 121.7853600 116.6738735  58.3431823 122.4468810
 119.9315198  54.8930870 123.4496087 119.6752132  54.4927506 124.2804295
 119.3068066  55.6074664 123.3246226 124.2427536  57.6326943 125.9567378
 123.6827094  57.7020133 126.7298940 123.6371039  57.4567928 125.2366875
 107.3122745  69.0663670 127.7085565 107.1955129  70.0109103 127.6064255
 106.4915191  68.7637232 128.0971364 117.1999279  63.7913806 118.5542157
 118.0344883  63.3595005 118.3719632 117.0383622  63.6195820 119.4819052
 116.8545171  60.2945919 119.9198497 116.7993975  60.1290191 118.9786941
 116.2291227  61.0021952 120.0760686 101.6437686  55.5313984 133.7459919
 102.2896550  55.0212938 134.2347144 101.4354837  56.2682665 134.3203344
 114.1691079  62.5994831 139.2452059 115.0382238  62.7735484 138.8838694
 113.6897830  63.4189248 139.1227789 110.1641297  49.7954028 119.4983815
 110.1519967  50.7395868 119.6552086 111.0564719  49.6124174 119.2043276
 108.3377259  69.7191932 130.9241493 109.2404506  69.7515543 131.2407988
 108.1114629  68.7892383 130.9387829 110.0930861  68.4722919 127.5851572
 109.1426492  68.4724780 127.4715944 110.3963347  67.7255653 127.0687606
 113.9793416  46.3896805 123.7529752 113.2125812  45.8355292 123.8986434
 114.3904121  46.4618674 124.6143903 105.9835177  52.6781601 137.8434933
 106.8466639  52.3218406 138.0538258 105.4100588  52.3395496 138.5310337
 125.8283554  74.3083457 128.6497334 126.4661964  74.1890205 127.9460674
 125.7104397  75.2564301 128.7085286 122.6373261  74.2610885 128.5858859
 122.2991772  74.1451950 127.6979394 123.5063029  73.8602050 128.5659865
 118.4960076  76.1146362 124.5755750 117.9324941  76.0236299 123.8072037
 118.3812471  75.2946266 125.0558242 123.1193044  75.4145737 134.5445064
 123.1081684  75.0198535 133.6725568 123.2813683  74.6811810 135.1378836
 116.0424508  77.6097553 127.4139970 116.8345800  77.2688378 126.9986269
 116.2821158  77.7192528 128.3342123 124.0759635  79.7817329 119.8870215
 123.4247615  80.3671410 119.5004228 124.8703998  80.3123524 119.9465252
 118.0015262  76.8706467 120.2857349 118.7746138  76.3235454 120.1470225
 118.3540661  77.7350716 120.4971810 119.8400305  78.1982849 133.4924248
 119.5490171  79.1028480 133.3770915 120.4757289  78.2399376 134.2068318
 120.7656512  75.5759697 130.0825608 121.3620084  75.3515720 129.3682571
 120.8231483  74.8344443 130.6851056 120.3381540  73.0299133 117.9175799
 120.5907061  72.5080654 117.1559262 119.4006099  72.8665278 118.0202482
 125.3824823  72.0334911 125.7250542 126.1687912  71.6154334 125.3740959
 125.6463527  72.9381003 125.8932190 125.5534900  77.4707761 120.4239199
 124.9180733  77.5442388 121.1360104 125.2232307  78.0601360 119.7458278
 130.7833250  71.9710144 126.6283521 131.5158422  71.4009361 126.8621350
 130.0272606  71.5831745 127.0690026 120.0577829  74.9327239 120.1200174
 119.9414087  74.2572142 120.7881258 120.1680089  74.4459613 119.3032327
 122.4009370  74.3937386 123.8246863 122.0367577  73.8668007 124.5359785
 123.2576486  74.0035855 123.6513348 128.3058670  65.6831718 131.0878129
 127.9741995  66.5527129 130.8639344 127.7104284  65.3668002 131.7672160
 122.0414857  69.4227285 118.8208212 122.2089259  70.2907522 119.1878683
 121.8512026  69.5854567 117.8969501 124.7990190  77.8844264 130.4874042
 124.4990913  78.7869303 130.3789849 124.4541249  77.6176448 131.3395195
 118.2502671  74.3358061 126.5210746 117.3253168  74.2034275 126.7288438
 118.4987084  75.1152280 127.0180689 128.1987334  70.4026805 128.1671479
 127.2904211  70.3342213 127.8730240 128.1474929  70.8798750 128.9953305
 122.0204077  71.8784943 119.8054878 121.9003703  72.3241994 120.6440359
 121.3256666  72.2270261 119.2468417 115.6111482  73.9791335 127.3554535
 115.7403863  74.2325814 128.2693947 114.9308934  74.5719043 127.0359190
 119.7810970  84.6488585 123.4545010 119.7034999  85.5996410 123.5333490
 119.1772613  84.3034457 124.1119936 122.2728199  71.8216450 136.1106377
 121.4961533  72.3810370 136.1009241 122.9118762  72.3073233 136.6321247
 130.0648980  68.6043243 129.9449353 129.4223360  68.8975776 129.2989148
 129.5603909  68.4896163 130.7502550 127.7189144  72.3506416 120.6335212
 128.6307000  72.5833803 120.4582910 127.2098791  72.9343460 120.0710291
 120.5274572  74.6301904 135.6724344 121.2689256  75.1686947 135.3959167
 119.8211557  75.2568192 135.8295895 126.0029911  76.7731044 134.2696505
 126.4113267  76.3313455 133.5251137 125.2807173  76.1983672 134.5230698
 122.3560981  71.7103651 131.6430062 123.2022177  72.1343064 131.7864711
 122.2959619  71.0537275 132.3368625 126.3258726  77.3332235 128.0248794
 125.6967588  77.4977949 127.3224862 125.9384388  77.7473844 128.7959758
 130.2047958  78.2686672 125.3793158 129.5198996  78.6485574 124.8290191
 130.2891807  78.8781999 126.1125105 125.5060427  69.3708019 133.3011236
 125.2621359  70.1250080 132.7645511 125.7820357  69.7493367 134.1358483
 127.4598889  75.9146631 131.9788501 127.6715785  76.5578391 131.3022882
 127.4128638  75.0808948 131.5110431 125.0625118  68.5264452 128.8825073
 124.2009597  68.8245706 129.1741811 125.0887553  68.7434851 127.9506106
 121.8786688  77.0706643 125.2898879 122.3425033  77.3494346 124.5003501
 121.6143486  76.1690087 125.1071970 118.7710769  76.6178124 128.2278642
 119.3412126  77.0465393 127.5896127 119.3618881  76.3360709 128.9262828
 120.8155574  73.1929795 122.0988444 121.5179617  73.6450839 122.5662370
 120.4836202  72.5513614 122.7268337 119.2635935  71.7841552 136.4739654
 118.6334596  72.4657833 136.7075050 119.1572023  71.6724633 135.5292792
 114.5580908  71.4513348 127.4005578 113.7679962  71.7070876 126.9245688
 115.0492155  72.2661686 127.5057618 128.5744717  78.7918587 130.1510859
 129.3962161  78.3898774 129.8693540 128.5707120  78.6886821 131.1026974
 116.5095653  71.8157927 124.3589054 115.7126817  71.9276621 124.8772550
 116.2821245  72.1544579 123.4929945 122.3401321  78.3402630 132.3071569
 122.4045753  78.8023037 133.1429741 121.6312245  77.7099995 132.4353879
 112.8418611  71.7043838 129.8320568 113.0926649  72.5890848 130.0978144
 113.3778159  71.5248440 129.0595660 136.6650710  75.1357335 126.4995830
 135.9114419  74.5664733 126.3439834 136.7998252  75.1020000 127.4466465
 122.0549339  80.0070738 122.1750549 121.9195013  80.8522273 122.6035397
 122.5959151  80.2090015 121.4116483 118.5416678  66.0862318 138.8364905
 118.1483624  65.5328516 139.5112549 119.3582818  66.3972896 139.2271422
 115.5078736  77.5246176 122.7478474 116.0203256  78.3189426 122.8984039
 116.1601449  76.8272466 122.6812076 117.3173621  80.6411932 124.8301228
 117.4940249  81.5629897 124.6422212 118.1130454  80.3270351 125.2595607
 121.4584639  67.5020197 136.4285161 122.1994353  68.1027350 136.3489624
 121.6902562  66.7597834 135.8703204 116.6025977  72.6876564 134.7063391
 116.4879492  71.7861821 135.0070490 115.7470495  72.9340261 134.3548207
 123.6817815  80.6294304 136.3050891 123.2381669  79.8430683 135.9871796
 124.3435028  80.8173455 135.6394782 118.4404936  82.1590106 130.8311570
 118.9912361  82.0307169 130.0588564 117.6016412  82.4584995 130.4806463
 125.7799053  80.9097104 134.3332293 125.7617528  81.7305985 133.8412562
 126.7018973  80.7851179 134.5582434 122.2372107  78.4241234 135.1755801
 122.7700444  77.6629522 134.9455109 121.7086188  78.1314885 135.9179956
 125.4041802  63.5301300 130.7049443 125.0606071  64.4202941 130.6288553
 125.7720765  63.3402957 129.8419028 113.4727653  75.8534830 123.5238045
 114.3102875  76.2631838 123.3071753 113.6505920  74.9134272 123.4938239
 125.3692085  73.5209911 119.2121878 124.8538708  74.2914515 119.4510265
 125.0969393  72.8475047 119.8354939 122.9539196  68.3659611 124.2707116
 122.0980792  67.9766462 124.0912755 123.3666148  68.4451572 123.4106902
 124.4838342  65.9005955 128.6698676 123.9803138  65.8636090 127.8566481
 124.7768949  66.8098697 128.7295333 120.7281228  65.9844684 127.6764858
 121.5934225  65.7887493 127.3170747 120.7958737  65.7555036 128.6034215
 130.3426359  76.2742265 121.1475051 129.5655802  75.9353425 120.7030213
 131.0217840  76.2794888 120.4730016 125.1578388  71.3937003 121.0381659
 124.8528524  71.7083152 121.8891802 126.1108830  71.4718423 121.0808992
 123.6024820  77.5527226 122.6874613 123.0746181  76.8179986 122.3747851
 123.1012323  78.3301902 122.4414581 128.5817666  75.7476247 127.8041659
 127.9241340  76.4375508 127.8921788 129.3858065  76.1372679 128.1475646
 118.3343547  68.2146892 125.0481225 118.9087299  67.9922074 124.3154418
 118.9214530  68.2835587 125.8009826 127.3923125  74.1020619 125.8545601
 127.9055006  74.7350611 126.3567311 128.0424349  73.5021815 125.4888961
 118.6613135  70.2451353 119.0677110 117.8250447  70.5826040 119.3886385
 118.5217904  70.1100333 118.1304247 120.6366215  65.0888141 123.7756294
 119.9830627  64.7737158 123.1512909 120.5946689  64.4663882 124.5016117
 121.7477420  75.3707436 115.6909586 120.8404482  75.1396690 115.8900735
 122.2448452  74.5745056 115.8783568 124.6545499  84.0804944 118.6106272
 123.9807198  84.3836640 119.2191230 125.0411321  84.8834024 118.2611729
 123.8703956  71.5770075 128.1003942 122.9526517  71.7985022 127.9425630
 124.2864099  71.6516385 127.2415649 124.6539003  72.9761491 123.2306622
 125.4010822  73.4882888 122.9213744 124.9230593  72.6545543 124.0911015
 122.9265653  75.4720031 120.2133576 122.0176873  75.1879064 120.3106046
 122.9560737  75.8919110 119.3536883 128.1584921  79.0826621 123.9824744
 127.7047248  78.2417531 124.0389934 127.5278888  79.7188019 124.3199524
 127.1017840  70.0118607 125.2125411 126.3640597  69.4995993 125.5435654
 127.3544614  69.5718988 124.4008688 126.6017860  80.9203117 124.9174562
 126.8940834  81.4808175 124.1986928 127.1116481  81.2131678 125.6727721
 127.2029468  62.7894859 125.8067180 127.5088345  61.9292222 125.5193096
 127.9282073  63.3812479 125.6066174 113.4953824  73.1925545 124.1948778
 113.2978224  72.5994906 123.4699845 112.9400488  72.8877756 124.9124717
 121.4750547  73.0848652 126.3143372 121.5299157  72.1322488 126.2385848
 120.6641750  73.2408091 126.7984670 122.6241741  77.0128775 117.5521655
 122.1861171  76.2964634 117.0927292 123.3652182  77.2404890 116.9906746
 119.4142907  71.7025712 124.0733750 118.6010773  72.0019882 124.4798943
 119.9101902  71.3081400 124.7908233 121.5651485  81.6983469 126.0068015
 121.5227664  81.9244315 125.0776547 122.4814184  81.4646843 126.1553816
 125.0117119  72.1667536 132.9048644 125.3666507  72.3939009 133.7643110
 125.6589250  72.4985913 132.2825900 130.7414856  75.2885972 123.6097973
 130.6032755  75.4787568 122.6819163 130.3851075  76.0505355 124.0666024
 118.9056982  69.2744067 129.6894985 119.5456361  69.1332826 128.9917949
 118.0734513  68.9878580 129.3133587 130.7684236  77.3562499 128.6209245
 131.2020742  77.2637788 129.4692299 131.4815816  77.3319999 127.9829261
 119.6817286  78.5746498 125.8029978 120.4757885  78.0796818 125.6012553
 118.9708978  78.0464361 125.4397683 124.5012131  80.9564593 130.1542345
 124.5549153  81.5255529 130.9220061 123.6326912  81.1266478 129.7896383
 115.9900050  72.7189579 121.8789731 115.0597638  72.6574035 122.0959693
 116.0857522  72.1965532 121.0826372 115.9085599  69.2444392 124.4667972
 116.1692416  70.1589725 124.3577133 116.7302771  68.7768835 124.6164585
 117.3810524  70.6582149 131.6366797 118.0533577  70.4499511 130.9879446
 116.5540310  70.4604235 131.1972029 131.6299785  77.3986200 131.1542130
 131.8235675  78.3032010 131.4001405 131.5300403  76.9393619 131.9880715
 123.2836096  67.2844090 133.6532458 122.6364011  67.9834040 133.5596934
 124.0537111  67.7180234 134.0208706 126.6914894  77.5492942 136.7283011
 126.5400400  77.3203494 135.8113095 126.6819573  78.5063544 136.7414356
 123.4600230  75.1224855 131.7129277 124.3892290  75.2736015 131.5398245
 123.0391260  75.2108876 130.8577924 122.2588562  79.1475520 129.4827815
 122.1199648  78.7794304 130.3553753 121.4703158  79.6623159 129.3111773
 122.8536714  84.2484616 120.8253351 123.0288470  83.7772659 121.6398974
 122.1669502  84.8750382 121.0534612 123.8093777  78.5257122 126.8716653
 123.4743610  78.4857892 127.7674303 123.3097723  77.8601838 126.3987063
 117.7838021  73.9324752 132.3969234 117.6457819  73.2004991 132.9980773
 118.6942945  73.8433652 132.1153422 126.7452969  75.8713157 117.1453712
 126.1282139  75.1459985 117.0486765 126.2769457  76.6322517 116.8020787
 120.4120322  73.6444712 131.8852914 121.1219940  73.0037904 131.8439532
 120.3689630  73.8957606 132.8079094 128.4007101  80.5812065 134.8059493
 128.3419647  79.8971285 134.1390076 128.8026619  81.3231055 134.3540119
 119.1249256  70.6309929 133.7048553 118.5886613  70.1800668 134.3570149
 118.5365964  70.7655838 132.9619017 117.4197799  87.3973979 127.5993212
 117.6594398  88.0292503 128.2772230 116.5766996  87.0462019 127.8858571
 118.5351515  70.0898581 116.2675017 117.6580981  69.9687382 115.9037263
 119.0109268  69.2984659 116.0153905 128.4024508  78.5451649 133.0373472
 127.5151287  78.2077571 133.1599871 128.9723059  77.8134680 133.2742238
 110.0553655  74.8775741 126.3616524 110.7424695  74.5637471 125.7737539
 109.9001784  75.7817105 126.0883775 114.8588377  69.7665937 130.7901547
 114.7746566  69.1591607 130.0551957 114.0371083  70.2574955 130.7911044
 121.9325661  83.2053101 130.0034716 121.8595833  84.0108073 130.5154020
 121.4903054  83.4045067 129.1782737 121.7215441  82.4424871 123.5137537
 120.9382963  82.9846551 123.6075762 122.4208186  82.9598851 123.9131778
 125.0312091  68.2519501 126.1571743 125.5280790  67.4989463 125.8372813
 124.2599072  68.2883817 125.5914952 132.8841848  73.9559866 127.7990034
 132.8731725  74.8384582 127.4283967 132.0159228  73.6031417 127.6044571
 124.3924345  83.1039935 132.1592874 125.1052317  83.7387400 132.0868776
 123.9014373  83.2003801 131.3432876 126.1141872  77.0091188 123.7310166
 125.1798150  77.1292650 123.5614870 126.2918540  76.1063655 123.4670176
 121.6147060  70.3936884 125.8843427 121.2444847  69.8407924 126.5724333
 122.1106152  69.7895017 125.3318427 129.5014423  72.8508507 124.2660200
 129.9674875  73.6836499 124.1920503 129.9521923  72.3853489 124.9705459
 119.4436258  80.8534379 132.9798445 120.1445718  81.4870862 133.1327839
 118.9731373  81.1949110 132.2194084 127.5690654  79.1952328 121.2646352
 127.8450498  79.0808923 122.1740226 126.6995153  78.7969813 121.2258525
 127.4731086  65.2189094 128.3051101 126.5594165  65.4493321 128.4733308
 127.9024187  65.3027538 129.1565134 127.2437544  73.4078986 130.8050995
 126.5908994  73.6554894 130.1503448 127.6217924  72.5943124 130.4713473
 124.2044718  83.4438679 124.9079166 124.3867113  82.6260335 125.3706918
 125.0277704  83.6606372 124.4704056 124.5386884  82.3706864 122.1694214
 125.0674650  81.8599319 121.5564376 124.8015103  82.0549395 123.0339747
 123.2925117  74.1498797 137.2917033 122.6165754  74.0492927 137.9619408
 124.1152751  73.9938011 137.7553030 115.0403976  80.3870734 129.9129548
 115.6257413  79.6414422 130.0457452 114.8428815  80.6974690 130.7966212
 117.8942632  83.4221981 124.9291990 117.2253007  83.9068109 124.4456030
 117.7555501  83.6691202 125.8435369 109.6321631  72.9576334 128.6333991
 109.6705731  72.4239925 129.4271109 109.1261924  72.4311539 128.0144968
 122.0347900  85.4565725 131.5274649 122.5866208  85.6197346 132.2923734
 122.3754094  86.0470162 130.8554673 117.0112393  67.8040874 132.1296533
 117.0753720  68.6655705 131.7173931 116.9479514  67.1914876 131.3968892
 116.4864666  69.8764007 135.7769567 117.1136705  69.4941084 136.3907092
 115.6292585  69.6578209 136.1425260 126.8858774  80.2826982 137.3823303
 127.4298678  80.8956940 136.8878258 126.3045619  80.8406561 137.8990316
 113.2630209  71.6840436 121.7087922 113.5583650  70.7751114 121.6554976
 112.3618244  71.6628176 121.3868925 125.1716287  83.4047700 128.5138331
 125.0467427  82.6037440 128.0049276 125.8295378  83.8993894 128.0252301
 116.7924456  69.7596433 127.6915471 116.0711041  70.3732400 127.5522944
 117.5817711  70.2954197 127.6132117 127.2351196  81.2056720 130.1417881
 126.2881531  81.0862071 130.0696207 127.5833969  80.3179218 130.2244142
 119.5950769  67.0950859 133.9656123 120.1185171  67.3413156 134.7282432
 119.3763102  67.9270894 133.5459260 114.9918050  69.3654534 121.8327247
 114.6630756  68.4851913 121.6502353 115.3457421  69.3102202 122.7203637
 124.2397629  81.0009436 126.3422233 124.0922591  80.0726144 126.5229803
 125.0651123  81.0229527 125.8579308 118.1059873  69.6527504 122.2002725
 118.4455946  70.1813425 121.4781333 118.5531994  69.9907910 122.9761292
 127.8431751  81.8237995 127.4287106 128.7678298  81.6180857 127.2911557
 127.6747054  81.5754396 128.3376447 120.8003314  68.0364554 131.6505793
 120.4600135  67.2372367 132.0526473 120.0942320  68.3366265 131.0782626
 121.4519786  65.1213867 130.1033116 122.2745855  64.6474345 129.9812007
 121.6957850  65.9004350 130.6031803 120.0928020  68.1502125 120.3996018
 120.8136383  68.5283378 119.8959735 119.4693325  68.8691002 120.5030996
 124.2359143  68.8547274 121.3354350 124.4522758  69.7371912 121.0343178
 123.7553211  68.4633488 120.6059992 118.9758365  71.8132987 127.9125095
 118.8302945  72.1273290 128.8049376 118.4983568  72.4317888 127.3595993
 120.8354748  68.8035535 127.9605984 120.8216316  67.9076629 127.6238282
 121.5527176  68.8106199 128.5944270 122.6880878  69.2372876 130.0059112
 122.4298656  70.1589946 130.0043442 122.1565919  68.8403310 130.6959576
 127.6327067  82.3423663 122.7849197 127.8063945  81.7770085 122.0323050
 128.1255958  83.1424558 122.6028687 113.4504027  74.3538332 130.8512756
 112.9057495  75.1298140 130.9833030 114.3283377  74.7009136 130.6931877
 120.2391644  67.6849916 123.2293555 120.3607555  66.7566562 123.4284442
 119.9493686  67.6988602 122.3171870 123.1082834  65.3704826 126.3660274
 123.1304531  65.4344159 125.4112254 123.5250893  64.5309335 126.5600781
 133.4866458  75.1060086 124.4039497 133.9297604  74.3567411 124.0058620
 132.6092969  75.0970222 124.0213229 128.6202240  81.6590427 119.8846095
 129.3153144  82.2797120 120.1033410 128.9625390  80.8085778 120.1598473
 114.2370049  73.4808228 133.7442913 113.4951785  73.6290863 134.3307543
 113.9162793  73.7416494 132.8809662 130.5193663  79.1090133 121.4133426
 131.0444987  79.4477405 120.6882746 130.4316015  78.1737148 121.2296561
 122.1813711  83.0224206 133.5423303 122.4900838  82.7773353 134.4146002
 122.9789193  83.2270845 133.0542173 122.2034323  85.1762116 125.7728679
 121.7639314  84.6838495 126.4661536 122.9542440  84.6335084 125.5320755
 114.6826662  81.3673657 125.7753308 115.5084682  81.0677429 125.3951951
 114.3320714  80.5981279 126.2243096 119.6508196  80.7200125 127.8450981
 119.0288205  80.0570830 127.5453209 120.3213063  80.7461257 127.1624629
 112.8835268  79.2859983 126.7342241 112.0467176  78.8582158 126.5526242
 112.8558913  79.4792427 127.6713032 119.7232723  69.1981913 137.4383487
 119.7720879  70.0744036 137.0561257 120.2655237  68.6559306 136.8655130
 130.2087569  79.7423036 136.7184624 129.4183112  79.7247175 136.1789124
 129.9720923  80.2811330 137.4733661 130.3285444  76.5915503 134.0317353
 130.3783449  76.4265510 134.9732876 130.2199367  75.7242762 133.6415234
 119.2121703  79.2704048 121.3209442 119.3609823  79.9539513 120.6676114
 120.0188146  79.2509138 121.8358897 127.6189206  72.5746431 135.3476659
 128.5199069  72.4352895 135.0560657 127.6937181  72.7400885 136.2874837
 121.9532012  69.9513285 134.1929846 121.0835321  70.2446851 133.9212434
 122.1891492  70.5353730 134.9137109 131.8303641  79.0112444 134.2759374
 131.5388449  79.3742425 135.1122835 131.2175772  78.2979452 134.0972706
 133.0299323  76.5765324 126.7961945 133.8646214  77.0155128 126.9599505
 133.1658452  76.1003977 125.9770190 130.0790829  74.1345059 132.7439432
 130.5544951  74.3272705 131.9358284 129.1556394  74.1904245 132.4982816
 116.9674336  75.2969226 122.3270511 116.7220377  74.3931556 122.5250721
 117.1370250  75.2986376 121.3849989 124.6571045  66.1692902 131.7095266
 125.1752989  66.9053929 131.3841755 124.3026178  66.4756896 132.5442025
 116.2369983  71.0297583 119.8256672 115.5439228  71.1041938 119.1696708
 115.9921735  70.2657927 120.3478189 124.9083640  62.5893185 127.2296163
 125.1885393  61.9216374 127.8556589 125.6934246  62.7822280 126.7170827
 122.7117108  81.7652179 118.7921189 122.1391075  82.3842366 118.3391661
 123.2849902  82.3151540 119.3261111 128.7792498  71.0110819 130.9767738
 129.7309921  71.1108916 130.9979962 128.6095948  70.2189087 131.4865822
 126.8006877  68.0966402 131.1627139 126.2056809  68.3771415 130.4673627
 126.5156574  68.5860303 131.9343880 125.9314368  82.0489329 119.9229771
 126.8645041  81.9834891 120.1262647 125.8437581  82.8845596 119.4644304
 128.5602385  81.3655199 116.8833719 128.4816016  81.0315063 117.7769477
 129.3812051  81.8576967 116.8825191 131.2580576  74.2316939 130.0910038
 131.2256896  73.2932939 130.2769721 131.8681199  74.3100975 129.3575862
 123.0963907  73.1012991 116.1337242 124.0423011  72.9719200 116.2025660
 122.7178152  72.3627653 116.6106670 131.4075064  71.0227982 130.1368321
 130.8914113  70.2386439 129.9498250 132.2915013  70.6946699 130.3014840
 129.0685791  64.7668998 126.0964133 128.8710612  64.4584086 126.9807465
 129.6785497  65.4930636 126.2262063 137.0757126  75.2932945 129.2316074
 137.8060514  75.0318233 129.7923778 136.4664071  74.5561667 129.2718142
 135.1572423  73.4340808 129.8290526 134.4305586  73.2996773 129.2207017
 134.7419710  73.7417637 130.6347244 122.9802599  77.1530738 137.5937899
 123.9005609  77.3309337 137.7877945 122.9452182  76.2086783 137.4417598
 121.2806824  71.0262968 116.0692127 120.3738279  70.7296081 116.1454840
 121.5582805  70.7292786 115.2026413 112.1984764  72.3469331 126.5191173
 111.8787548  71.4934639 126.2265547 111.6518192  72.5617909 127.2749141
 115.9764672  75.0631772 130.2360680 116.1950681  75.9948880 130.2548714
 116.3890445  74.7039747 131.0215484 122.8968889  65.5699858 122.2236368
 122.0869618  65.2246943 122.5991614 123.5853306  65.2607401 122.8123980
 124.8259438  64.6477904 123.8460665 125.3790476  65.0673358 124.5050688
 125.0629524  63.7213653 123.8883621 120.8492537  70.6364978 139.6263429
 120.7489264  71.5859335 139.5575520 120.6314079  70.3083217 138.7539499
 120.0505608  67.8849903 116.2104106 120.9124772  68.2104801 116.4699923
 120.2355952  67.0981399 115.6977172 112.0673024  75.9672243 128.4884295
 111.3736496  75.5526196 127.9754249 112.8146015  76.0092779 127.8917714
 128.2038245  66.7578430 123.3539329 127.6236914  67.4163234 122.9717381
 127.9374177  65.9355774 122.9426746 126.6541811  66.1583487 125.5560649
 127.1541590  66.2700022 124.7474968 127.2977419  65.8544540 126.1961458
 120.7123807  74.0662117 138.4428490 120.2290889  74.8662477 138.6492379
 120.7984746  74.0770062 137.4895934 113.9809767  75.8990497 126.3650310
 113.9580455  75.9978184 125.4132193 114.2910403  76.7455647 126.6867476
 116.6397144  77.9566652 130.4796924 117.5940398  77.9250594 130.4126856
 116.4409668  77.4957275 131.2947150 117.2296527  76.5267768 133.0467722
 118.0489416  77.0211846 133.0702559 117.5033334  75.6099736 133.0185289
 126.9863123  68.9178520 122.4095677 126.0988978  69.2028171 122.1915872
 127.4017112  68.7572283 121.5622954 130.3377659  68.9425041 126.1250016
 131.1138049  69.4321493 126.3974633 129.6125793  69.3683095 126.5821886
 132.7750218  69.6552660 127.1823957 133.3694708  69.4148396 126.4717265
 132.8476801  68.9359791 127.8097493 114.9947373  83.4986271 127.4967122
 114.8601841  82.7386672 126.9305120 114.5779436  84.2227171 127.0295911
 126.1306336  78.6823195 116.5043697 126.8342186  78.8873197 117.1201353
 125.4068985  79.2499957 116.7692781 126.9604147  74.4333056 122.6245967
 126.9039348  74.8901607 121.7853600 127.5132489  73.6723740 122.4468810
 130.7708952  70.2222788 123.4496087 130.5145887  69.8219423 124.2804295
 130.1461821  70.9366582 123.3246226 135.0821290  72.9618861 125.9567378
 134.5220848  73.0312050 126.7298940 134.4764794  72.7859846 125.2366875
 118.1516499  84.3955588 127.7085565 118.0348883  85.3401021 127.6064255
 117.3308945  84.0929150 128.0971364 128.0393034  79.1205724 118.5542157
 128.8738638  78.6886922 118.3719632 127.8777377  78.9487737 119.4819052
 127.6938926  75.6237837 119.9198497 127.6387730  75.4582109 118.9786941
 127.0684981  76.3313870 120.0760686 112.4831441  70.8605901 133.7459919
 113.1290304  70.3504855 134.2347144 112.2748592  71.5974583 134.3203344
 125.0084833  77.9286749 139.2452059 125.8775993  78.1027401 138.8838694
 124.5291585  78.7481166 139.1227789 121.0035051  65.1245946 119.4983815
 120.9913721  66.0687786 119.6552086 121.8958473  64.9416092 119.2043276
 119.1771013  85.0483850 130.9241493 120.0798260  85.0807460 131.2407988
 118.9508383  84.1184301 130.9387829 120.9324615  83.8014837 127.5851572
 119.9820246  83.8016698 127.4715944 121.2357101  83.0547571 127.0687606
 124.8187171  61.7188723 123.7529752 124.0519567  61.1647209 123.8986434
 125.2297876  61.7910592 124.6143903 116.8228932  68.0073519 137.8434933
 117.6860393  67.6510323 138.0538258 116.2494343  67.6687413 138.5310337
 136.6677309  89.6375375 128.6497334 137.3055719  89.5182122 127.9460674
 136.5498152  90.5856219 128.7085286 133.4767015  89.5902803 128.5858859
 133.1385527  89.4743868 127.6979394 134.3456783  89.1893968 128.5659865
 129.3353831  91.4438279 124.5755750 128.7718696  91.3528216 123.8072037
 129.2206226  90.6238184 125.0558242 126.8818263  92.9389471 127.4139970
 127.6739555  92.5980296 126.9986269 127.1214913  93.0484446 128.3342123
 134.9153389  95.1109247 119.8870215 134.2641369  95.6963328 119.5004228
 135.7097752  95.6415442 119.9465252 128.8409017  92.1998384 120.2857349
 129.6139893  91.6527371 120.1470225 129.1934416  93.0642634 120.4971810
 131.6050266  90.9051615 130.0825608 132.2013838  90.6807637 129.3682571
 131.6625238  90.1636361 130.6851056 131.1775294  88.3591050 117.9175799
 131.4300815  87.8372572 117.1559262 130.2399854  88.1957196 118.0202482
 136.2218577  87.3626829 125.7250542 137.0081667  86.9446252 125.3740959
 136.4857282  88.2672921 125.8932190 136.3928655  92.7999679 120.4239199
 135.7574488  92.8734306 121.1360104 136.0626061  93.3893278 119.7458278
 141.6227004  87.3002062 126.6283521 142.3552176  86.7301279 126.8621350
 140.8666360  86.9123662 127.0690026 130.8971583  90.2619156 120.1200174
 130.7807841  89.5864060 120.7881258 131.0073843  89.7751530 119.3032327
 133.2403124  89.7229303 123.8246863 132.8761331  89.1959924 124.5359785
 134.0970240  89.3327773 123.6513348 139.1452425  81.0123636 131.0878129
 138.8135750  81.8819047 130.8639344 138.5498038  80.6959920 131.7672160
 132.8808611  84.7519203 118.8208212 133.0483013  85.6199440 119.1878683
 132.6905780  84.9146485 117.8969501 129.0896426  89.6649979 126.5210746
 128.1646922  89.5326193 126.7288438 129.3380839  90.4444198 127.0180689
 139.0381088  85.7318722 128.1671479 138.1297965  85.6634131 127.8730240
 138.9868684  86.2090667 128.9953305 132.8597832  87.2076861 119.8054878
 132.7397457  87.6533911 120.6440359 132.1650420  87.5562178 119.2468417
 126.4505237  89.3083252 127.3554535 126.5797618  89.5617731 128.2693947
 125.7702688  89.9010960 127.0359190 130.6204724  99.9780502 123.4545010
 130.5428754 100.9288327 123.5333490 130.0166368  99.6326375 124.1119936
 140.9042734  83.9335161 129.9449353 140.2617115  84.2267694 129.2989148
 140.3997663  83.8188081 130.7502550 138.5582898  87.6798334 120.6335212
 139.4700754  87.9125721 120.4582910 138.0492545  88.2635378 120.0710291
 133.1954736  87.0395568 131.6430062 134.0415931  87.4634982 131.7864711
 133.1353374  86.3829193 132.3368625 135.9018873  83.8556370 128.8825073
 135.0403352  84.1537623 129.1741811 135.9281308  84.0726769 127.9506106
 132.7180442  92.3998560 125.2898879 133.1818788  92.6786263 124.5003501
 132.4537240  91.4982005 125.1071970 129.6104523  91.9470042 128.2278642
 130.1805880  92.3757310 127.5896127 130.2012635  91.6652627 128.9262828
 131.6549328  88.5221713 122.0988444 132.3573372  88.9742756 122.5662370
 131.3229957  87.8805532 122.7268337 125.3974662  86.7805265 127.4005578
 124.6073716  87.0362794 126.9245688 125.8885910  87.5953603 127.5057618
 127.3489408  87.1449845 124.3589054 126.5520571  87.2568539 124.8772550
 127.1215000  87.4836497 123.4929945 123.6812365  87.0335756 129.8320568
 123.9320404  87.9182766 130.0978144 124.2171914  86.8540357 129.0595660
 132.8943093  95.3362655 122.1750549 132.7588768  96.1814191 122.6035397
 133.4352906  95.5381933 121.4116483 126.3472490  92.8538093 122.7478474
 126.8597011  93.6481344 122.8984039 126.9995203  92.1564384 122.6812076
 128.1567375  95.9703850 124.8301228 128.3334003  96.8921814 124.6422212
 128.9524209  95.6562269 125.2595607 127.4419732  88.0168482 134.7063391
 127.3273247  87.1153739 135.0070490 126.5864249  88.2632178 134.3548207
 136.2435557  78.8593217 130.7049443 135.8999826  79.7494859 130.6288553
 136.6114519  78.6694875 129.8419028 124.3121407  91.1826748 123.5238045
 125.1496629  91.5923756 123.3071753 124.4899675  90.2426190 123.4938239
 136.2085839  88.8501828 119.2121878 135.6932463  89.6206433 119.4510265
 135.9363148  88.1766965 119.8354939 133.7932950  83.6951529 124.2707116
 132.9374547  83.3058380 124.0912755 134.2059902  83.7743490 123.4106902
 135.3232097  81.2297872 128.6698676 134.8196893  81.1928008 127.8566481
 135.6162704  82.1390615 128.7295333 131.5674983  81.3136602 127.6764858
 132.4327980  81.1179411 127.3170747 131.6352492  81.0846954 128.6034215
 141.1820113  91.6034183 121.1475051 140.4049556  91.2645342 120.7030213
 141.8611594  91.6086806 120.4730016 135.9972142  86.7228920 121.0381659
 135.6922278  87.0375070 121.8891802 136.9502585  86.8010340 121.0808992
 134.4418574  92.8819144 122.6874613 133.9139936  92.1471903 122.3747851
 133.9406077  93.6593820 122.4414581 129.1737302  83.5438810 125.0481225
 129.7481054  83.3213992 124.3154418 129.7608284  83.6127505 125.8009826
 138.2316879  89.4312537 125.8545601 138.7448761  90.0642529 126.3567311
 138.8818103  88.8313732 125.4888961 129.5006889  85.5743271 119.0677110
 128.6644201  85.9117958 119.3886385 129.3611659  85.4392251 118.1304247
 131.4759970  80.4180059 123.7756294 130.8224382  80.1029076 123.1512909
 131.4340444  79.7955799 124.5016117 132.5871174  90.6999354 115.6909586
 131.6798236  90.4688607 115.8900735 133.0842206  89.9036973 115.8783568
 135.4939253  99.4096861 118.6106272 134.8200952  99.7128558 119.2191230
 135.8805075 100.2125942 118.2611729 134.7097710  86.9061992 128.1003942
 133.7920271  87.1276940 127.9425630 135.1257854  86.9808303 127.2415649
 135.4932758  88.3053408 123.2306622 136.2404577  88.8174805 122.9213744
 135.7624347  87.9837461 124.0911015 133.7659408  90.8011949 120.2133576
 132.8570627  90.5170982 120.3106046 133.7954492  91.2211027 119.3536883
 138.9978675  94.4118538 123.9824744 138.5441002  93.5709448 124.0389934
 138.3672642  95.0479937 124.3199524 137.9411595  85.3410524 125.2125411
 137.2034352  84.8287911 125.5435654 138.1938368  84.9010906 124.4008688
 137.4411615  96.2495035 124.9174562 137.7334589  96.8100092 124.1986928
 137.9510235  96.5423596 125.6727721 138.0423222  78.1186776 125.8067180
 138.3482099  77.2584140 125.5193096 138.7675827  78.7104397 125.6066174
 124.3347578  88.5217463 124.1948778 124.1371978  87.9286824 123.4699845
 123.7794242  88.2169673 124.9124717 132.3144302  88.4140570 126.3143372
 132.3692912  87.4614406 126.2385848 131.5035504  88.5700009 126.7984670
 133.4635496  92.3420693 117.5521655 133.0254926  91.6256551 117.0927292
 134.2045937  92.5696807 116.9906746 130.2536662  87.0317629 124.0733750
 129.4404527  87.3311800 124.4798943 130.7495656  86.6373318 124.7908233
 132.4045240  97.0275386 126.0068015 132.3621419  97.2536232 125.0776547
 133.3207939  96.7938761 126.1553816 141.5808611  90.6177890 123.6097973
 141.4426509  90.8079486 122.6819163 141.2244829  91.3797272 124.0666024
 129.7450737  84.6035985 129.6894985 130.3850116  84.4624744 128.9917949
 128.9128267  84.3170498 129.3133587 130.5211041  93.9038415 125.8029978
 131.3151639  93.4088735 125.6012553 129.8102733  93.3756278 125.4397683
 126.8293804  88.0481497 121.8789731 125.8991392  87.9865952 122.0959693
 126.9251276  87.5257450 121.0826372 126.7479353  84.5736310 124.4667972
 127.0086170  85.4881643 124.3577133 127.5696525  84.1060752 124.6164585
 128.2204278  85.9874067 131.6366797 128.8927332  85.7791429 130.9879446
 127.3934065  85.7896153 131.1972029 134.1229850  82.6136008 133.6532458
 133.4757765  83.3125958 133.5596934 134.8930866  83.0472152 134.0208706
 133.6930469  99.5776534 120.8253351 133.8682224  99.1064577 121.6398974
 133.0063257 100.2042300 121.0534612 134.6487532  93.8549040 126.8716653
 134.3137364  93.8149810 127.7674303 134.1491477  93.1893756 126.3987063
 128.6231776  89.2616670 132.3969234 128.4851574  88.5296909 132.9980773
 129.5336699  89.1725570 132.1153422 137.5846723  91.2005074 117.1453712
 136.9675894  90.4751902 117.0486765 137.1163212  91.9614434 116.8020787
 129.9643010  85.9601847 133.7048553 129.4280367  85.5092586 134.3570149
 129.3759719  86.0947756 132.9619017 129.3745269  85.4190499 116.2675017
 128.4974736  85.2979299 115.9037263 129.8503022  84.6276577 116.0153905
 120.8947409  90.2067658 126.3616524 121.5818449  89.8929388 125.7737539
 120.7395538  91.1109023 126.0883775 125.6982132  85.0957855 130.7901547
 125.6140320  84.4883524 130.0551957 124.8764838  85.5866873 130.7911044
 132.5609195  97.7716789 123.5137537 131.7776717  98.3138469 123.6075762
 133.2601940  98.2890769 123.9131778 135.8705845  83.5811418 126.1571743
 136.3674545  82.8281381 125.8372813 135.0992827  83.6175735 125.5914952
 136.9535626  92.3383106 123.7310166 136.0191905  92.4584568 123.5614870
 137.1312295  91.4355572 123.4670176 132.4540814  85.7228801 125.8843427
 132.0838602  85.1699842 126.5724333 132.9499907  85.1186935 125.3318427
 140.3408177  88.1800425 124.2660200 140.8068630  89.0128416 124.1920503
 140.7915678  87.7145406 124.9705459 138.4084409  94.5244246 121.2646352
 138.6844252  94.4100841 122.1740226 137.5388907  94.1261731 121.2258525
 138.3124840  80.5481012 128.3051101 137.3987920  80.7785239 128.4733308
 138.7417942  80.6319456 129.1565134 135.0438473  98.7730597 124.9079166
 135.2260867  97.9552253 125.3706918 135.8671459  98.9898289 124.4704056
 135.3780638  97.6998782 122.1694214 135.9068404  97.1891237 121.5564376
 135.6408858  97.3841312 123.0339747 125.8797731  95.7162651 129.9129548
 126.4651168  94.9706339 130.0457452 125.6822569  96.0266608 130.7966212
 128.7336386  98.7513899 124.9291990 128.0646761  99.2360026 124.4456030
 128.5949256  98.9983119 125.8435369 120.4715386  88.2868252 128.6333991
 120.5099485  87.7531842 129.4271109 119.9655678  87.7603457 128.0144968
 127.8506148  83.1332792 132.1296533 127.9147474  83.9947623 131.7173931
 127.7873268  82.5206794 131.3968892 127.3258420  85.2055925 135.7769567
 127.9530459  84.8233002 136.3907092 126.4686339  84.9870127 136.1425260
 124.1023963  87.0132354 121.7087922 124.3977404  86.1043032 121.6554976
 123.2011999  86.9920093 121.3868925 127.6318210  85.0888350 127.6915471
 126.9104796  85.7024318 127.5522944 128.4211466  85.6246115 127.6132117
 130.4344524  82.4242777 133.9656123 130.9578925  82.6705073 134.7282432
 130.2156857  83.2562812 133.5459260 125.8311805  84.6946451 121.8327247
 125.5024511  83.8143830 121.6502353 126.1851175  84.6394120 122.7203637
 135.0791384  96.3301354 126.3422233 134.9316346  95.4018062 126.5229803
 135.9044877  96.3521445 125.8579308 128.9453628  84.9819421 122.2002725
 129.2849700  85.5105342 121.4781333 129.3925748  85.3199827 122.9761292
 131.6397069  83.3656472 131.6505793 131.2993889  82.5664285 132.0526473
 130.9336075  83.6658183 131.0782626 132.2913540  80.4505784 130.1033116
 133.1139610  79.9766263 129.9812007 132.5351604  81.2296268 130.6031803
 130.9321775  83.4794043 120.3996018 131.6530137  83.8575296 119.8959735
 130.3087079  84.1982920 120.5030996 135.0752898  84.1839192 121.3354350
 135.2916512  85.0663830 121.0343178 134.5946965  83.7925405 120.6059992
 129.8152119  87.1424905 127.9125095 129.6696700  87.4565208 128.8049376
 129.3377323  87.7609805 127.3595993 131.6748502  84.1327453 127.9605984
 131.6610071  83.2368546 127.6238282 132.3920930  84.1398117 128.5944270
 133.5274633  84.5664793 130.0059112 133.2692411  85.4881864 130.0043442
 132.9959673  84.1695228 130.6959576 138.4720822  97.6715580 122.7849197
 138.6457699  97.1062003 122.0323050 138.9649713  98.4716475 122.6028687
 124.2897781  89.6830249 130.8512756 123.7451249  90.4590057 130.9833030
 125.1677131  90.0301054 130.6931877 131.0785398  83.0141833 123.2293555
 131.2001309  82.0858479 123.4284442 130.7887440  83.0280519 122.3171870
 133.9476588  80.6996744 126.3660274 133.9698285  80.7636077 125.4112254
 134.3644647  79.8601252 126.5600781 144.3260213  90.4352003 124.4039497
 144.7691359  89.6859328 124.0058620 143.4486723  90.4262140 124.0213229
 139.4595994  96.9882345 119.8846095 140.1546899  97.6089037 120.1033410
 139.8019144  96.1377696 120.1598473 125.0763803  88.8100146 133.7442913
 124.3345539  88.9582781 134.3307543 124.7556548  89.0708411 132.8809662
 141.3587417  94.4382050 121.4133426 141.8838741  94.7769323 120.6882746
 141.2709770  93.5029066 121.2296561 125.5220417  96.6965574 125.7753308
 126.3478437  96.3969346 125.3951951 125.1714469  95.9273197 126.2243096
 130.4901950  96.0492043 127.8450981 129.8681959  95.3862748 127.5453209
 131.1606817  96.0753175 127.1624629 123.7229022  94.6151901 126.7342241
 122.8860930  94.1874075 126.5526242 123.6952667  94.8084344 127.6713032
 130.0515457  94.5995966 121.3209442 130.2003577  95.2831430 120.6676114
 130.8581900  94.5801056 121.8358897 127.8068090  90.6261144 122.3270511
 127.5614132  89.7223474 122.5250721 127.9764005  90.6278294 121.3849989
 135.4964800  81.4984820 131.7095266 136.0146744  82.2345847 131.3841755
 135.1419933  81.8048813 132.5442025 127.0763738  86.3589501 119.8256672
 126.3832982  86.4333856 119.1696708 126.8315489  85.5949845 120.3478189
 135.7477394  77.9185103 127.2296163 136.0279148  77.2508292 127.8556589
 136.5328001  78.1114198 126.7170827 133.5510863  97.0944096 118.7921189
 132.9784830  97.7134284 118.3391661 134.1243656  97.6443458 119.3261111
 137.6400632  83.4258320 131.1627139 137.0450564  83.7063332 130.4673627
 137.3550329  83.9152221 131.9343880 136.7708122  97.3781247 119.9229771
 137.7038795  97.3126808 120.1262647 136.6831335  98.2137513 119.4644304
 139.3996139  96.6947117 116.8833719 139.3209771  96.3606980 117.7769477
 140.2205806  97.1868885 116.8825191 133.9357661  88.4304909 116.1337242
 134.8816766  88.3011117 116.2025660 133.5571906  87.6919571 116.6106670
 139.9079546  80.0960915 126.0964133 139.7104367  79.7876003 126.9807465
 140.5179251  80.8222554 126.2262063 132.1200578  86.3554886 116.0692127
 131.2132034  86.0587998 116.1454840 132.3976559  86.0584704 115.2026413
 123.0378519  87.6761249 126.5191173 122.7181303  86.8226557 126.2265547
 122.4911947  87.8909827 127.2749141 126.8158426  90.3923690 130.2360680
 127.0344436  91.3240798 130.2548714 127.2284200  90.0331664 131.0215484
 133.7362644  80.8991775 122.2236368 132.9263372  80.5538860 122.5991614
 134.4247061  80.5899319 122.8123980 135.6653192  79.9769822 123.8460665
 136.2184231  80.3965275 124.5050688 135.9023279  79.0505570 123.8883621
 130.8899363  83.2141821 116.2104106 131.7518527  83.5396719 116.4699923
 131.0749707  82.4273317 115.6977172 122.9066779  91.2964160 128.4884295
 122.2130250  90.8818113 127.9754249 123.6539770  91.3384697 127.8917714
 139.0431999  82.0870347 123.3539329 138.4630668  82.7455151 122.9717381
 138.7767932  81.2647692 122.9426746 137.4935566  81.4875405 125.5560649
 137.9935344  81.5991939 124.7474968 138.1371174  81.1836458 126.1961458
 124.8203521  91.2282414 126.3650310 124.7974209  91.3270102 125.4132193
 125.1304158  92.0747565 126.6867476 127.4790899  93.2858569 130.4796924
 128.4334153  93.2542512 130.4126856 127.2803423  92.8249193 131.2947150
 137.8256877  84.2470438 122.4095677 136.9382732  84.5320088 122.1915872
 138.2410866  84.0864201 121.5622954 141.1771413  84.2716959 126.1250016
 141.9531804  84.7613411 126.3974633 140.4519548  84.6975013 126.5821886
 143.6143972  84.9844578 127.1823957 144.2088463  84.7440314 126.4717265
 143.6870556  84.2651708 127.8097493 125.8341128  98.8278189 127.4967122
 125.6995596  98.0678590 126.9305120 125.4173190  99.5519089 127.0295911
 136.9700091  94.0115112 116.5043697 137.6735941  94.2165115 117.1201353
 136.2462740  94.5791874 116.7692781 137.7997901  89.7624974 122.6245967
 137.7433102  90.2193525 121.7853600 138.3526244  89.0015658 122.4468810
 141.6102707  85.5514705 123.4496087 141.3539641  85.1511341 124.2804295
 140.9855575  86.2658499 123.3246226 145.9215045  88.2910779 125.9567378
 145.3614603  88.3603968 126.7298940 145.3158548  88.1151763 125.2366875
 138.8786788  94.4497641 118.5542157 139.7132392  94.0178840 118.3719632
 138.7171131  94.2779655 119.4819052 138.5332680  90.9529755 119.9198497
 138.4781484  90.7874026 118.9786941 137.9078736  91.6605788 120.0760686
 123.3225195  86.1897819 133.7459919 123.9684059  85.6796773 134.2347144
 123.1142346  86.9266501 134.3203344 131.8428806  80.4537864 119.4983815
 131.8307476  81.3979704 119.6552086 132.7352228  80.2708009 119.2043276
 135.6580925  77.0480640 123.7529752 134.8913321  76.4939127 123.8986434
 136.0691630  77.1202509 124.6143903 142.0169049 103.6882968 117.9175799
 142.2694570 103.1664489 117.1559262 141.0793608 103.5249114 118.0202482
 143.7202366 100.0811121 118.8208212 143.8876768 100.9491357 119.1878683
 143.5299535 100.2438403 117.8969501 140.3400644 100.9035189 119.0677110
 139.5037956 101.2409875 119.3886385 140.2005413 100.7684169 118.1304247
 142.3153724  95.7471977 123.7756294 141.6618136  95.4320994 123.1512909
 142.2734198  95.1247717 124.5016117 143.4264929 106.0291272 115.6909586
 142.5191991 105.7980525 115.8900735 143.9235961 105.2328891 115.8783568
 140.2139024 100.7482416 116.2675017 139.3368490 100.6271217 115.9037263
 140.6896777  99.9568494 116.0153905 134.9417718 102.3424271 121.7087922
 135.2371159 101.4334950 121.6554976 134.0405753 102.3212011 121.3868925
 136.6705559 100.0238369 121.8327247 136.3418265  99.1435748 121.6502353
 137.0244930  99.9686038 122.7203637 141.7715529  98.8085960 120.3996018
 142.4923892  99.1867213 119.8959735 141.1480834  99.5274837 120.5030996
 137.9157492 101.6881419 119.8256672 137.2226737 101.7625774 119.1696708
 137.6709244 100.9241762 120.3478189 144.7751416 103.7596827 116.1337242
 145.7210520 103.6303035 116.2025660 144.3965660 103.0211489 116.6106670
 142.9594333 101.6846803 116.0692127 142.0525788 101.3879916 116.1454840
 143.2370314 101.3876621 115.2026413 144.5756398  96.2283693 122.2236368
 143.7657127  95.8830778 122.5991614 145.2640815  95.9191237 122.8123980
 141.7293117  98.5433738 116.2104106 142.5912281  98.8688637 116.4699923
 141.9143461  97.7565234 115.6977172 142.6822560  95.7829781 119.4983815
 142.6701230  96.7271621 119.6552086 143.5745982  95.5999927 119.2043276
  76.4235953   0.3383037 110.1790316  76.3459983   1.2890862 110.2578797
  75.8197596  -0.0071091 110.8365243  75.0829919  -2.1515442 117.5556877
  75.6337344  -2.2798379 116.7833871  74.2441395  -1.8520553 117.2051769
  81.2970482  -0.2300605 105.3351579  80.6232181   0.0731092 105.9436537
  81.6836304   0.5728476 104.9857036  79.4961697  -0.0620932 107.5498658
  79.6713453  -0.5332889 108.3644281  78.8094485   0.5644834 107.7779919
  74.0622783   3.0868431 114.3238518  74.3019381   3.7186955 115.0017537
  73.2191979   2.7356471 114.6103878  78.5750644  -1.1052447 116.7280022
  78.5020816  -0.2997475 117.2399327  78.1328038  -0.9060481 115.9028044
  78.3640424  -1.8680677 110.2382844  77.5807946  -1.3258997 110.3321068
  79.0633169  -1.3506697 110.6377085  81.0349328  -1.2065613 118.8838181
  81.7477300  -0.5718148 118.8114082  80.5439357  -1.1101747 118.0678183
  74.5367615  -0.8883567 111.6537297  73.8677990  -0.4037439 111.1701337
  74.3980485  -0.6414347 112.5680675  78.6772883   1.1460177 118.2519955
  79.2291191   1.3091798 119.0169040  79.0179077   1.7364614 117.5799980
  78.8238695  -1.2881342 120.2668610  79.1325821  -1.5332195 121.1391309
  79.6214177  -1.0834703 119.7787480  78.8459307   0.8656568 112.4973986
  78.4064297   0.3732946 113.1906843  79.5967424   0.3229535 112.2566061
  71.3251646  -2.9431891 112.4998614  72.1509666  -3.2428120 112.1197258
  70.9745698  -3.7124269 112.9488403  69.5260251  -5.0245565 113.4587548
  68.6892159  -5.4523391 113.2771549  69.4983896  -4.8313122 114.3958339
  71.6372357  -0.8119277 114.2212429  71.5026825  -1.5718876 113.6550427
  71.2204419  -0.0878377 113.7541217  74.7941482   0.0850040 114.4330871
  74.6773867   1.0295472 114.3309561  73.9733929  -0.2176398 114.8216670
  75.8195997   0.7378302 117.6486800  76.7223243   0.7701912 117.9653295
  75.5933367  -0.1921247 117.6633135  77.5749599  -0.5090712 114.3096878
  76.6245230  -0.5088850 114.1961251  77.8782085  -1.2557977 113.7932913
  93.3102292   5.3269827 115.3742641  93.9480702   5.2076574 114.6705981
  93.1923135   6.2750671 115.4330593  90.1191998   5.2797255 115.3104165
  89.7810510   5.1638320 114.4224700  90.9881767   4.8788420 115.2905171
  85.9778814   7.1332731 111.3001056  85.4143679   7.0422668 110.5317344
  85.8631209   6.3132636 111.7803549  90.6011781   6.4332107 121.2690371
  90.5900422   6.0384905 120.3970875  90.7632421   5.6998179 121.8624142
  83.5243246   8.6283923 114.1385277  84.3164538   8.2874748 113.7231576
  83.7639896   8.7378898 115.0587430  91.5578373  10.8003699 106.6115521
  90.9066353  11.3857779 106.2249535  92.3522736  11.3309894 106.6710559
  85.4834000   7.8892836 107.0102656  86.2564876   7.3421823 106.8715531
  85.8359399   8.7537085 107.2217117  87.3219043   9.2169218 120.2169555
  87.0308908  10.1214849 120.1016221  87.9576027   9.2585746 120.9313624
  88.2475249   6.5946067 116.8070915  88.8438822   6.3702089 116.0927877
  88.3050221   5.8530812 117.4096362  87.8200278   4.0485502 104.6421105
  88.0725798   3.5267024 103.8804568  86.8824837   3.8851648 104.7447789
  93.0353638   8.4894131 107.1484506  92.3999471   8.5628757 107.8605410
  92.7051044   9.0787730 106.4703585  87.5396567   5.9513608 106.8445480
  87.4232825   5.2758512 107.5126565  87.6498826   5.4645982 106.0277633
  89.8828107   5.4123755 110.5492170  89.5186315   4.8854376 111.2605091
  90.7395223   5.0222224 110.3758655  92.2808928   8.9030634 117.2119349
  91.9809651   9.8055673 117.1035156  91.9359987   8.6362817 118.0640501
  85.7321409   5.3544431 113.2456053  84.8071906   5.2220645 113.4533745
  85.9805822   6.1338650 113.7425995  89.5022815   2.8971313 106.5300185
  89.3822440   3.3428363 107.3685665  88.8075404   3.2456630 105.9713723
  83.0930220   4.9977704 114.0799842  83.2222601   5.2512183 114.9939254
  82.4127671   5.5905412 113.7604497  87.2629707  15.6674954 110.1790316
  87.1853737  16.6182779 110.2578797  86.6591351  15.3220827 110.8365243
  89.7546937   2.8402820 122.8351683  88.9780271   3.3996740 122.8254548
  90.3937500   3.3259603 123.3566553  88.0093309   5.6488273 122.3969650
  88.7507994   6.1873317 122.1204474  87.3030295   6.2754562 122.5541202
  93.4848649   7.7917414 120.9941812  93.8932005   7.3499824 120.2496444
  92.7625911   7.2170041 121.2476005  89.8379719   2.7290020 118.3675369
  90.6840914   3.1529434 118.5110018  89.7778357   2.0723645 119.0613932
  93.8077464   8.3518604 114.7494101  93.1786326   8.5164318 114.0470168
  93.4203126   8.7660214 115.5205065  97.6866696   9.2873042 112.1038464
  97.0017734   9.6671943 111.5535498  97.7710545   9.8968369 112.8370412
  94.9417627   6.9333001 118.7033808  95.1534522   7.5764761 118.0268189
  94.8947376   6.0995318 118.2355738  89.3605426   8.0893012 112.0144186
  89.8243771   8.3680715 111.2248808  89.0962224   7.1876457 111.8317276
  86.2529507   7.6364494 114.9523949  86.8230864   8.0651762 114.3141433
  86.8437619   7.3547079 115.6508135  88.2974312   4.2116165 108.8233751
  88.9998355   4.6637208 109.2907677  87.9654940   3.5699984 109.4513644
  86.7454673   2.8027921 123.1984960  86.1153334   3.4844202 123.4320357
  86.6390761   2.6911003 122.2538098  82.0399646   2.4699717 114.1250884
  81.2498700   2.7257246 113.6490995  82.5310893   3.2848055 114.2302925
  96.0563455   9.8104956 116.8756165  96.8780899   9.4085144 116.5938847
  96.0525858   9.7073191 117.8272281  83.9914391   2.8344297 111.0834361
  83.1945554   2.9462991 111.6017857  83.7639983   3.1730949 110.2175252
  89.8220059   9.3589000 119.0316876  89.8864491   9.8209407 119.8675047
  89.1130983   8.7286365 119.1599185  80.3237349   2.7230208 116.5565875
  80.5745387   3.6077218 116.8223451  80.8596897   2.5434809 115.7840967
  89.5368076  11.0257107 108.8995856  89.4013751  11.8708643 109.3280704
  90.0777889  11.2276385 108.1361790  82.9897474   8.5432545 109.4723781
  83.5021994   9.3375796 109.6229346  83.6420187   7.8458836 109.4057383
  84.7992358  11.6598302 111.5546534  84.9758987  12.5816266 111.3667518
  85.5949192  11.3456721 111.9840914  84.0844715   3.7062933 121.4308697
  83.9698230   2.8048191 121.7315796  83.2289233   3.9526630 121.0793514
  91.1636553  11.6480674 123.0296198  90.7200407  10.8617052 122.7117103
  91.8253766  11.8359824 122.3640089  85.9223674  13.1776475 117.5556877
  86.4731099  13.0493539 116.7833871  85.0835150  13.4771364 117.2051769
  93.2617791  11.9283474 121.0577599  93.2436266  12.7492355 120.5657869
  94.1837711  11.8037549 121.2827740  89.7190845   9.4427603 121.9001108
  90.2519182   8.6815891 121.6700416  89.1904926   9.1501255 122.6425262
  80.9546390   6.8721200 110.2483352  81.7921612   7.2818208 110.0317059
  81.1324658   5.9320642 110.2183545  92.8510823   4.5396280 105.9367185
  92.3357446   5.3100885 106.1755572  92.5788131   3.8661416 106.5600246
  97.8245097   7.2928635 107.8720358  97.0474539   6.9539794 107.4275520
  98.5036578   7.2981258 107.1975323  91.0843558   8.5713596 109.4119920
  90.5564919   7.8366355 109.0993157  90.5831060   9.3488272 109.1659888
  96.0636404   6.7662616 114.5286966  95.4060078   7.4561878 114.6167095
  96.8676803   7.1559048 114.8720952  94.8741862   5.1206989 112.5790908
  95.3873744   5.7536981 113.0812617  95.5243086   4.5208184 112.2134268
  86.1431872   1.2637723 105.7922417  85.3069185   1.6012410 106.1131691
  86.0036642   1.1286703 104.8549553  89.2296158   6.3893806 102.4154893
  88.3223220   6.1583059 102.6146042  89.7267190   5.5931425 102.6028874
  92.1364237  15.0991313 105.3351579  91.4625935  15.4023010 105.9436537
  92.5230059  15.9020393 104.9857036  91.3522693   2.5956444 114.8249248
  90.4345255   2.8171391 114.6670936  91.7682837   2.6702755 113.9660956
  92.1357741   3.9947860 109.9551929  92.8829560   4.5069257 109.6459051
  92.4049331   3.6731913 110.8156322  90.4084391   6.4906401 106.9378883
  89.4995610   6.2065434 107.0351353  90.4379475   6.9105479 106.0782190
  95.6403659  10.1012990 110.7070050  95.1865986   9.2603900 110.7635241
  95.0097625  10.7374389 111.0444831  94.0836598  11.9389487 111.6419869
  94.3759572  12.4994544 110.9232234  94.5935218  12.2318048 112.3973028
  80.9772562   4.2111915 110.9194085  80.7796961   3.6181276 110.1945152
  80.4219226   3.9064125 111.6370024  88.9569285   4.1035021 113.0388678
  89.0117895   3.1508858 112.9631155  88.1460487   4.2594460 113.5229977
  90.1060479   8.0315144 104.2766961  89.6679909   7.3151003 103.8172599
  90.8470920   8.2591259 103.7152053  86.8961645   2.7212081 110.7979057
  86.0829511   3.0206252 111.2044249  87.3920639   2.3267770 111.5153539
  89.0470223  12.7169838 112.7313322  89.0046402  12.9430684 111.8021854
  89.9632922  12.4833213 112.8799123  92.4935857   3.1853906 119.6293951
  92.8485245   3.4125379 120.4888417  93.1407988   3.5172282 119.0071206
  98.2233594   6.3072341 110.3343280  98.0851492   6.4973937 109.4064469
  97.8669813   7.0691724 110.7911331  98.2502973   8.3748869 115.3454551
  98.6839480   8.2824158 116.1937606  98.9634554   8.3506369 114.7074567
  87.1636024   9.5932867 112.5275284  87.9576622   9.0983187 112.3257859
  86.4527716   9.0650730 112.1642990  91.9830868  11.9750963 116.8787652
  92.0367891  12.5441899 117.6465368  91.1145650  12.1452848 116.5141689
  83.4718787   3.7375949 108.6035037  82.5416375   3.6760404 108.8204999
  83.5676259   3.2151902 107.8071678  83.3904336   0.2630762 111.1913279
  83.6511154   1.1776095 111.0822439  84.2121509  -0.2044796 111.3409892
  84.8629262   1.6768519 118.3612103  85.5352315   1.4685881 117.7124752
  84.0359048   1.4790605 117.9217336  99.1118523   8.4172569 117.8787437
  99.3054413   9.3218380 118.1246712  99.0119141   7.9579988 118.7126022
  94.1733632   8.5679312 123.4528317  94.0219138   8.3389864 122.5358401
  94.1638311   9.5249913 123.4659663  90.9418968   6.1411225 118.4374584
  91.8711028   6.2922384 118.2643551  90.5209998   6.2295245 117.5823230
  89.7407300  10.1661889 116.2073122  89.6018386   9.7980673 117.0799060
  88.9521896  10.6809528 116.0357079  90.3355452  15.2670986 107.5498658
  90.5107208  14.7959029 108.3644281  89.6488240  15.8936752 107.7779919
  91.2912515   9.5443492 113.5961959  90.9562348   9.5044262 114.4919609
  90.7916461   8.8788208 113.1232370  85.2656759   4.9511122 119.1214541
  85.1276557   4.2191361 119.7226080  86.1761682   4.8620022 118.8398728
  94.2271707   6.8899526 103.8699019  93.6100877   6.1646354 103.7732072
  93.7588195   7.6508886 103.5266093  87.8939060   4.6631081 118.6098220
  88.6038678   4.0224273 118.5684839  87.8508368   4.9143976 119.5324401
  95.8825838  11.5998434 121.5304799  95.8238384  10.9157655 120.8635382
  96.2845357  12.3417424 121.0785425  86.6067994   1.6496299 120.4293860
  86.0705351   1.1987037 121.0815456  86.0184702   1.7842208 119.6864324
  84.9016537  18.4160348 114.3238518  85.1413135  19.0478872 115.0017537
  84.0585734  18.0648388 114.6103878  95.8843246   9.5638018 119.7618779
  94.9970024   9.2263940 119.8845178  96.4541797   8.8321050 119.9987544
  77.5372393   5.8962110 113.0861830  78.2243433   5.5823840 112.4982846
  77.3820521   6.8003475 112.8129082  82.3407115   0.7852307 117.5146854
  82.2565304   0.1777976 116.7797264  81.5189821   1.2761325 117.5156350
  89.4144399  14.2239471 116.7280022  89.3414570  15.0294442 117.2399327
  88.9721792  14.4231437 115.9028044  89.2034179  13.4611241 110.2382844
  88.4201700  14.0032921 110.3321068  89.9026924  13.9785220 110.6377085
  91.8743082  14.1226305 118.8838181  92.5871055  14.7573770 118.8114082
  91.3833111  14.2190171 118.0678183  93.5960609   8.0277557 110.4555473
  92.6616888   8.1479020 110.2860177  93.7737278   7.1250024 110.1915482
  86.9254996  11.8720748 119.7043752  87.6264456  12.5057231 119.8573146
  86.4550111  12.2135480 118.9439391  95.0509392  10.2138698 107.9891659
  95.3269236  10.0995293 108.8985533  94.1813891   9.8156183 107.9503832
  91.6863456  14.4625049 111.6324472  91.8685850  13.6446705 112.0952225
  92.5096442  14.6792741 111.1949362  92.0205621  13.3893234 108.8939521
  92.5493388  12.8785689 108.2809683  92.2833841  13.0735764 109.7585054
  90.7743855   5.1685167 124.0162339  90.0984492   5.0679296 124.6864714
  91.5971489   5.0124380 124.4798336  82.5222714  11.4057103 116.6374854
  83.1076151  10.6600791 116.7702759  82.3247553  11.7161060 117.5211518
  85.3761369  14.4408351 111.6537297  84.7071745  14.9254478 111.1701337
  85.2374239  14.6877571 112.5680675  77.1140369   3.9762704 115.3579298
  77.1524468   3.4426294 116.1516416  76.6080662   3.4497909 114.7390275
  89.5166638  16.4752094 118.2519955  90.0684946  16.6383716 119.0169040
  89.8572831  17.0656532 117.5799980  83.9683404   0.8950377 122.5014874
  84.5955442   0.5127454 123.1152398  83.1111323   0.6764578 122.8670567
  94.3677512  11.3013352 124.1068610  94.9117416  11.9143310 123.6123564
  93.7864357  11.8592930 124.6235623  80.7448946   2.7026806 108.4333229
  81.0402387   1.7937484 108.3800283  79.8436982   2.6814545 108.1114231
  92.6535025  14.4234070 115.2383637  92.5286165  13.6223810 114.7294583
  93.3114116  14.9180263 114.7497607  84.2743193   0.7782802 114.4160778
  83.5529779   1.3918770 114.2768251  85.0636449   1.3140567 114.3377423
  94.7169934  12.2243090 116.8663187  93.7700269  12.1048441 116.7941514
  95.0652707  11.3365588 116.9489449  82.4736788   0.3840903 108.5572554
  82.1449494  -0.4961718 108.3747660  82.8276159   0.3288572 109.4448943
  91.7216367  12.0195806 113.0667540  91.5741329  11.0912513 113.2475110
  92.5469860  12.0415897 112.5824615  85.5878611   0.6713873 108.9248032
  85.9274684   1.1999794 108.2026640  86.0350732   1.0094279 109.7006598
  95.3250489  12.8424365 114.1532412  96.2497036  12.6367226 114.0156864
  95.1565792  12.5940766 115.0621754  86.4577103   2.8319357 114.6370401
  86.3121683   3.1459660 115.5294683  85.9802306   3.4504257 114.0841300
  95.1145805  13.3610032 109.5094504  95.2882682  12.7956455 108.7568356
  95.6074696  14.1610927 109.3273994  80.9322765   5.3724701 117.5758063
  80.3876233   6.1484509 117.7078337  81.8102115   5.7195506 117.4177184
  96.1020977  12.6776797 106.6091402  96.7971882  13.2983489 106.8278717
  96.4444128  11.8272148 106.8843780  81.7188787   4.4994598 120.4688220
  80.9770523   4.6477233 121.0552850  81.3981531   4.7602863 119.6054969
  98.0012401  10.1276502 108.1378733  98.5263725  10.4663775 107.4128053
  97.9134753   9.1923517 107.9541868  89.6632449  14.0410576 120.2668610
  89.9719576  13.7959723 121.1391309  90.4607931  14.2457214 119.7787480
  89.6853061  16.1948485 112.4973986  89.2458052  15.7024864 113.1906843
  90.4361178  15.6521453 112.2566061  82.1645400  12.3860026 112.4998614
  82.9903420  12.0863798 112.1197258  81.8139452  11.6167649 112.9488403
  87.1326933  11.7386495 114.5696288  86.5106943  11.0757200 114.2698516
  87.8031800  11.7647626 113.8869936  80.3654005  10.3046353 113.4587548
  79.5285914   9.8768527 113.2771549  80.3377651  10.4978796 114.3958339
  97.6906307  10.7609406 123.4429931  96.9001850  10.7433545 122.9034430
  97.4539661  11.2997699 124.1978967  97.8104182   7.6101872 120.7562659
  97.8602187   7.4451880 121.6978182  97.7018105   6.7429131 120.3660540
  86.6940440  10.2890418 108.0454748  86.8428561  10.9725882 107.3921421
  87.5006884  10.2695508 108.5604204  99.3122378  10.0298814 121.0004681
  99.0207187  10.3928794 121.8368142  98.6994510   9.3165822 120.8218013
 100.5118061   7.5951693 113.5207251 101.3464952   8.0341498 113.6844812
 100.6477190   7.1190347 112.7015497  97.5609567   5.1531428 119.4684739
  98.0363688   5.3459075 118.6603590  96.6375132   5.2090614 119.2228123
  84.4493073   6.3155595 109.0515817  84.2039115   5.4117925 109.2496027
  84.6188988   6.3172746 108.1095295  83.7188721   2.0483953 106.5501979
  83.0257966   2.1228308 105.8942015  83.4740473   1.2844297 107.0723496
  90.1935846  12.7838548 105.5166496  89.6209813  13.4028735 105.0636968
  90.7668640  13.3337910 106.0506418  93.4133106  13.0675698 106.6475078
  94.3463779  13.0021260 106.8507953  93.3256318  13.9031965 106.1889611
  96.0421122  12.3841569 103.6079026  95.9634754  12.0501432 104.5014783
  96.8630789  12.8763337 103.6070498  90.5782644   4.1199361 102.8582548
  91.5241749   3.9905569 102.9270966  90.1996889   3.3814023 103.3351976
  90.4621337   8.1717107 124.3183205  91.3824346   8.3495706 124.5123252
  90.4270920   7.2273153 124.1662904  88.7625562   2.0449337 102.7937433
  87.8557017   1.7482450 102.8700147  89.0401543   1.7479156 101.9271720
  79.6803502   3.3655701 113.2436480  79.3606286   2.5121009 112.9510854
  79.1336930   3.5804279 113.9994447  83.4583409   6.0818142 116.9605986
  83.6769419   7.0135250 116.9794020  83.8709183   5.7226116 117.7460790
  88.3311275   1.6551348 126.3508735  88.2308002   2.6045705 126.2820826
  88.1132817   1.3269587 125.4784805  79.5491762   6.9858612 115.2129601
  78.8555233   6.5712565 114.6999556  80.2964753   7.0279149 114.6163020
  88.1942545   5.0848486 125.1673797  87.7109627   5.8848847 125.3737686
  88.2803484   5.0956431 124.2141241  81.4628504   6.9176866 113.0895616
  81.4399193   7.0164553 112.1377499  81.7729141   7.7642017 113.4112782
  84.1215882   8.9753021 117.2042231  85.0759136   8.9436963 117.1372162
  83.9228406   8.5143645 118.0192457  84.7115264   7.5454137 119.7713028
  85.5308153   8.0398216 119.7947866  84.9852072   6.6286105 119.7430596
  82.4766111  14.5172641 114.2212429  82.3420579  13.7573042 113.6550427
  82.0598173  15.2413540 113.7541217  93.6125074   9.7009564 103.2289004
  94.3160924   9.9059567 103.8446659  92.8887723  10.2686326 103.4938087
  94.4422884   5.4519425 109.3491274  94.3858086   5.9087977 108.5098906
  94.9951227   4.6910110 109.1714117  85.6335237  15.4141958 114.4330871
  85.5167621  16.3587390 114.3309561  84.8127683  15.1115519 114.8216670
  95.5211771  10.1392093 105.2787464  96.3557375   9.7073292 105.0964939
  95.3596114   9.9674107 106.2064358  95.1757664   6.6424207 106.6443803
  95.1206467   6.4768478 105.7032247  94.5503719   7.3500240 106.8005993
  79.9650179   1.8792271 120.4705225  80.6109042   1.3691225 120.9592451
  79.7567330   2.6160953 121.0448651  92.4903571   8.9473119 125.9697366
  93.3594730   9.1213771 125.6084001  92.0110322   9.7667535 125.8473095
  86.6589751  16.0670220 117.6486800  87.5616998  16.0993830 117.9653295
  86.4327121  15.1370671 117.6633135  88.4143353  14.8201206 114.3096878
  87.4638984  14.8203068 114.1961251  88.7175839  14.0733941 113.7932913
 104.1496047  20.6561744 115.3742641 104.7874457  20.5368492 114.6705981
 104.0316889  21.6042588 115.4330593 100.9585753  20.6089173 115.3104165
 100.6204264  20.4930237 114.4224700 101.8275521  20.2080338 115.2905171
  96.8172569  22.4624649 111.3001056  96.2537434  22.3714586 110.5317344
  96.7024964  21.6424553 111.7803549 101.4405536  21.7624024 121.2690371
 101.4294177  21.3676823 120.3970875 101.6026175  21.0290097 121.8624142
  94.3637000  23.9575841 114.1385277  95.1558292  23.6166665 113.7231576
  94.6033651  24.0670816 115.0587430 102.3972127  26.1295617 106.6115521
 101.7460107  26.7149697 106.2249535 103.1916490  26.6601812 106.6710559
  96.3227754  23.2184754 107.0102656  97.0958630  22.6713741 106.8715531
  96.6753153  24.0829003 107.2217117  98.1612797  24.5461136 120.2169555
  97.8702663  25.4506767 120.1016221  98.7969781  24.5877664 120.9313624
  99.0869004  21.9237985 116.8070915  99.6832576  21.6994007 116.0927877
  99.1443975  21.1822730 117.4096362  98.6594032  19.3777420 104.6421105
  98.9119553  18.8558941 103.8804568  97.7218591  19.2143565 104.7447789
 103.7037315  18.3813198 112.4495849 104.4900404  17.9632622 112.0986266
 103.9676019  19.2859291 112.6177497 103.8747392  23.8186049 107.1484506
 103.2393225  23.8920675 107.8605410 103.5444799  24.4079647 106.4703585
 109.1045742  18.3188432 113.3528827 109.8370914  17.7487648 113.5866657
 108.3485098  17.9310032 113.7935333  98.3790321  21.2805526 106.8445480
  98.2626579  20.6050429 107.5126565  98.4892581  20.7937900 106.0277633
 100.7221862  20.7415673 110.5492170 100.3580069  20.2146294 111.2605091
 101.5788978  20.3514142 110.3758655 106.6271163  12.0310006 117.8123436
 106.2954487  12.9005417 117.5884651 106.0316776  11.7146290 118.4917466
 100.3627349  15.7705573 105.5453518 100.5301751  16.6385809 105.9123989
 100.1724518  15.9332854 104.6214807 103.1202682  24.2322552 117.2119349
 102.8203405  25.1347590 117.1035156 102.7753742  23.9654735 118.0640501
  96.5715164  20.6836348 113.2456053  95.6465660  20.5512563 113.4533745
  96.8199577  21.4630568 113.7425995 106.5199826  16.7505092 114.8916786
 105.6116703  16.6820500 114.5975547 106.4687422  17.2277037 115.7198611
 100.3416570  18.2263230 106.5300185 100.2216195  18.6720281 107.3685665
  99.6469158  18.5748548 105.9713723  93.9323975  20.3269622 114.0799842
  94.0616356  20.5804101 114.9939254  93.2521426  20.9197330 113.7604497
  98.1023462  30.9966872 110.1790316  98.0247492  31.9474697 110.2578797
  97.4985105  30.6512744 110.8365243 100.5940692  18.1694737 122.8351683
  99.8174026  18.7288658 122.8254548 101.2331255  18.6551520 123.3566553
 108.3861472  14.9521530 116.6694660 107.7435853  15.2454063 116.0234454
 107.8816401  14.8374451 117.4747856 106.0401636  18.6984703 107.3580519
 106.9519492  18.9312090 107.1828217 105.5311283  19.2821748 106.7955598
  98.8487064  20.9780191 122.3969650  99.5901748  21.5165235 122.1204474
  98.1424049  21.6046480 122.5541202 104.3242404  23.1209331 120.9941812
 104.7325760  22.6791742 120.2496444 103.6019665  22.5461959 121.2476005
 100.6773474  18.0581938 118.3675369 101.5234669  18.4821352 118.5110018
 100.6172111  17.4015562 119.0613932 104.6471218  23.6810522 114.7494101
 104.0180081  23.8456236 114.0470168 104.2596880  24.0952131 115.5205065
 108.5260450  24.6164960 112.1038464 107.8411488  24.9963861 111.5535498
 108.6104299  25.2260286 112.8370412 103.8272919  15.7186306 120.0256542
 103.5833851  16.4728367 119.4890818 104.1032849  16.0971654 120.8603789
 105.7811382  22.2624919 118.7033808 105.9928277  22.9056679 118.0268189
 105.7341130  21.4287235 118.2355738 103.3837611  14.8742739 115.6070380
 102.5222090  15.1723993 115.8987118 103.4100045  15.0913138 114.6751413
 100.1999180  23.4184930 112.0144186 100.6637526  23.6972633 111.2248808
  99.9355978  22.5168375 111.8317276  97.0923261  22.9656411 114.9523949
  97.6624618  23.3943680 114.3141433  97.6831373  22.6838996 115.6508135
  99.1368066  19.5408082 108.8233751  99.8392110  19.9929126 109.2907677
  98.8048695  18.8991901 109.4513644  97.5848428  18.1319839 123.1984960
  96.9547088  18.8136120 123.4320357  97.4784516  18.0202921 122.2538098
  92.8793400  17.7991635 114.1250884  92.0892454  18.0549164 113.6490995
  93.3704648  18.6139973 114.2302925 106.8957210  25.1396874 116.8756165
 107.7174653  24.7377061 116.5938847 106.8919613  25.0365108 117.8272281
  94.8308146  18.1636214 111.0834361  94.0339309  18.2754908 111.6017857
  94.6033738  18.5022866 110.2175252 100.6613813  24.6880917 119.0316876
 100.7258246  25.1501325 119.8675047  99.9524737  24.0578282 119.1599185
  91.1631103  18.0522125 116.5565875  91.4139142  18.9369135 116.8223451
  91.6990652  17.8726727 115.7840967 114.9863203  21.4835623 113.2241137
 114.2326911  20.9143021 113.0685141 115.1210744  21.4498287 114.1711771
 100.3761831  26.3549025 108.8995856 100.2407506  27.2000561 109.3280704
 100.9171643  26.5568303 108.1361790  96.8629170  12.4340605 125.5610211
  96.4696116  11.8806803 126.2357855  97.6795311  12.7451183 125.9516729
  93.8291228  23.8724463 109.4723781  94.3415749  24.6667713 109.6229346
  94.4813941  23.1750753 109.4057383  95.6386113  26.9890219 111.5546534
  95.8152741  27.9108184 111.3667518  96.4342946  26.6748638 111.9840914
  99.7797131  13.8498484 123.1530468 100.5206845  14.4505637 123.0734930
 100.0115054  13.1076122 122.5948510  94.9238469  19.0354851 121.4308697
  94.8091985  18.1340108 121.7315796  94.0682987  19.2818548 121.0793514
 102.0030307  26.9772591 123.0296198 101.5594161  26.1908970 122.7117103
 102.6647521  27.1651742 122.3640089  96.7617428  28.5068393 117.5556877
  97.3124853  28.3785456 116.7833871  95.9228904  28.8063282 117.2051769
 104.1011545  27.2575391 121.0577599 104.0830021  28.0784272 120.5657869
 105.0231465  27.1329467 121.2827740 100.5584599  24.7719521 121.9001108
 101.0912936  24.0107809 121.6700416 100.0298680  24.4793173 122.6425262
 103.7254294   9.8779587 117.4294749 103.3818564  10.7681228 117.3533860
 104.0933257   9.6881244 116.5664334  91.7940145  22.2013117 110.2483352
  92.6315367  22.6110126 110.0317059  91.9718413  21.2612559 110.2183545
 103.6904577  19.8688198 105.9367185 103.1751201  20.6392803 106.1755572
 103.4181886  19.1953334 106.5600246 101.2751688  14.7137899 110.9952423
 100.4193284  14.3244749 110.8158062 101.6878640  14.7929860 110.1352208
 102.8050835  12.2484242 115.3943983 102.3015630  12.2114377 114.5811788
 103.0981442  13.1576985 115.4540639  99.0493721  12.3322972 114.4010164
  99.9146717  12.1365780 114.0416054  99.1171230  12.1033323 115.3279521
 108.6638851  22.6220553 107.8720358 107.8868294  22.2831712 107.4275520
 109.3430332  22.6273176 107.1975323 103.4790880  17.7415290 107.7626966
 103.1741016  18.0561439 108.6137109 104.4321322  17.8196710 107.8054299
 101.9237312  23.9005513 109.4119920 101.3958674  23.1658273 109.0993157
 101.4224815  24.6780190 109.1659888 106.9030158  22.0954534 114.5286966
 106.2453833  22.7853795 114.6167095 107.7070557  22.4850966 114.8720952
  96.6556040  14.5625180 111.7726531  97.2299792  14.3400361 111.0399724
  97.2427022  14.6313874 112.5255133 105.7135617  20.4498907 112.5790908
 106.2267499  21.0828898 113.0812617 106.3636841  19.8500102 112.2134268
  96.9825627  16.5929641 105.7922417  96.1462939  16.9304327 106.1131691
  96.8430396  16.4578620 104.8549553  98.9578707  11.4366429 110.5001601
  98.3043120  11.1215446 109.8758215  98.9159182  10.8142169 111.2261424
 100.0689912  21.7185724 102.4154893  99.1616974  21.4874977 102.6146042
 100.5660944  20.9223343 102.6028874 102.9757991  30.4283231 105.3351579
 102.3019690  30.7314928 105.9436537 103.3623813  31.2312311 104.9857036
 102.1916448  17.9248362 114.8249248 101.2739009  18.1463309 114.6670936
 102.6076591  17.9994673 113.9660956 102.9751496  19.3239778 109.9551929
 103.7223314  19.8361175 109.6459051 103.2443085  19.0023830 110.8156322
 101.2478146  21.8198318 106.9378883 100.3389365  21.5357351 107.0351353
 101.2773230  22.2397397 106.0782190 106.4797413  25.4304908 110.7070050
 106.0259740  24.5895818 110.7635241 105.8491380  26.0666306 111.0444831
 105.4230333  16.3596894 111.9370718 104.6853089  15.8474280 112.2680960
 105.6757106  15.9197276 111.1253995 104.9230352  27.2681405 111.6419869
 105.2153327  27.8286462 110.9232234 105.4328973  27.5609966 112.3973028
 105.5241960   9.1373146 112.5312487 105.8300837   8.2770509 112.2438402
 106.2494565   9.7290766 112.3311481  91.8166316  19.5403833 110.9194085
  91.6190716  18.9473193 110.1945152  91.2612980  19.2356043 111.6370024
  99.7963040  19.4326939 113.0388678  99.8511650  18.4800775 112.9631155
  98.9854242  19.5886378 113.5229977 100.9454234  23.3607062 104.2766961
 100.5073663  22.6442921 103.8172599 101.6864674  23.5883177 103.7152053
  97.7355400  18.0503999 110.7979057  96.9223265  18.3498169 111.2044249
  98.2314394  17.6559688 111.5153539  99.8863978  28.0461756 112.7313322
  99.8440156  28.2722602 111.8021854 100.8026676  27.8125130 112.8799123
 103.3329611  18.5145823 119.6293951 103.6878999  18.7417296 120.4888417
 103.9801743  18.8464200 119.0071206 109.0627348  21.6364259 110.3343280
 108.9245247  21.8265855 109.4064469 108.7063567  22.3983642 110.7911331
  97.2269474  15.6222354 116.4140292  97.8668854  15.4811113 115.7163255
  96.3947005  15.3356868 116.0378894 109.0896728  23.7040786 115.3454551
 109.5233235  23.6116075 116.1937606 109.8028309  23.6798287 114.7074567
  98.0029778  24.9224785 112.5275284  98.7970377  24.4275105 112.3257859
  97.2921471  24.3942648 112.1642990 102.8224623  27.3042880 116.8787652
 102.8761645  27.8733817 117.6465368 101.9539404  27.4744765 116.5141689
  94.3112542  19.0667866 108.6035037  93.3810130  19.0052322 108.8204999
  94.4070014  18.5443819 107.8071678  94.2298091  15.5922679 111.1913279
  94.4904908  16.5068013 111.0822439  95.0515263  15.1247122 111.3409892
  95.7023016  17.0060437 118.3612103  96.3746070  16.7977799 117.7124752
  94.8752803  16.8082522 117.9217336 109.9512277  23.7464487 117.8787437
 110.1448168  24.6510297 118.1246712 109.8512896  23.2871906 118.7126022
 101.6048588  13.6322377 120.3777764 100.9576503  14.3312327 120.2842241
 102.3749604  14.0658521 120.7454012 105.0127386  23.8971230 123.4528317
 104.8612893  23.6681781 122.5358401 105.0032066  24.8541831 123.4659663
 101.7812723  21.4703142 118.4374584 102.7104783  21.6214302 118.2643551
 101.3603753  21.5587163 117.5823230 100.5801054  25.4953807 116.2073122
 100.4412140  25.1272591 117.0799060  99.7915651  26.0101446 116.0357079
 101.1749206  30.5962903 107.5498658 101.3500962  30.1250946 108.3644281
 100.4881994  31.2228669 107.7779919 102.1306269  24.8735409 113.5961959
 101.7956102  24.8336179 114.4919609 101.6310215  24.2080125 113.1232370
  96.1050513  20.2803039 119.1214541  95.9670311  19.5483278 119.7226080
  97.0155437  20.1911940 118.8398728 105.0665461  22.2191444 103.8699019
 104.4494632  21.4938272 103.7732072 104.5981950  22.9800804 103.5266093
  98.7332814  19.9922999 118.6098220  99.4432433  19.3516191 118.5684839
  98.6902122  20.2435894 119.5324401 106.7219593  26.9290352 121.5304799
 106.6632139  26.2449572 120.8635382 107.1239111  27.6709342 121.0785425
  97.4461748  16.9788217 120.4293860  96.9099105  16.5278955 121.0815456
  96.8578457  17.1134126 119.6864324  95.7410292  33.7452266 114.3238518
  95.9806890  34.3770790 115.0017537  94.8979488  33.3940306 114.6103878
  96.8564007  16.4376868 102.9920323  95.9793473  16.3165669 102.6282570
  97.3321760  15.6462946 102.7399212 106.7237000  24.8929936 119.7618779
 105.8363779  24.5555858 119.8845178 107.2935551  24.1612967 119.9987544
  88.3766147  21.2254028 113.0861830  89.0637187  20.9115758 112.4982846
  88.2214276  22.1295392 112.8129082  93.1800869  16.1144224 117.5146854
  93.0959058  15.5069894 116.7797264  92.3583576  16.6053243 117.5156350
 100.2538153  29.5531388 116.7280022 100.1808325  30.3586360 117.2399327
  99.8115547  29.7523354 115.9028044 100.0427933  28.7903158 110.2382844
  99.2595455  29.3324839 110.3321068 100.7420678  29.3077138 110.6377085
 103.3524583  14.5997788 112.8817049 103.8493283  13.8467750 112.5618119
 102.5811565  14.6362105 112.3160259 111.2054341  20.3038153 114.5235341
 111.1944217  21.1862869 114.1529274 110.3371720  19.9509704 114.3289878
 102.7136837  29.4518222 118.8838181 103.4264809  30.0865687 118.8114082
 102.2226866  29.5482088 118.0678183 104.4354364  23.3569475 110.4555473
 103.5010643  23.4770938 110.2860177 104.6131032  22.4541942 110.1915482
  99.9359552  16.7415171 112.6088734  99.5657339  16.1886211 113.2969639
 100.4318644  16.1373304 112.0563734 107.8226915  19.1986794 110.9905507
 108.2887367  20.0314786 110.9165809 108.2734416  18.7331776 111.6950765
  97.7648751  27.2012666 119.7043752  98.4658210  27.8349149 119.8573146
  97.2943866  27.5427397 118.9439391 105.8903146  25.5430616 107.9891659
 106.1662990  25.4287210 108.8985533 105.0207645  25.1448101 107.9503832
 105.7943578  11.5667381 115.0296408 104.8806658  11.7971608 115.1978615
 106.2236679  11.6505825 115.8810440 105.5650036  19.7557273 117.5296302
 104.9121487  20.0033181 116.8748755 105.9430416  18.9421412 117.1958779
 102.5257210  29.7916967 111.6324472 102.7079605  28.9738622 112.0952225
 103.3490196  30.0084659 111.1949362 102.8599376  28.7185152 108.8939521
 103.3887142  28.2077606 108.2809683 103.1227595  28.4027682 109.7585054
 101.6137609  20.4977084 124.0162339 100.9378247  20.3971214 124.6864714
 102.4365243  20.3416298 124.4798336  93.3616469  26.7349021 116.6374854
  93.9469905  25.9892709 116.7702759  93.1641307  27.0452978 117.5211518
  96.2155124  29.7700268 111.6537297  95.5465499  30.2546396 111.1701337
  96.0767993  30.0169489 112.5680675  87.9534123  19.3054621 115.3579298
  87.9918223  18.7718212 116.1516416  87.4474416  18.7789827 114.7390275
 100.3560392  31.8044012 118.2519955 100.9078700  31.9675633 119.0169040
 100.6966586  32.3948450 117.5799980  95.3324886  14.1519162 118.8541840
  95.3966212  15.0133993 118.4419238  95.2692006  13.5393163 118.1214198
  94.8077158  16.2242294 122.5014874  95.4349197  15.8419372 123.1152398
  93.9505077  16.0056496 122.8670567 105.2071267  26.6305269 124.1068610
 105.7511171  27.2435228 123.6123564 104.6258112  27.1884848 124.6235623
  91.5842701  18.0318723 108.4333229  91.8796142  17.1229402 108.3800283
  90.6830737  18.0106463 108.1114231 103.4928780  29.7525987 115.2383637
 103.3679919  28.9515727 114.7294583 104.1507871  30.2472181 114.7497607
  95.1136948  16.1074720 114.4160778  94.3923534  16.7210688 114.2768251
  95.9030204  16.6432485 114.3377423 105.5563688  27.5535007 116.8663187
 104.6094024  27.4340359 116.7941514 105.9046461  26.6657506 116.9489449
  97.9163261  13.4429146 120.6901429  98.4397663  13.6891443 121.4527739
  97.6975595  14.2749181 120.2704567  93.3130542  15.7132821 108.5572554
  92.9843249  14.8330200 108.3747660  93.6669913  15.6580490 109.4448943
 102.5610121  27.3487724 113.0667540 102.4135084  26.4204431 113.2475110
 103.3863615  27.3707814 112.5824615  96.4272366  16.0005791 108.9248032
  96.7668438  16.5291712 108.2026640  96.8744486  16.3386197 109.7006598
 106.1644243  28.1716282 114.1532412 107.0890791  27.9659144 114.0156864
 105.9959547  27.9232684 115.0621754  99.1215806  14.3842842 118.3751100
  98.7812627  13.5850655 118.7771780  98.4154813  14.6844552 117.8027933
  99.7732278  11.4692154 116.8278423 100.5958348  10.9952632 116.7057313
 100.0170342  12.2482638 117.3277109  98.4140513  14.4980412 107.1241325
  99.1348875  14.8761665 106.6205041  97.7905817  15.2169289 107.2276302
 102.5571636  15.2025561 108.0599657 102.7735250  16.0850199 107.7588485
 102.0765703  14.8111775 107.3305299  97.2970857  18.1611275 114.6370401
  97.1515438  18.4751578 115.5294683  96.8196061  18.7796175 114.0841300
  99.1567240  15.1513823 114.6851291  99.1428809  14.2554916 114.3483589
  99.8739668  15.1584486 115.3189577 101.0093371  15.5851163 116.7304418
 100.7511148  16.5068233 116.7288749 100.4778411  15.1881597 117.4204883
 105.9539559  28.6901950 109.5094504 106.1276437  28.1248372 108.7568356
 106.4468451  29.4902845 109.3273994  91.7716519  20.7016619 117.5758063
  91.2269987  21.4776427 117.7078337  92.6495869  21.0487423 117.4177184
  98.5604136  14.0328203 109.9538861  98.6820047  13.1044849 110.1529749
  98.2706178  14.0466889 109.0417177 101.4295326  11.7183113 113.0905581
 101.4517023  11.7822446 112.1357561 101.8463385  10.8787622 113.2846087
 111.8078951  21.4538373 111.1284804 112.2510097  20.7045698 110.7303927
 110.9305461  21.4448509 110.7458536 106.9414732  28.0068714 106.6091402
 107.6365637  28.6275407 106.8278717 107.2837882  27.1564066 106.8843780
  92.5582541  19.8286515 120.4688220  91.8164277  19.9769151 121.0552850
  92.2375285  20.0894781 119.6054969 108.8406155  25.4568420 108.1378733
 109.3657479  25.7955693 107.4128053 108.7528508  24.5215435 107.9541868
 100.5026204  29.3702493 120.2668610 100.8113330  29.1251640 121.1391309
 101.3001686  29.5749132 119.7787480 100.5246816  31.5240403 112.4973986
 100.0851806  31.0316782 113.1906843 101.2754933  30.9813371 112.2566061
  93.0039155  27.7151944 112.4998614  93.8297175  27.4155716 112.1197258
  92.6533207  26.9459566 112.9488403  97.9720688  27.0678412 114.5696288
  97.3500697  26.4049117 114.2698516  98.6425555  27.0939544 113.8869936
  91.2047760  25.6338270 113.4587548  90.3679668  25.2060445 113.2771549
  91.1771405  25.8270714 114.3958339  98.0445215  15.5460200 124.1628794
  98.0933371  16.4222323 123.7806563  98.5867730  15.0037593 123.5900437
 108.5300061  26.0901323 123.4429931 107.7395605  26.0725462 122.9034430
 108.2933416  26.6289617 124.1978967 108.6497936  22.9393790 120.7562659
 108.6995941  22.7743797 121.6978182 108.5411859  22.0721049 120.3660540
  97.5334195  25.6182336 108.0454748  97.6822315  26.3017800 107.3921421
  98.3400638  25.5987426 108.5604204 105.9401699  18.9224718 122.0721966
 106.8411561  18.7831183 121.7805964 106.0149673  19.0879173 123.0120144
 100.2744504  16.2991573 120.9175152  99.4047813  16.5925139 120.6457741
 100.5103984  16.8832018 121.6382416 110.1516133  25.3590731 121.0004681
 109.8600941  25.7220712 121.8368142 109.5388264  24.6457740 120.8218013
 111.3511815  22.9243611 113.5207251 112.1858707  23.3633415 113.6844812
 111.4870944  22.4482264 112.7015497 108.4003321  20.4823346 119.4684739
 108.8757443  20.6750992 118.6603590 107.4768887  20.5382532 119.2228123
  95.2886828  21.6447513 109.0515817  95.0432870  20.7409843 109.2496027
  95.4582742  21.6464664 108.1095295 102.9783538  12.5171190 118.4340573
 103.4965482  13.2532216 118.1087061 102.6238670  12.8235183 119.2687332
  94.5582475  17.3775871 106.5501979  93.8651720  17.4520226 105.8942015
  94.3134227  16.6136214 107.0723496 103.2296132   8.9371472 113.9541469
 103.5097886   8.2694661 114.5801896 104.0146739   9.1300568 113.4416133
 101.0329600  28.1130466 105.5166496 100.4603567  28.7320653 105.0636968
 101.6062394  28.6629828 106.0506418 107.1004990  17.3589106 117.7013045
 108.0522413  17.4587204 117.7225269 106.9308441  16.5667375 118.2111129
 105.1219370  14.4444689 117.8872445 104.5269302  14.7249702 117.1918934
 104.8369066  14.9338590 118.6589187 104.2526860  28.3967616 106.6475078
 105.1857533  28.3313178 106.8507953 104.1650073  29.2323883 106.1889611
 106.8814877  27.7133486 103.6079026 106.8028508  27.3793350 104.5014783
 107.7024544  28.2055254 103.6070498 109.5793068  20.5795226 116.8155344
 109.5469388  19.6411226 117.0015028 110.1893692  20.6579262 116.0821169
 101.4176399  19.4491279 102.8582548 102.3635504  19.3197487 102.9270966
 101.0390644  18.7105941 103.3351976 109.7287556  17.3706269 116.8613627
 109.2126605  16.5864726 116.6743556 110.6127505  17.0424986 117.0260147
 107.3898283  11.1147285 112.8209440 107.1923105  10.8062373 113.7052772
 107.9997989  11.8408924 112.9507370 115.3969618  21.6411233 115.9561381
 116.1273006  21.3796521 116.5169084 114.7876563  20.9039955 115.9963449
 113.4784915  19.7819095 116.5535832 112.7518079  19.6475060 115.9452324
 113.0632202  20.0895924 117.3592550 101.3015091  23.5009025 124.3183205
 102.2218101  23.6787624 124.5123252 101.2664674  22.5565070 124.1662904
  99.6019316  17.3741255 102.7937433  98.6950771  17.0774368 102.8700147
  99.8795297  17.0771073 101.9271720  90.5197256  18.6947619 113.2436480
  90.2000041  17.8412927 112.9510854  89.9730685  18.9096197 113.9994447
  94.2977164  21.4110060 116.9605986  94.5163174  22.3427167 116.9794020
  94.7102938  21.0518034 117.7460790 101.2181382  11.9178145 108.9481675
 100.4082110  11.5725230 109.3236921 101.9065799  11.6085689 109.5369286
 103.1471930  10.9956192 110.5705971 103.7002969  11.4151645 111.2295994
 103.3842016  10.0691940 110.6128927  99.1705029  16.9843265 126.3508735
  99.0701756  17.9337622 126.2820826  98.9526571  16.6561504 125.4784805
  98.3718101  14.2328190 102.9349413  99.2337265  14.5583089 103.1945230
  98.5568445  13.4459686 102.4222478  90.3885516  22.3150530 115.2129601
  89.6948988  21.9004483 114.6999556  91.1358507  22.3571067 114.6163020
 106.5250737  13.1056717 110.0784636 105.9449406  13.7641521 109.6962688
 106.2586670  12.2834061 109.6672053 104.9754303  12.5061775 112.2805956
 105.4754082  12.6178309 111.4720275 105.6189911  12.2022827 112.9206764
  99.0336299  20.4140404 125.1673797  98.5503381  21.2140764 125.3737686
  99.1197238  20.4248349 124.2141241  92.3022259  22.2468784 113.0895616
  92.2792947  22.3456471 112.1377499  92.6122895  23.0933935 113.4112782
  94.9609637  24.3044939 117.2042231  95.9152890  24.2728881 117.1372162
  94.7622160  23.8435563 118.0192457  95.5509019  22.8746055 119.7713028
  96.3701908  23.3690134 119.7947866  95.8245827  21.9578023 119.7430596
 105.3075615  15.2656807 109.1340984 104.4201470  15.5506458 108.9161179
 105.7229604  15.1050571 108.2868261 108.6590151  15.2903328 112.8495323
 109.4350541  15.7799781 113.1219940 107.9338285  15.7161382 113.3067193
 111.0962710  16.0030947 113.9069264 111.6907201  15.7626683 113.1962572
 111.1689294  15.2838078 114.5342800  93.3159866  29.8464558 114.2212429
  93.1814333  29.0864959 113.6550427  92.8991928  30.5705458 113.7541217
 104.4518829  25.0301482 103.2289004 105.1554679  25.2351484 103.8446659
 103.7281477  25.5978244 103.4938087 105.2816639  20.7811343 109.3491274
 105.2251840  21.2379895 108.5098906 105.8344981  20.0202028 109.1714117
 109.0921445  16.5701075 110.1741394 108.8358379  16.1697711 111.0049601
 108.4674313  17.2844869 110.0491533 113.4033783  19.3097148 112.6812685
 112.8433341  19.3790338 113.4544247 112.7977286  19.1338133 111.9612181
  96.4728991  30.7433875 114.4330871  96.3561376  31.6879308 114.3309561
  95.6521438  30.4407437 114.8216670 106.3605526  25.4684011 105.2787464
 107.1951130  25.0365210 105.0964939 106.1989869  25.2966025 106.2064358
 106.0151418  21.9716124 106.6443803 105.9600222  21.8060396 105.7032247
 105.3897473  22.6792157 106.8005993  90.8043933  17.2084189 120.4705225
  91.4502797  16.6983143 120.9592451  90.5961084  17.9452870 121.0448651
 103.3297325  24.2765036 125.9697366 104.1988485  24.4505689 125.6084001
 102.8504077  25.0959453 125.8473095  99.3247544  11.4724233 106.2229122
  99.3126213  12.4166073 106.3797392 100.2170965  11.2894379 105.9288583
  97.4983506  31.3962137 117.6486800  98.4010752  31.4285747 117.9653295
  97.2720876  30.4662588 117.6633135  99.2537108  30.1493124 114.3096878
  98.3032739  30.1494985 114.1961251  99.5569594  29.4025858 113.7932913
 103.1399663   8.0667010 110.4775058 102.3732059   7.5125497 110.6231741
 103.5510368   8.1388879 111.3389210  95.1441424  14.3551806 124.5680240
  96.0072886  13.9988611 124.7783564  94.5706835  14.0165701 125.2555644
 114.9889801  35.9853662 115.3742641 115.6268211  35.8660410 114.6705981
 114.8710644  36.9334506 115.4330593 111.7979507  35.9381090 115.3104165
 111.4598019  35.8222155 114.4224700 112.6669276  35.5372255 115.2905171
 107.6566323  37.7916567 111.3001056 107.0931188  37.7006504 110.5317344
 107.5418718  36.9716471 111.7803549 112.2799290  37.0915942 121.2690371
 112.2687931  36.6968740 120.3970875 112.4419930  36.3582015 121.8624142
 105.2030755  39.2867758 114.1385277 105.9952047  38.9458583 113.7231576
 105.4427405  39.3962733 115.0587430 113.2365882  41.4587534 106.6115521
 112.5853862  42.0441615 106.2249535 114.0310245  41.9893729 106.6710559
 107.1621509  38.5476672 107.0102656 107.9352385  38.0005659 106.8715531
 107.5146908  39.4120921 107.2217117 109.0006551  39.8753054 120.2169555
 108.7096417  40.7798685 120.1016221 109.6363536  39.9169581 120.9313624
 109.9262758  37.2529902 116.8070915 110.5226331  37.0285925 116.0927877
 109.9837730  36.5114648 117.4096362 109.4987787  34.7069338 104.6421105
 109.7513307  34.1850859 103.8804568 108.5612346  34.5435483 104.7447789
 114.5431070  33.7105116 112.4495849 115.3294159  33.2924539 112.0986266
 114.8069774  34.6151208 112.6177497 114.7141147  39.1477966 107.1484506
 114.0786980  39.2212593 107.8605410 114.3838553  39.7371565 106.4703585
 119.9439497  33.6480349 113.3528827 120.6764669  33.0779566 113.5866657
 119.1878852  33.2601950 113.7935333 109.2184075  36.6097444 106.8445480
 109.1020334  35.9342347 107.5126565 109.3286335  36.1229818 106.0277633
 111.5615616  36.0707591 110.5492170 111.1973824  35.5438212 111.2605091
 112.4182732  35.6806060 110.3758655 117.4664917  27.3601923 117.8123436
 117.1348242  28.2297334 117.5884651 116.8710530  27.0438207 118.4917466
 111.2021103  31.0997490 105.5453518 111.3695506  31.9677727 105.9123989
 111.0118272  31.2624772 104.6214807 113.9596437  39.5614469 117.2119349
 113.6597160  40.4639508 117.1035156 113.6147496  39.2946653 118.0640501
 107.4108918  36.0128266 113.2456053 106.4859415  35.8804480 113.4533745
 107.6593331  36.7922485 113.7425995 117.3593580  32.0797010 114.8916786
 116.4510458  32.0112418 114.5975547 117.3081176  32.5568954 115.7198611
 111.1810324  33.5555148 106.5300185 111.0609949  34.0012199 107.3685665
 110.4862913  33.9040466 105.9713723 104.7717729  35.6561540 114.0799842
 104.9010110  35.9096019 114.9939254 104.0915180  36.2489248 113.7604497
 108.9417216  46.3258790 110.1790316 108.8641246  47.2766615 110.2578797
 108.3378860  45.9804662 110.8365243 111.4334446  33.4986655 122.8351683
 110.6567780  34.0580575 122.8254548 112.0725009  33.9843438 123.3566553
 119.2255227  30.2813448 116.6694660 118.5829607  30.5745981 116.0234454
 118.7210155  30.1666368 117.4747856 116.8795390  34.0276621 107.3580519
 117.7913247  34.2604008 107.1828217 116.3705037  34.6113665 106.7955598
 109.6880818  36.3072108 122.3969650 110.4295503  36.8457152 122.1204474
 108.9817804  36.9338397 122.5541202 115.1636158  38.4501249 120.9941812
 115.5719514  38.0083659 120.2496444 114.4413420  37.8753876 121.2476005
 111.5167228  33.3873856 118.3675369 112.3628423  33.8113269 118.5110018
 111.4565866  32.7307480 119.0613932 115.4864973  39.0102440 114.7494101
 114.8573835  39.1748154 114.0470168 115.0990635  39.4244049 115.5205065
 119.3654205  39.9456877 112.1038464 118.6805243  40.3255779 111.5535498
 119.4498054  40.5552204 112.8370412 114.6666673  31.0478224 120.0256542
 114.4227605  31.8020285 119.4890818 114.9426604  31.4263572 120.8603789
 116.6205136  37.5916836 118.7033808 116.8322031  38.2348596 118.0268189
 116.5734884  36.7579153 118.2355738 114.2231365  30.2034657 115.6070380
 113.3615844  30.5015911 115.8987118 114.2493800  30.4205056 114.6751413
 111.0392935  38.7476848 112.0144186 111.5031280  39.0264551 111.2248808
 110.7749733  37.8460292 111.8317276 107.9317016  38.2948329 114.9523949
 108.5018373  38.7235598 114.3141433 108.5225128  38.0130914 115.6508135
 109.9761821  34.8700000 108.8233751 110.6785864  35.3221044 109.2907677
 109.6442449  34.2283819 109.4513644 108.4242182  33.4611757 123.1984960
 107.7940843  34.1428037 123.4320357 108.3178270  33.3494838 122.2538098
 103.7187155  33.1283553 114.1250884 102.9286209  33.3841081 113.6490995
 104.2098402  33.9431891 114.2302925 117.7350964  40.4688792 116.8756165
 118.5568408  40.0668979 116.5938847 117.7313367  40.3657026 117.8272281
 105.6701900  33.4928132 111.0834361 104.8733063  33.6046826 111.6017857
 105.4427492  33.8314784 110.2175252 111.5007568  40.0172835 119.0316876
 111.5652000  40.4793242 119.8675047 110.7918492  39.3870200 119.1599185
 102.0024858  33.3814043 116.5565875 102.2532896  34.2661053 116.8223451
 102.5384406  33.2018645 115.7840967 125.8256957  36.8127540 113.2241137
 125.0720666  36.2434938 113.0685141 125.9604498  36.7790205 114.1711771
 111.2155585  41.6840943 108.8995856 111.0801260  42.5292478 109.3280704
 111.7565398  41.8860220 108.1361790 107.7022925  27.7632522 125.5610211
 107.3089870  27.2098721 126.2357855 108.5189065  28.0743101 125.9516729
 104.6684983  39.2016381 109.4723781 105.1809503  39.9959631 109.6229346
 105.3207696  38.5042671 109.4057383 106.4779867  42.3182137 111.5546534
 106.6546496  43.2400102 111.3667518 107.2736701  42.0040556 111.9840914
 110.6190886  29.1790402 123.1530468 111.3600599  29.7797555 123.0734930
 110.8508809  28.4368039 122.5948510 105.7632224  34.3646769 121.4308697
 105.6485739  33.4632026 121.7315796 104.9076742  34.6110466 121.0793514
 112.8424062  42.3064509 123.0296198 112.3987916  41.5200888 122.7117103
 113.5041275  42.4943660 122.3640089 107.6011183  43.8360311 117.5556877
 108.1518608  43.7077374 116.7833871 106.7622659  44.1355200 117.2051769
 114.9405300  42.5867309 121.0577599 114.9223775  43.4076190 120.5657869
 115.8625220  42.4621384 121.2827740 111.3978354  40.1011439 121.9001108
 111.9306691  39.3399727 121.6700416 110.8692435  39.8085090 122.6425262
 114.5648049  25.2071504 117.4294749 114.2212318  26.0973146 117.3533860
 114.9327011  25.0173162 116.5664334 102.6333899  37.5305035 110.2483352
 103.4709121  37.9402043 110.0317059 102.8112167  36.5904477 110.2183545
 114.5298332  35.1980116 105.9367185 114.0144955  35.9684720 106.1755572
 114.2575640  34.5245252 106.5600246 112.1145443  30.0429816 110.9952423
 111.2587039  29.6536667 110.8158062 112.5272394  30.1221777 110.1352208
 113.6444589  27.5776160 115.3943983 113.1409385  27.5406295 114.5811788
 113.9375196  28.4868902 115.4540639 109.8887475  27.6614889 114.4010164
 110.7540472  27.4657698 114.0416054 109.9564984  27.4325241 115.3279521
 119.5032606  37.9512470 107.8720358 118.7262048  37.6123630 107.4275520
 120.1824087  37.9565093 107.1975323 114.3184635  33.0707208 107.7626966
 114.0134770  33.3853357 108.6137109 115.2715077  33.1488628 107.8054299
 112.7631067  39.2297431 109.4119920 112.2352428  38.4950191 109.0993157
 112.2618569  40.0072107 109.1659888 117.7423913  37.4246452 114.5286966
 117.0847587  38.1145713 114.6167095 118.5464312  37.8142883 114.8720952
 107.4949794  29.8917097 111.7726531 108.0693546  29.6692279 111.0399724
 108.0820777  29.9605792 112.5255133 116.5529371  35.7790824 112.5790908
 117.0661253  36.4120816 113.0812617 117.2030595  35.1792020 112.2134268
 107.8219381  31.9221558 105.7922417 106.9856694  32.2596245 106.1131691
 107.6824151  31.7870538 104.8549553 109.7972462  26.7658346 110.5001601
 109.1436874  26.4507363 109.8758215 109.7552936  26.1434087 111.2261424
 110.9083667  37.0477641 102.4154893 110.0010729  36.8166895 102.6146042
 111.4054699  36.2515261 102.6028874 113.8151746  45.7575148 105.3351579
 113.1413444  46.0606845 105.9436537 114.2017568  46.5604229 104.9857036
 113.0310202  33.2540280 114.8249248 112.1132764  33.4755227 114.6670936
 113.4470346  33.3286590 113.9660956 113.8145250  34.6531695 109.9551929
 114.5617069  35.1653093 109.6459051 114.0836840  34.3315748 110.8156322
 112.0871900  37.1490236 106.9378883 111.1783119  36.8649269 107.0351353
 112.1166984  37.5689315 106.0782190 117.3191168  40.7596826 110.7070050
 116.8653495  39.9187736 110.7635241 116.6885134  41.3958224 111.0444831
 116.2624087  31.6888812 111.9370718 115.5246844  31.1766198 112.2680960
 116.5150861  31.2489193 111.1253995 115.7624107  42.5973322 111.6419869
 116.0547081  43.1578379 110.9232234 116.2722727  42.8901883 112.3973028
 116.3635715  24.4665064 112.5312487 116.6694591  23.6062427 112.2438402
 117.0888319  25.0582684 112.3311481 102.6560071  34.8695750 110.9194085
 102.4584470  34.2765111 110.1945152 102.1006735  34.5647960 111.6370024
 110.6356794  34.7618857 113.0388678 110.6905404  33.8092693 112.9631155
 109.8247996  34.9178296 113.5229977 111.7847988  38.6898980 104.2766961
 111.3467418  37.9734839 103.8172599 112.5258429  38.9175095 103.7152053
 108.5749154  33.3795916 110.7979057 107.7617020  33.6790087 111.2044249
 109.0708148  32.9851605 111.5153539 110.7257732  43.3753673 112.7313322
 110.6833911  43.6014520 111.8021854 111.6420431  43.1417048 112.8799123
 114.1723366  33.8437741 119.6293951 114.5272754  34.0709214 120.4888417
 114.8195497  34.1756118 119.0071206 119.9021103  36.9656177 110.3343280
 119.7639001  37.1557773 109.4064469 119.5457322  37.7275560 110.7911331
 108.0663229  30.9514272 116.4140292 108.7062608  30.8103031 115.7163255
 107.2340759  30.6648785 116.0378894 119.9290482  39.0332704 115.3454551
 120.3626989  38.9407993 116.1937606 120.6422063  39.0090204 114.7074567
 108.8423533  40.2516702 112.5275284 109.6364131  39.7567023 112.3257859
 108.1315225  39.7234566 112.1642990 113.6618377  42.6334798 116.8787652
 113.7155400  43.2025734 117.6465368 112.7933159  42.8036683 116.5141689
 105.1506296  34.3959784 108.6035037 104.2203884  34.3344240 108.8204999
 105.2463768  33.8735737 107.8071678 105.0691845  30.9214597 111.1913279
 105.3298663  31.8359930 111.0822439 105.8909018  30.4539040 111.3409892
 106.5416771  32.3352354 118.3612103 107.2139824  32.1269716 117.7124752
 105.7146557  32.1374440 117.9217336 120.7906032  39.0756405 117.8787437
 120.9841922  39.9802215 118.1246712 120.6906650  38.6163824 118.7126022
 112.4442343  28.9614295 120.3777764 111.7970258  29.6604245 120.2842241
 113.2143358  29.3950439 120.7454012 115.8521141  39.2263147 123.4528317
 115.7006647  38.9973699 122.5358401 115.8425820  40.1833749 123.4659663
 112.6206477  36.7995060 118.4374584 113.5498537  36.9506220 118.2643551
 112.1997507  36.8879081 117.5823230 111.4194809  40.8245724 116.2073122
 111.2805895  40.4564509 117.0799060 110.6309405  41.3393364 116.0357079
 112.0142961  45.9254821 107.5498658 112.1894716  45.4542864 108.3644281
 111.3275749  46.5520587 107.7779919 112.9700024  40.2027327 113.5961959
 112.6349857  40.1628097 114.4919609 112.4703970  39.5372043 113.1232370
 106.9444268  35.6094957 119.1214541 106.8064066  34.8775196 119.7226080
 107.8549191  35.5203857 118.8398728 115.9059216  37.5483361 103.8699019
 115.2888386  36.8230190 103.7732072 115.4375704  38.3092722 103.5266093
 109.5726569  35.3214916 118.6098220 110.2826187  34.6808109 118.5684839
 109.5295877  35.5727811 119.5324401 117.5613347  42.2582270 121.5304799
 117.5025893  41.5741490 120.8635382 117.9632866  43.0001260 121.0785425
 108.2855503  32.3080134 120.4293860 107.7492860  31.8570873 121.0815456
 107.6972211  32.4426043 119.6864324 106.5804046  49.0744184 114.3238518
 106.8200644  49.7062708 115.0017537 105.7373243  48.7232224 114.6103878
 107.6957762  31.7668786 102.9920323 106.8187228  31.6457587 102.6282570
 108.1715515  30.9754864 102.7399212 117.5630755  40.2221854 119.7618779
 116.6757533  39.8847776 119.8845178 118.1329306  39.4904885 119.9987544
  99.2159902  36.5545945 113.0861830  99.9030942  36.2407676 112.4982846
  99.0608030  37.4587310 112.8129082 104.0194624  31.4436142 117.5146854
 103.9352813  30.8361812 116.7797264 103.1977330  31.9345160 117.5156350
 111.0931908  44.8823306 116.7280022 111.0202079  45.6878278 117.2399327
 110.6509301  45.0815272 115.9028044 110.8821688  44.1195076 110.2382844
 110.0989209  44.6616756 110.3321068 111.5814433  44.6369056 110.6377085
 114.1918338  29.9289706 112.8817049 114.6887037  29.1759668 112.5618119
 113.4205319  29.9654022 112.3160259 122.0448095  35.6330071 114.5235341
 122.0337971  36.5154787 114.1529274 121.1765475  35.2801622 114.3289878
 113.5530591  44.7810140 118.8838181 114.2658564  45.4157605 118.8114082
 113.0620620  44.8774006 118.0678183 115.2748118  38.6861393 110.4555473
 114.3404397  38.8062855 110.2860177 115.4524787  37.7833860 110.1915482
 110.7753306  32.0707089 112.6088734 110.4051094  31.5178129 113.2969639
 111.2712399  31.4665222 112.0563734 118.6620670  34.5278712 110.9905507
 119.1281122  35.3606704 110.9165809 119.1128170  34.0623694 111.6950765
 108.6042505  42.5304584 119.7043752 109.3051964  43.1641067 119.8573146
 108.1337620  42.8719315 118.9439391 116.7296901  40.8722533 107.9891659
 117.0056745  40.7579128 108.8985533 115.8601400  40.4740018 107.9503832
 116.6337332  26.8959299 115.0296408 115.7200412  27.1263526 115.1978615
 117.0630434  26.9797743 115.8810440 116.4043791  35.0849191 117.5296302
 115.7515241  35.3325098 116.8748755 116.7824171  34.2713329 117.1958779
 113.3650965  45.1208884 111.6324472 113.5473359  44.3030540 112.0952225
 114.1883951  45.3376576 111.1949362 113.6993130  44.0477069 108.8939521
 114.2280897  43.5369524 108.2809683 113.9621350  43.7319600 109.7585054
 112.4531364  35.8269002 124.0162339 111.7772001  35.7263131 124.6864714
 113.2758998  35.6708216 124.4798336 104.2010223  42.0640939 116.6374854
 104.7863660  41.3184627 116.7702759 104.0035062  42.3744895 117.5211518
 107.0548878  45.0992186 111.6537297 106.3859254  45.5838314 111.1701337
 106.9161748  45.3461406 112.5680675  98.7927878  34.6346539 115.3579298
  98.8311977  34.1010130 116.1516416  98.2868171  34.1081744 114.7390275
 111.1954147  47.1335930 118.2519955 111.7472455  47.2967551 119.0169040
 111.5360340  47.7240367 117.5799980 106.1718640  29.4811079 118.8541840
 106.2359967  30.3425910 118.4419238 106.1085760  28.8685081 118.1214198
 105.6470913  31.5534212 122.5014874 106.2742951  31.1711289 123.1152398
 104.7898831  31.3348414 122.8670567 116.0465021  41.9597187 124.1068610
 116.5904925  42.5727145 123.6123564 115.4651866  42.5176765 124.6235623
 102.4236455  33.3610641 108.4333229 102.7189896  32.4521319 108.3800283
 101.5224491  33.3398380 108.1114231 114.3322534  45.0817905 115.2383637
 114.2073674  44.2807645 114.7294583 114.9901625  45.5764098 114.7497607
 105.9530702  31.4366638 114.4160778 105.2317288  32.0502605 114.2768251
 106.7423958  31.9724402 114.3377423 116.3957443  42.8826925 116.8663187
 115.4487778  42.7632276 116.7941514 116.7440216  41.9949423 116.9489449
 108.7557016  28.7721064 120.6901429 109.2791418  29.0183361 121.4527739
 108.5369349  29.6041099 120.2704567 104.1524297  31.0424739 108.5572554
 103.8237003  30.1622118 108.3747660 104.5063668  30.9872407 109.4448943
 113.4003876  42.6779641 113.0667540 113.2528838  41.7496349 113.2475110
 114.2257369  42.6999732 112.5824615 107.2666120  31.3297708 108.9248032
 107.6062193  31.8583630 108.2026640 107.7138241  31.6678115 109.7006598
 117.0037998  43.5008200 114.1532412 117.9284545  43.2951061 114.0156864
 116.8353301  43.2524601 115.0621754 109.9609561  29.7134759 118.3751100
 109.6206381  28.9142572 118.7771780 109.2548567  30.0136470 117.8027933
 110.6126033  26.7984072 116.8278423 111.4352102  26.3244550 116.7057313
 110.8564096  27.5774555 117.3277109 109.2534267  29.8272330 107.1241325
 109.9742630  30.2053583 106.6205041 108.6299571  30.5461207 107.2276302
 113.3965390  30.5317479 108.0599657 113.6129005  31.4142117 107.7588485
 112.9159457  30.1403692 107.3305299 108.1364612  33.4903192 114.6370401
 107.9909192  33.8043495 115.5294683 107.6589815  34.1088093 114.0841300
 109.9960994  30.4805740 114.6851291 109.9822563  29.5846834 114.3483589
 110.7133423  30.4876404 115.3189577 111.8487125  30.9143080 116.7304418
 111.5904903  31.8360151 116.7288749 111.3172165  30.5173515 117.4204883
 116.7933314  44.0193868 109.5094504 116.9670191  43.4540290 108.7568356
 117.2862205  44.8194762 109.3273994 102.6110274  36.0308537 117.5758063
 102.0663742  36.8068345 117.7078337 103.4889624  36.3779341 117.4177184
 109.3997890  29.3620121 109.9538861 109.5213802  28.4336767 110.1529749
 109.1099933  29.3758806 109.0417177 112.2689081  27.0475031 113.0905581
 112.2910778  27.1114364 112.1357561 112.6857140  26.2079540 113.2846087
 122.6472705  36.7830291 111.1284804 123.0903851  36.0337616 110.7303927
 121.7699215  36.7740427 110.7458536 117.7808486  43.3360632 106.6091402
 118.4759391  43.9567325 106.8278717 118.1231637  42.4855983 106.8843780
 103.3976296  35.1578433 120.4688220 102.6558032  35.3061068 121.0552850
 103.0769040  35.4186699 119.6054969 119.6799909  40.7860337 108.1378733
 120.2051234  41.1247610 107.4128053 119.5922262  39.8507353 107.9541868
 111.3419958  44.6994411 120.2668610 111.6507085  44.4543558 121.1391309
 112.1395440  44.9041050 119.7787480 111.3640570  46.8532321 112.4973986
 110.9245561  46.3608699 113.1906843 112.1148687  46.3105288 112.2566061
 103.8432909  43.0443862 112.4998614 104.6690929  42.7447634 112.1197258
 103.4926961  42.2751484 112.9488403 108.8114442  42.3970330 114.5696288
 108.1894452  41.7341035 114.2698516 109.4819309  42.4231462 113.8869936
 102.0441514  40.9630188 113.4587548 101.2073423  40.5352362 113.2771549
 102.0165160  41.1562631 114.3958339 108.8838970  30.8752118 124.1628794
 108.9327125  31.7514241 123.7806563 109.4261484  30.3329511 123.5900437
 119.3693816  41.4193241 123.4429931 118.5789359  41.4017380 122.9034430
 119.1327170  41.9581535 124.1978967 119.4891691  38.2685708 120.7562659
 119.5389696  38.1035715 121.6978182 119.3805614  37.4012967 120.3660540
 108.3727949  40.9474253 108.0454748 108.5216070  41.6309718 107.3921421
 109.1794393  40.9279343 108.5604204 116.7795453  34.2516636 122.0721966
 117.6805316  34.1123100 121.7805964 116.8543428  34.4171090 123.0120144
 111.1138258  31.6283490 120.9175152 110.2441568  31.9217056 120.6457741
 111.3497739  32.2123935 121.6382416 120.9909887  40.6882649 121.0004681
 120.6994696  41.0512630 121.8368142 120.3782019  39.9749657 120.8218013
 122.1905570  38.2535529 113.5207251 123.0252461  38.6925333 113.6844812
 122.3264699  37.7774182 112.7015497 119.2397076  35.8115264 119.4684739
 119.7151197  36.0042910 118.6603590 118.3162641  35.8674449 119.2228123
 106.1280582  36.9739431 109.0515817 105.8826624  36.0701761 109.2496027
 106.2976497  36.9756581 108.1095295 113.8177292  27.8463107 118.4340573
 114.3359236  28.5824134 118.1087061 113.4632425  28.1527101 119.2687332
 105.3976230  32.7067788 106.5501979 104.7045475  32.7812143 105.8942015
 105.1527982  31.9428132 107.0723496 114.0689886  24.2663390 113.9541469
 114.3491640  23.5986579 114.5801896 114.8540493  24.4592485 113.4416133
 111.8723355  43.4422384 105.5166496 111.2997322  44.0612571 105.0636968
 112.4456148  43.9921745 106.0506418 117.9398745  32.6881024 117.7013045
 118.8916168  32.7879121 117.7225269 117.7702195  31.8959292 118.2111129
 115.9613124  29.7736607 117.8872445 115.3663056  30.0541620 117.1918934
 115.6762821  30.2630508 118.6589187 115.0920615  43.7259534 106.6475078
 116.0251288  43.6605095 106.8507953 115.0043827  44.5615801 106.1889611
 117.7208631  43.0425404 103.6079026 117.6422263  42.7085268 104.5014783
 118.5418298  43.5347172 103.6070498 120.4186822  35.9087143 116.8155344
 120.3863143  34.9703144 117.0015028 121.0287446  35.9871180 116.0821169
 112.2570153  34.7783196 102.8582548 113.2029258  34.6489405 102.9270966
 111.8784398  34.0397858 103.3351976 120.5681311  32.6998187 116.8613627
 120.0520360  31.9156643 116.6743556 121.4521259  32.3716903 117.0260147
 118.2292038  26.4439202 112.8209440 118.0316859  26.1354291 113.7052772
 118.8391743  27.1700841 112.9507370 126.2363372  36.9703150 115.9561381
 126.9666761  36.7088438 116.5169084 125.6270318  36.2331872 115.9963449
 124.3178669  35.1111013 116.5535832 123.5911833  34.9766978 115.9452324
 123.9025956  35.4187841 117.3592550 112.1408846  38.8300943 124.3183205
 113.0611855  39.0079542 124.5123252 112.1058429  37.8856988 124.1662904
 110.4413070  32.7033173 102.7937433 109.5344526  32.4066286 102.8700147
 110.7189051  32.4062991 101.9271720 101.3591011  34.0239536 113.2436480
 101.0393795  33.1704844 112.9510854 100.8124439  34.2388114 113.9994447
 105.1370918  36.7401977 116.9605986 105.3556928  37.6719085 116.9794020
 105.5496692  36.3809952 117.7460790 112.0575136  27.2470063 108.9481675
 111.2475865  26.9017147 109.3236921 112.7459553  26.9377606 109.5369286
 113.9865684  26.3248109 110.5705971 114.5396723  26.7443563 111.2295994
 114.2235771  25.3983857 110.6128927 110.0098784  32.3135183 126.3508735
 109.9095511  33.2629540 126.2820826 109.7920326  31.9853422 125.4784805
 109.2111855  29.5620108 102.9349413 110.0731019  29.8875006 103.1945230
 109.3962199  28.7751604 102.4222478 101.2279271  37.6442448 115.2129601
 100.5342742  37.2296400 114.6999556 101.9752262  37.6862984 114.6163020
 117.3644492  28.4348634 110.0784636 116.7843161  29.0933439 109.6962688
 117.0980424  27.6125979 109.6672053 115.8148058  27.8353692 112.2805956
 116.3147836  27.9470227 111.4720275 116.4583666  27.5314745 112.9206764
 109.8730054  35.7432322 125.1673797 109.3897135  36.5432682 125.3737686
 109.9590993  35.7540267 124.2141241 103.1416013  37.5760701 113.0895616
 103.1186701  37.6748389 112.1377499 103.4516650  38.4225852 113.4112782
 105.8003391  39.6336856 117.2042231 106.7546645  39.6020799 117.1372162
 105.6015915  39.1727480 118.0192457 106.3902773  38.2037973 119.7713028
 107.2095662  38.6982051 119.7947866 106.6639581  37.2869941 119.7430596
 116.1469370  30.5948725 109.1340984 115.2595225  30.8798375 108.9161179
 116.5623359  30.4342488 108.2868261 119.4983906  30.6195246 112.8495323
 120.2744296  31.1091698 113.1219940 118.7732040  31.0453300 113.3067193
 121.9356464  31.3322865 113.9069264 122.5300955  31.0918601 113.1962572
 122.0083048  30.6129996 114.5342800 104.1553620  45.1756476 114.2212429
 104.0208088  44.4156877 113.6550427 103.7385682  45.8997376 113.7541217
 115.2912583  40.3593400 103.2289004 115.9948433  40.5643402 103.8446659
 114.5675232  40.9270161 103.4938087 116.1210393  36.1103261 109.3491274
 116.0645595  36.5671812 108.5098906 116.6738736  35.3493945 109.1714117
 119.9315199  31.8992993 110.1741394 119.6752133  31.4989628 111.0049601
 119.3068067  32.6136787 110.0491533 124.2427537  34.6389066 112.6812685
 123.6827095  34.7082255 113.4544247 123.6371040  34.4630051 111.9612181
 107.3122746  46.0725793 114.4330871 107.1955130  47.0171225 114.3309561
 106.4915192  45.7699355 114.8216670 117.1999280  40.7975929 105.2787464
 118.0344884  40.3657127 105.0964939 117.0383623  40.6257942 106.2064358
 116.8545173  37.3008042 106.6443803 116.7993976  37.1352313 105.7032247
 116.2291228  38.0084075 106.8005993 101.6437688  32.5376106 120.4705225
 102.2896551  32.0275060 120.9592451 101.4354839  33.2744788 121.0448651
 114.1691080  39.6056954 125.9697366 115.0382239  39.7797606 125.6084001
 113.6897831  40.4251371 125.8473095 110.1641298  26.8016151 106.2229122
 110.1519968  27.7457991 106.3797392 111.0564720  26.6186296 105.9288583
 108.3377260  46.7254055 117.6486800 109.2404507  46.7577665 117.9653295
 108.1114630  45.7954506 117.6633135 110.0930862  45.4785041 114.3096878
 109.1426493  45.4786903 114.1961251 110.3963348  44.7317776 113.7932913
 113.9793418  23.3958928 110.4775058 113.2125813  22.8417414 110.6231741
 114.3904123  23.4680796 111.3389210 105.9835179  29.6843723 124.5680240
 106.8466640  29.3280528 124.7783564 105.4100589  29.3457618 125.2555644
 125.8283556  51.3145580 115.3742641 126.4661966  51.1952327 114.6705981
 125.7104398  52.2626424 115.4330593 122.6373262  51.2673008 115.3104165
 122.2991773  51.1514073 114.4224700 123.5063030  50.8664173 115.2905171
 118.4960078  53.1208484 111.3001056 117.9324943  53.0298421 110.5317344
 118.3812473  52.3008389 111.7803549 123.1193045  52.4207860 121.2690371
 123.1081686  52.0260658 120.3970875 123.2813684  51.6873932 121.8624142
 116.0424509  54.6159676 114.1385277 116.8345801  54.2750501 113.7231576
 116.2821160  54.7254651 115.0587430 124.0759636  56.7879452 106.6115521
 123.4247616  57.3733532 106.2249535 124.8703999  57.3185647 106.6710559
 118.0015263  53.8768589 107.0102656 118.7746139  53.3297576 106.8715531
 118.3540662  54.7412839 107.2217117 119.8400306  55.2044971 120.2169555
 119.5490172  56.1090602 120.1016221 120.4757290  55.2461499 120.9313624
 120.7656513  52.5821820 116.8070915 121.3620085  52.3577842 116.0927877
 120.8231484  51.8406565 117.4096362 120.3381541  50.0361255 104.6421105
 120.5907062  49.5142777 103.8804568 119.4006100  49.8727401 104.7447789
 125.3824824  49.0397034 112.4495849 126.1687913  48.6216457 112.0986266
 125.6463528  49.9443126 112.6177497 125.5534901  54.4769884 107.1484506
 124.9180734  54.5504511 107.8605410 125.2232308  55.0663483 106.4703585
 130.7833251  48.9772267 113.3528827 131.5158423  48.4071484 113.5866657
 130.0272607  48.5893867 113.7935333 120.0577830  51.9389361 106.8445480
 119.9414088  51.2634265 107.5126565 120.1680090  51.4521735 106.0277633
 122.4009371  51.3999508 110.5492170 122.0367578  50.8730129 111.2605091
 123.2576487  51.0097977 110.3758655 128.3058672  42.6893841 117.8123436
 127.9741996  43.5589252 117.5884651 127.7104285  42.3730125 118.4917466
 122.0414858  46.4289408 105.5453518 122.2089260  47.2969644 105.9123989
 121.8512027  46.5916690 104.6214807 124.7990191  54.8906387 117.2119349
 124.4990914  55.7931426 117.1035156 124.4541251  54.6238570 118.0640501
 118.2502673  51.3420184 113.2456053 117.3253169  51.2096398 113.4533745
 118.4987086  52.1214403 113.7425995 128.1987335  47.4088927 114.8916786
 127.2904212  47.3404336 114.5975547 128.1474931  47.8860872 115.7198611
 122.0204079  48.8847066 106.5300185 121.9003704  49.3304116 107.3685665
 121.3256667  49.2332383 105.9713723 115.6111484  50.9853457 114.0799842
 115.7403865  51.2387936 114.9939254 114.9308935  51.5781165 113.7604497
 119.7810971  61.6550707 110.1790316 119.7035001  62.6058532 110.2578797
 119.1772614  61.3096580 110.8365243 122.2728201  48.8278573 122.8351683
 121.4961535  49.3872493 122.8254548 122.9118764  49.3135356 123.3566553
 130.0648981  45.6105366 116.6694660 129.4223361  45.9037899 116.0234454
 129.5603910  45.4958286 117.4747856 127.7189145  49.3568539 107.3580519
 128.6307001  49.5895926 107.1828217 127.2098792  49.9405583 106.7955598
 120.5274573  51.6364026 122.3969650 121.2689257  52.1749070 122.1204474
 119.8211558  52.2630315 122.5541202 126.0029913  53.7793167 120.9941812
 126.4113269  53.3375577 120.2496444 125.2807174  53.2045794 121.2476005
 122.3560983  48.7165773 118.3675369 123.2022178  49.1405187 118.5110018
 122.2959620  48.0599398 119.0613932 126.3258727  54.3394357 114.7494101
 125.6967590  54.5040071 114.0470168 125.9384389  54.7535967 115.5205065
 130.2047959  55.2748795 112.1038464 129.5198997  55.6547696 111.5535498
 130.2891808  55.8844122 112.8370412 125.5060428  46.3770142 120.0256542
 125.2621360  47.1312202 119.4890818 125.7820358  46.7555489 120.8603789
 127.4598891  52.9208754 118.7033808 127.6715786  53.5640514 118.0268189
 127.4128639  52.0871071 118.2355738 125.0625120  45.5326575 115.6070380
 124.2009599  45.8307828 115.8987118 125.0887554  45.7496974 114.6751413
 121.8786689  54.0768765 112.0144186 122.3425035  54.3556468 111.2248808
 121.6143487  53.1752210 111.8317276 118.7710770  53.6240247 114.9523949
 119.3412127  54.0527515 114.3141433 119.3618882  53.3422832 115.6508135
 120.8155575  50.1991918 108.8233751 121.5179618  50.6512961 109.2907677
 120.4836204  49.5575737 109.4513644 119.2635937  48.7903674 123.1984960
 118.6334597  49.4719955 123.4320357 119.1572025  48.6786756 122.2538098
 114.5580909  48.4575470 114.1250884 113.7679963  48.7132999 113.6490995
 115.0492156  49.2723808 114.2302925 128.5744719  55.7980710 116.8756165
 129.3962162  55.3960897 116.5938847 128.5707122  55.6948944 117.8272281
 116.5095654  48.8220050 111.0834361 115.7126818  48.9338744 111.6017857
 116.2821247  49.1606702 110.2175252 122.3401322  55.3464753 119.0316876
 122.4045755  55.8085160 119.8675047 121.6312246  54.7162118 119.1599185
 112.8418612  48.7105961 116.5565875 113.0926651  49.5952971 116.8223451
 113.3778160  48.5310562 115.7840967 136.6650712  52.1419458 113.2241137
 135.9114420  51.5726856 113.0685141 136.7998253  52.1082122 114.1711771
 122.0549340  57.0132860 108.8995856 121.9195015  57.8584396 109.3280704
 122.5959152  57.2152138 108.1361790 118.5416679  43.0924440 125.5610211
 118.1483625  42.5390639 126.2357855 119.3582820  43.4035019 125.9516729
 115.5078737  54.5308298 109.4723781 116.0203258  55.3251549 109.6229346
 116.1601450  53.8334589 109.4057383 117.3173622  57.6474055 111.5546534
 117.4940250  58.5692019 111.3667518 118.1130455  57.3332474 111.9840914
 121.4584640  44.5082319 123.1530468 122.1994354  45.1089472 123.0734930
 121.6902563  43.7659957 122.5948510 116.6025978  49.6938686 121.4308697
 116.4879494  48.7923944 121.7315796 115.7470496  49.9402383 121.0793514
 123.6817816  57.6356427 123.0296198 123.2381670  56.8492805 122.7117103
 124.3435030  57.8235577 122.3640089 118.4404937  59.1652228 117.5556877
 118.9912362  59.0369292 116.7833871 117.6016413  59.4647117 117.2051769
 125.7799054  57.9159227 121.0577599 125.7617530  58.7368108 120.5657869
 126.7018974  57.7913302 121.2827740 122.2372108  55.4303356 121.9001108
 122.7700445  54.6691644 121.6700416 121.7086189  55.1377008 122.6425262
 125.4041803  40.5363422 117.4294749 125.0606073  41.4265064 117.3533860
 125.7720766  40.3465080 116.5664334 113.4727654  52.8596953 110.2483352
 114.3102876  53.2693961 110.0317059 113.6505922  51.9196395 110.2183545
 125.3692086  50.5272033 105.9367185 124.8538709  51.2976638 106.1755572
 125.0969395  49.8537169 106.5600246 122.9539197  45.3721734 110.9952423
 122.0980793  44.9828584 110.8158062 123.3666149  45.4513695 110.1352208
 124.4838344  42.9068077 115.3943983 123.9803139  42.8698212 114.5811788
 124.7768951  43.8160820 115.4540639 120.7281230  42.9906807 114.4010164
 121.5934226  42.7949616 114.0416054 120.7958739  42.7617159 115.3279521
 130.3426360  53.2804388 107.8720358 129.5655803  52.9415547 107.4275520
 131.0217841  53.2857011 107.1975323 125.1578389  48.3999125 107.7626966
 124.8528525  48.7145275 108.6137109 126.1108831  48.4780545 107.8054299
 123.6024821  54.5589349 109.4119920 123.0746183  53.8242108 109.0993157
 123.1012324  55.3364025 109.1659888 128.5817667  52.7538369 114.5286966
 127.9241342  53.4437631 114.6167095 129.3858066  53.1434801 114.8720952
 118.3343549  45.2209015 111.7726531 118.9087301  44.9984196 111.0399724
 118.9214531  45.2897709 112.5255133 127.3923126  51.1082742 112.5790908
 127.9055008  51.7412734 113.0812617 128.0424350  50.5083937 112.2134268
 118.6613136  47.2513476 105.7922417 117.8250448  47.5888163 106.1131691
 118.5217905  47.1162456 104.8549553 120.6366216  42.0950264 110.5001601
 119.9830629  41.7799281 109.8758215 120.5946691  41.4726004 111.2261424
 121.7477421  52.3769559 102.4154893 120.8404483  52.1458812 102.6146042
 122.2448453  51.5807178 102.6028874 124.6545500  61.0867066 105.3351579
 123.9807199  61.3898763 105.9436537 125.0411322  61.8896146 104.9857036
 123.8703957  48.5832197 114.8249248 122.9526518  48.8047144 114.6670936
 124.2864100  48.6578508 113.9660956 124.6539005  49.9823613 109.9551929
 125.4010823  50.4945010 109.6459051 124.9230594  49.6607666 110.8156322
 122.9265655  52.4782154 106.9378883 122.0176874  52.1941187 107.0351353
 122.9560739  52.8981232 106.0782190 128.1584922  56.0888743 110.7070050
 127.7047249  55.2479653 110.7635241 127.5278889  56.7250142 111.0444831
 127.1017842  47.0180729 111.9370718 126.3640598  46.5058116 112.2680960
 127.3544615  46.5781111 111.1253995 126.6017861  57.9265240 111.6419869
 126.8940836  58.4870297 110.9232234 127.1116482  58.2193801 112.3973028
 127.2029469  39.7956981 112.5312487 127.5088346  38.9354345 112.2438402
 127.9282074  40.3874602 112.3311481 113.4953825  50.1987668 110.9194085
 113.2978225  49.6057029 110.1945152 112.9400489  49.8939878 111.6370024
 121.4750549  50.0910774 113.0388678 121.5299159  49.1384611 112.9631155
 120.6641751  50.2470214 113.5229977 122.6241743  54.0190897 104.2766961
 122.1861172  53.3026756 103.8172599 123.3652183  54.2467012 103.7152053
 119.4142909  48.7087834 110.7979057 118.6010774  49.0082005 111.2044249
 119.9101903  48.3143523 111.5153539 121.5651487  58.7045591 112.7313322
 121.5227665  58.9306437 111.8021854 122.4814185  58.4708966 112.8799123
 125.0117120  49.1729659 119.6293951 125.3666508  49.4001132 120.4888417
 125.6589252  49.5048035 119.0071206 130.7414857  52.2948095 110.3343280
 130.6032756  52.4849691 109.4064469 130.3851076  53.0567477 110.7911331
 118.9056983  46.2806190 116.4140292 119.5456363  46.1394949 115.7163255
 118.0734514  45.9940703 116.0378894 130.7684237  54.3624622 115.3454551
 131.2020744  54.2699911 116.1937606 131.4815818  54.3382122 114.7074567
 119.6817287  55.5808620 112.5275284 120.4757886  55.0858940 112.3257859
 118.9708980  55.0526483 112.1642990 124.5012132  57.9626716 116.8787652
 124.5549154  58.5317652 117.6465368 123.6326913  58.1328601 116.5141689
 115.9900051  49.7251702 108.6035037 115.0597639  49.6636157 108.8204999
 116.0857523  49.2027655 107.8071678 115.9085600  46.2506515 111.1913279
 116.1692417  47.1651848 111.0822439 116.7302772  45.7830957 111.3409892
 117.3810525  47.6644272 118.3612103 118.0533579  47.4561634 117.7124752
 116.5540312  47.4666358 117.9217336 131.6299786  54.4048322 117.8787437
 131.8235677  55.3094133 118.1246712 131.5300405  53.9455741 118.7126022
 123.2836097  44.2906213 120.3777764 122.6364012  44.9896162 120.2842241
 124.0537113  44.7242357 120.7454012 126.6914895  54.5555065 123.4528317
 126.5400402  54.3265617 122.5358401 126.6819575  55.5125666 123.4659663
 123.4600232  52.1286978 118.4374584 124.3892292  52.2798137 118.2643551
 123.0391262  52.2170998 117.5823230 122.2588563  56.1537642 116.2073122
 122.1199649  55.7856426 117.0799060 121.4703160  56.6685282 116.0357079
 122.8536715  61.2546739 107.5498658 123.0288471  60.7834782 108.3644281
 122.1669503  61.8812505 107.7779919 123.8093778  55.5319245 113.5961959
 123.4743611  55.4920015 114.4919609 123.3097724  54.8663961 113.1232370
 117.7838022  50.9386875 119.1214541 117.6457820  50.2067114 119.7226080
 118.6942946  50.8495775 118.8398728 126.7452970  52.8775279 103.8699019
 126.1282141  52.1522107 103.7732072 126.2769459  53.6384639 103.5266093
 120.4120323  50.6506834 118.6098220 121.1219942  50.0100026 118.5684839
 120.3689631  50.9019729 119.5324401 128.4007102  57.5874187 121.5304799
 128.3419648  56.9033408 120.8635382 128.8026620  58.3293177 121.0785425
 119.1249257  47.6372052 120.4293860 118.5886614  47.1862790 121.0815456
 118.5365966  47.7717961 119.6864324 117.4197801  64.4036101 114.3238518
 117.6594399  65.0354625 115.0017537 116.5766997  64.0524141 114.6103878
 118.5351516  47.0960703 102.9920323 117.6580982  46.9749504 102.6282570
 119.0109269  46.3046782 102.7399212 128.4024509  55.5513771 119.7618779
 127.5151288  55.2139693 119.8845178 128.9723060  54.8196803 119.9987544
 110.0553656  51.8837863 113.0861830 110.7424696  51.5699593 112.4982846
 109.9001785  52.7879228 112.8129082 114.8588378  46.7728060 117.5146854
 114.7746567  46.1653729 116.7797264 114.0371085  47.2637078 117.5156350
 121.9325662  60.2115224 116.7280022 121.8595834  61.0170195 117.2399327
 121.4903056  60.4107190 115.9028044 121.7215442  59.4486994 110.2382844
 120.9382964  59.9908674 110.3321068 122.4208187  59.9660973 110.6377085
 125.0312092  45.2581623 112.8817049 125.5280792  44.5051586 112.5618119
 124.2599074  45.2945940 112.3160259 132.8841850  50.9621989 114.5235341
 132.8731726  51.8446704 114.1529274 132.0159229  50.6093540 114.3289878
 124.3924346  60.1102058 118.8838181 125.1052318  60.7449523 118.8114082
 123.9014375  60.2065924 118.0678183 126.1141873  54.0153310 110.4555473
 125.1798152  54.1354773 110.2860177 126.2918541  53.1125777 110.1915482
 121.6147061  47.3999006 112.6088734 121.2444848  46.8470047 113.2969639
 122.1106153  46.7957140 112.0563734 129.5014424  49.8570630 110.9905507
 129.9674876  50.6898621 110.9165809 129.9521925  49.3915611 111.6950765
 119.4436259  57.8596501 119.7043752 120.1445719  58.4932984 119.8573146
 118.9731374  58.2011233 118.9439391 127.5690655  56.2014451 107.9891659
 127.8450499  56.0871046 108.8985533 126.6995154  55.8031936 107.9503832
 127.4731087  42.2251217 115.0296408 126.5594167  42.4555444 115.1978615
 127.9024188  42.3089661 115.8810440 127.2437545  50.4141109 117.5296302
 126.5908996  50.6617016 116.8748755 127.6217925  49.6005247 117.1958779
 124.2044719  60.4500802 111.6324472 124.3867114  59.6322458 112.0952225
 125.0277705  60.6668494 111.1949362 124.5386885  59.3768987 108.8939521
 125.0674651  58.8661442 108.2809683 124.8015104  59.0611517 109.7585054
 123.2925118  51.1560920 124.0162339 122.6165755  51.0555049 124.6864714
 124.1152752  51.0000134 124.4798336 115.0403978  57.3932856 116.6374854
 115.6257414  56.6476544 116.7702759 114.8428816  57.7036813 117.5211518
 117.8942633  60.4284104 111.6537297 117.2253008  60.9130231 111.1701337
 117.7555502  60.6753324 112.5680675 109.6321632  49.9638457 115.3579298
 109.6705732  49.4302047 116.1516416 109.1261925  49.4373662 114.7390275
 122.0347901  62.4627847 118.2519955 122.5866209  62.6259469 119.0169040
 122.3754095  63.0532285 117.5799980 117.0112395  44.8102997 118.8541840
 117.0753721  45.6717828 118.4419238 116.9479515  44.1976999 118.1214198
 116.4864667  46.8826130 122.5014874 117.1136706  46.5003207 123.1152398
 115.6292586  46.6640332 122.8670567 126.8858776  57.2889105 124.1068610
 127.4298680  57.9019063 123.6123564 126.3045621  57.8468683 124.6235623
 113.2630210  48.6902559 108.4333229 113.5583651  47.7813237 108.3800283
 112.3618246  48.6690298 108.1114231 125.1716289  60.4109823 115.2383637
 125.0467428  59.6099563 114.7294583 125.8295380  60.9056016 114.7497607
 116.7924457  46.7658555 114.4160778 116.0711043  47.3794523 114.2768251
 117.5817713  47.3016320 114.3377423 127.2351197  58.2118843 116.8663187
 126.2881533  58.0924194 116.7941514 127.5833970  57.3241341 116.9489449
 119.5950770  44.1012982 120.6901429 120.1185172  44.3475278 121.4527739
 119.3763104  44.9333017 120.2704567 114.9918051  46.3716656 108.5572554
 114.6630758  45.4914035 108.3747660 115.3457422  46.3164325 109.4448943
 124.2397630  58.0071559 113.0667540 124.0922593  57.0788266 113.2475110
 125.0651124  58.0291650 112.5824615 118.1059875  46.6589626 108.9248032
 118.4455947  47.1875547 108.2026640 118.5531995  46.9970032 109.7006598
 127.8431752  58.8300118 114.1532412 128.7678300  58.6242979 114.0156864
 127.6747056  58.5816519 115.0621754 120.8003315  45.0426677 118.3751100
 120.4600136  44.2434490 118.7771780 120.0942322  45.3428388 117.8027933
 121.4519787  42.1275989 116.8278423 122.2745857  41.6536467 116.7057313
 121.6957851  42.9066473 117.3277109 120.0928022  45.1564248 107.1241325
 120.8136384  45.5345501 106.6205041 119.4693326  45.8753125 107.2276302
 124.2359145  45.8609397 108.0599657 124.4522759  46.7434035 107.7588485
 123.7553212  45.4695610 107.3305299 118.9758366  48.8195110 114.6370401
 118.8302947  49.1335413 115.5294683 118.4983570  49.4380010 114.0841300
 120.8354749  45.8097658 114.6851291 120.8216318  44.9138751 114.3483589
 121.5527177  45.8168322 115.3189577 122.6880880  46.2434998 116.7304418
 122.4298657  47.1652069 116.7288749 122.1565920  45.8465433 117.4204883
 127.6327068  59.3485785 109.5094504 127.8063946  58.7832208 108.7568356
 128.1255960  60.1486680 109.3273994 113.4504028  51.3600454 117.5758063
 112.9057496  52.1360262 117.7078337 114.3283378  51.7071259 117.4177184
 120.2391645  44.6912038 109.9538861 120.3607556  43.7628684 110.1529749
 119.9493687  44.7050724 109.0417177 123.1082835  42.3766949 113.0905581
 123.1304532  42.4406282 112.1357561 123.5250894  41.5371457 113.2846087
 133.4866460  52.1122208 111.1284804 133.9297606  51.3629533 110.7303927
 132.6092970  52.1032345 110.7458536 128.6202241  58.6652550 106.6091402
 129.3153145  59.2859242 106.8278717 128.9625391  57.8147901 106.8843780
 114.2370050  50.4870351 120.4688220 113.4951786  50.6352986 121.0552850
 113.9162794  50.7478616 119.6054969 130.5193664  56.1152255 108.1378733
 131.0444988  56.4539528 107.4128053 130.4316017  55.1799270 107.9541868
 122.1813713  60.0286329 120.2668610 122.4900839  59.7835476 121.1391309
 122.9789195  60.2332967 119.7787480 122.2034325  62.1824238 112.4973986
 121.7639315  61.6900617 113.1906843 122.9542442  61.6397206 112.2566061
 114.6826664  58.3735779 112.4998614 115.5084684  58.0739551 112.1197258
 114.3320716  57.6043402 112.9488403 119.6508197  57.7262248 114.5696288
 119.0288206  57.0632953 114.2698516 120.3213064  57.7523379 113.8869936
 112.8835269  56.2922106 113.4587548 112.0467177  55.8644280 113.2771549
 112.8558914  56.4854549 114.3958339 119.7232724  46.2044036 124.1628794
 119.7720880  47.0806158 123.7806563 120.2655239  45.6621429 123.5900437
 130.2087570  56.7485159 123.4429931 129.4183114  56.7309298 122.9034430
 129.9720925  57.2873453 124.1978967 130.3285445  53.5977625 120.7562659
 130.3783450  53.4327633 121.6978182 130.2199368  52.7304884 120.3660540
 119.2121704  56.2766171 108.0454748 119.3609824  56.9601635 107.3921421
 120.0188147  56.2571261 108.5604204 127.6189207  49.5808553 122.0721966
 128.5199070  49.4415018 121.7805964 127.6937182  49.7463008 123.0120144
 121.9532013  46.9575408 120.9175152 121.0835322  47.2508974 120.6457741
 122.1891493  47.5415853 121.6382416 131.8303642  56.0174567 121.0004681
 131.5388450  56.3804547 121.8368142 131.2175773  55.3041575 120.8218013
 133.0299324  53.5827446 113.5207251 133.8646216  54.0217251 113.6844812
 133.1658453  53.1066100 112.7015497 130.0790830  51.1407181 119.4684739
 130.5544952  51.3334828 118.6603590 129.1556396  51.1966367 119.2228123
 116.9674337  52.3031349 109.0515817 116.7220379  51.3993679 109.2496027
 117.1370251  52.3048499 108.1095295 124.6571047  43.1755025 118.4340573
 125.1752991  43.9116052 118.1087061 124.3026179  43.4819018 119.2687332
 116.2369984  48.0359706 106.5501979 115.5439229  48.1104061 105.8942015
 115.9921736  47.2720050 107.0723496 124.9083641  39.5955307 113.9541469
 125.1885395  38.9278496 114.5801896 125.6934248  39.7884403 113.4416133
 122.7117109  58.7714301 105.5166496 122.1391076  59.3904488 105.0636968
 123.2849903  59.3213663 106.0506418 128.7792499  48.0172941 117.7013045
 129.7309922  48.1171039 117.7225269 128.6095950  47.2251210 118.2111129
 126.8006879  45.1028525 117.8872445 126.2056811  45.3833537 117.1918934
 126.5156575  45.5922426 118.6589187 125.9314369  59.0551451 106.6475078
 126.8645042  58.9897013 106.8507953 125.8437582  59.8907718 106.1889611
 128.5602386  58.3717322 103.6079026 128.4816017  58.0377185 104.5014783
 129.3812053  58.8639090 103.6070498 131.2580577  51.2379061 116.8155344
 131.2256897  50.2995062 117.0015028 131.8681201  51.3163098 116.0821169
 123.0963908  50.1075114 102.8582548 124.0423013  49.9781322 102.9270966
 122.7178153  49.3689776 103.3351976 131.4075065  48.0290105 116.8613627
 130.8914114  47.2448561 116.6743556 132.2915014  47.7008821 117.0260147
 129.0685792  41.7731120 112.8209440 128.8710613  41.4646208 113.7052772
 129.6785498  42.4992759 112.9507370 137.0757127  52.2995068 115.9561381
 137.8060515  52.0380356 116.5169084 136.4664072  51.5623790 115.9963449
 135.1572424  50.4402931 116.5535832 134.4305588  50.3058895 115.9452324
 134.7419711  50.7479759 117.3592550 122.9802600  54.1592860 124.3183205
 123.9005610  54.3371459 124.5123252 122.9452183  53.2148906 124.1662904
 121.2806825  48.0325090 102.7937433 120.3738280  47.7358203 102.8700147
 121.5582806  47.7354909 101.9271720 112.1984765  49.3531454 113.2436480
 111.8787550  48.4996762 112.9510854 111.6518194  49.5680032 113.9994447
 115.9764673  52.0693895 116.9605986 116.1950683  53.0011003 116.9794020
 116.3890447  51.7101869 117.7460790 122.8968891  42.5761980 108.9481675
 122.0869619  42.2309065 109.3236921 123.5853308  42.2669524 109.5369286
 124.8259439  41.6540027 110.5705971 125.3790478  42.0735480 111.2295994
 125.0629525  40.7275775 110.6128927 120.8492538  47.6427101 126.3508735
 120.7489265  48.5921458 126.2820826 120.6314080  47.3145340 125.4784805
 120.0505610  44.8912026 102.9349413 120.9124774  45.2166924 103.1945230
 120.2355954  44.1043522 102.4222478 112.0673025  52.9734365 115.2129601
 111.3736497  52.5588318 114.6999556 112.8146016  53.0154902 114.6163020
 128.2038246  43.7640552 110.0784636 127.6236915  44.4225356 109.6962688
 127.9374179  42.9417897 109.6672053 126.6541812  43.1645610 112.2805956
 127.1541591  43.2762144 111.4720275 127.2977420  42.8606663 112.9206764
 120.7123808  51.0724239 125.1673797 120.2290890  51.8724600 125.3737686
 120.7984747  51.0832184 124.2141241 113.9809768  52.9052619 113.0895616
 113.9580456  53.0040306 112.1377499 114.2910404  53.7517770 113.4112782
 116.6397146  54.9628774 117.2042231 117.5940399  54.9312717 117.1372162
 116.4409669  54.5019398 118.0192457 117.2296528  53.5329890 119.7713028
 118.0489417  54.0273969 119.7947866 117.5033336  52.6161858 119.7430596
 126.9863124  45.9240643 109.1340984 126.0988979  46.2090293 108.9161179
 127.4017113  45.7634406 108.2868261 130.3377660  45.9487164 112.8495323
 131.1138050  46.4383616 113.1219940 129.6125794  46.3745218 113.3067193
 132.7750219  46.6614783 113.9069264 133.3694710  46.4210519 113.1962572
 132.8476803  45.9421913 114.5342800 114.9947375  60.5048394 114.2212429
 114.8601842  59.7448795 113.6550427 114.5779437  61.2289294 113.7541217
 126.1306338  55.6885317 103.2289004 126.8342188  55.8935320 103.8446659
 125.4068986  56.2562079 103.4938087 126.9604148  51.4395178 109.3491274
 126.9039349  51.8963730 108.5098906 127.5132490  50.6785863 109.1714117
 130.7708954  47.2284910 110.1741394 130.5145888  46.8281546 111.0049601
 130.1461822  47.9428704 110.0491533 135.0821292  49.9680984 112.6812685
 134.5220850  50.0374173 113.4544247 134.4764795  49.7921968 111.9612181
 118.1516500  61.4017711 114.4330871 118.0348885  62.3463143 114.3309561
 117.3308947  61.0991272 114.8216670 128.0393035  56.1267846 105.2787464
 128.8738639  55.6949045 105.0964939 127.8777378  55.9549860 106.2064358
 127.6938927  52.6299960 106.6443803 127.6387731  52.4644231 105.7032247
 127.0684982  53.3375993 106.8005993 112.4831442  47.8668024 120.4705225
 113.1290306  47.3566978 120.9592451 112.2748593  48.6036706 121.0448651
 125.0084834  54.9348872 125.9697366 125.8775994  55.1089524 125.6084001
 124.5291586  55.7543288 125.8473095 121.0035053  42.1308069 106.2229122
 120.9913722  43.0749909 106.3797392 121.8958474  41.9478214 105.9288583
 119.1771015  62.0545973 117.6486800 120.0798261  62.0869583 117.9653295
 118.9508385  61.1246424 117.6633135 120.9324617  60.8076959 114.3096878
 119.9820248  60.8078821 114.1961251 121.2357103  60.0609694 113.7932913
 124.8187172  38.7250845 110.4775058 124.0519568  38.1709332 110.6231741
 125.2297877  38.7972714 111.3389210 116.8228933  45.0135641 124.5680240
 117.6860395  44.6572446 124.7783564 116.2494344  44.6749536 125.2555644
 136.6677310  66.6437498 115.3742641 137.3055720  66.5244245 114.6705981
 136.5498153  67.5918341 115.4330593 133.4767016  66.5964926 115.3104165
 133.1385528  66.4805990 114.4224700 134.3456785  66.1956091 115.2905171
 129.3353832  68.4500402 111.3001056 128.7718697  68.3590339 110.5317344
 129.2206227  67.6300306 111.7803549 133.9586799  67.7499777 121.2690371
 133.9475440  67.3552576 120.3970875 134.1207439  67.0165850 121.8624142
 126.8818264  69.9451594 114.1385277 127.6739556  69.6042418 113.7231576
 127.1214914  70.0546569 115.0587430 134.9153391  72.1171370 106.6115521
 134.2641371  72.7025450 106.2249535 135.7097754  72.6477565 106.6710559
 128.8409018  69.2060507 107.0102656 129.6139894  68.6589494 106.8715531
 129.1934417  70.0704756 107.2217117 130.6794060  70.5336889 120.2169555
 130.3883926  71.4382520 120.1016221 131.3151045  70.5753417 120.9313624
 131.6050267  67.9113738 116.8070915 132.2013840  67.6869760 116.0927877
 131.6625239  67.1698483 117.4096362 131.1775296  65.3653173 104.6421105
 131.4300816  64.8434694 103.8804568 130.2399855  65.2019318 104.7447789
 136.2218579  64.3688951 112.4495849 137.0081668  63.9508375 112.0986266
 136.4857283  65.2735044 112.6177497 136.3928656  69.8061802 107.1484506
 135.7574489  69.8796428 107.8605410 136.0626062  70.3955401 106.4703585
 141.6227006  64.3064185 113.3528827 142.3552178  63.7363401 113.5866657
 140.8666361  63.9185785 113.7935333 130.8971584  67.2681279 106.8445480
 130.7807843  66.5926182 107.5126565 131.0073844  66.7813653 106.0277633
 133.2403125  66.7291426 110.5492170 132.8761333  66.2022047 111.2605091
 134.0970241  66.3389895 110.3758655 139.1452426  58.0185759 117.8123436
 138.8135751  58.8881170 117.5884651 138.5498039  57.7022043 118.4917466
 132.8808612  61.7581326 105.5453518 133.0483015  62.6261562 105.9123989
 132.6905781  61.9208607 104.6214807 135.6383946  70.2198305 117.2119349
 135.3384669  71.1223343 117.1035156 135.2935005  69.9530488 118.0640501
 129.0896427  66.6712102 113.2456053 128.1646924  66.5388316 113.4533745
 129.3380840  67.4506321 113.7425995 139.0381089  62.7380845 114.8916786
 138.1297967  62.6696253 114.5975547 138.9868685  63.2152790 115.7198611
 132.8597833  64.2138983 106.5300185 132.7397458  64.6596034 107.3685665
 132.1650422  64.5624301 105.9713723 126.4505238  66.3145375 114.0799842
 126.5797619  66.5679854 114.9939254 125.7702689  66.9073083 113.7604497
 130.6204725  76.9842625 110.1790316 130.5428755  77.9350450 110.2578797
 130.0166369  76.6388498 110.8365243 133.1121955  64.1570490 122.8351683
 132.3355289  64.7164411 122.8254548 133.7512518  64.6427273 123.3566553
 140.9042736  60.9397283 116.6694660 140.2617116  61.2329816 116.0234454
 140.3997664  60.8250204 117.4747856 138.5582899  64.6860456 107.3580519
 139.4700756  64.9187843 107.1828217 138.0492546  65.2697501 106.7955598
 131.3668327  66.9655944 122.3969650 132.1083012  67.5040988 122.1204474
 130.6605313  67.5922233 122.5541202 136.8423667  69.1085084 120.9941812
 137.2507023  68.6667495 120.2496444 136.1200929  68.5337712 121.2476005
 133.1954737  64.0457691 118.3675369 134.0415932  64.4697105 118.5110018
 133.1353375  63.3891315 119.0613932 137.1652482  69.6686275 114.7494101
 136.5361344  69.8331989 114.0470168 136.7778144  70.0827884 115.5205065
 141.0441714  70.6040713 112.1038464 140.3592752  70.9839614 111.5535498
 141.1285563  71.2136039 112.8370412 136.3454182  61.7062059 120.0256542
 136.1015114  62.4604120 119.4890818 136.6214113  62.0847407 120.8603789
 138.2992645  68.2500672 118.7033808 138.5109540  68.8932432 118.0268189
 138.2522393  67.4162988 118.2355738 135.9018874  60.8618492 115.6070380
 135.0403353  61.1599746 115.8987118 135.9281309  61.0788891 114.6751413
 132.7180444  69.4060683 112.0144186 133.1818789  69.6848386 111.2248808
 132.4537242  68.5044128 111.8317276 129.6104525  68.9532165 114.9523949
 130.1805882  69.3819433 114.3141433 130.2012636  68.6714749 115.6508135
 131.6549330  65.5283835 108.8233751 132.3573373  65.9804879 109.2907677
 131.3229958  64.8867654 109.4513644 130.1029691  64.1195592 123.1984960
 129.4728352  64.8011873 123.4320357 129.9965779  64.0078674 122.2538098
 125.3974664  63.7867388 114.1250884 124.6073718  64.0424917 113.6490995
 125.8885911  64.6015726 114.2302925 139.4138473  71.1272627 116.8756165
 140.2355917  70.7252814 116.5938847 139.4100876  71.0240861 117.8272281
 127.3489409  64.1511967 111.0834361 126.5520572  64.2630662 111.6017857
 127.1215001  64.4898619 110.2175252 133.1795077  70.6756670 119.0316876
 133.2439509  71.1377078 119.8675047 132.4706000  70.0454035 119.1599185
 123.6812367  64.0397878 116.5565875 123.9320405  64.9244888 116.8223451
 124.2171915  63.8602480 115.7840967 147.5044466  67.4711376 113.2241137
 146.7508175  66.9018774 113.0685141 147.6392007  67.4374040 114.1711771
 132.8943094  72.3424778 108.8995856 132.7588769  73.1876314 109.3280704
 133.4352907  72.5444056 108.1361790 129.3810434  58.4216358 125.5610211
 128.9877379  57.8682556 126.2357855 130.1976574  58.7326936 125.9516729
 126.3472492  69.8600216 109.4723781 126.8597012  70.6543466 109.6229346
 126.9995204  69.1626506 109.4057383 128.1567376  72.9765972 111.5546534
 128.3334005  73.8983937 111.3667518 128.9524210  72.6624391 111.9840914
 132.2978395  59.8374237 123.1530468 133.0388108  60.4381390 123.0734930
 132.5296318  59.0951875 122.5948510 127.4419733  65.0230604 121.4308697
 127.3273248  64.1215861 121.7315796 126.5864251  65.2694301 121.0793514
 134.5211571  72.9648344 123.0296198 134.0775425  72.1784723 122.7117103
 135.1828784  73.1527495 122.3640089 129.2798692  74.4944146 117.5556877
 129.8306117  74.3661209 116.7833871 128.4410168  74.7939035 117.2051769
 136.6192809  73.2451144 121.0577599 136.6011284  74.0660025 120.5657869
 137.5412729  73.1205220 121.2827740 133.0765863  70.7595274 121.9001108
 133.6094200  69.9983562 121.6700416 132.5479944  70.4668926 122.6425262
 136.2435558  55.8655340 117.4294749 135.8999827  56.7556982 117.3533860
 136.6114520  55.6756997 116.5664334 124.3121408  68.1888870 110.2483352
 125.1496630  68.5985879 110.0317059 124.4899676  67.2488312 110.2183545
 136.2085841  65.8563951 105.9367185 135.6932464  66.6268556 106.1755572
 135.9363149  65.1829087 106.5600246 133.7932952  60.7013652 110.9952423
 132.9374548  60.3120502 110.8158062 134.2059903  60.7805613 110.1352208
 135.3232098  58.2359995 115.3943983 134.8196894  58.1990130 114.5811788
 135.6162705  59.1452738 115.4540639 131.5674984  58.3198725 114.4010164
 132.4327981  58.1241533 114.0416054 131.6352493  58.0909076 115.3279521
 141.1820115  68.6096306 107.8720358 140.4049557  68.2707465 107.4275520
 141.8611596  68.6148929 107.1975323 135.9972144  63.7291043 107.7626966
 135.6922279  64.0437192 108.6137109 136.9502586  63.8072463 107.8054299
 134.4418576  69.8881266 109.4119920 133.9139937  69.1534026 109.0993157
 133.9406078  70.6655943 109.1659888 139.4211422  68.0830287 114.5286966
 138.7635096  68.7729548 114.6167095 140.2251821  68.4726719 114.8720952
 129.1737303  60.5500933 111.7726531 129.7481055  60.3276114 111.0399724
 129.7608286  60.6189627 112.5255133 138.2316880  66.4374660 112.5790908
 138.7448762  67.0704651 113.0812617 138.8818104  65.8375855 112.2134268
 129.5006890  62.5805394 105.7922417 128.6644203  62.9180080 106.1131691
 129.3611660  62.4454373 104.8549553 131.4759971  57.4242182 110.5001601
 130.8224383  57.1091199 109.8758215 131.4340445  56.8017922 111.2261424
 132.5871176  67.7061477 102.4154893 131.6798237  67.4750730 102.6146042
 133.0842208  66.9099096 102.6028874 135.4939255  76.4158984 105.3351579
 134.8200953  76.7190681 105.9436537 135.8805077  77.2188064 104.9857036
 134.7097711  63.9124115 114.8249248 133.7920273  64.1339062 114.6670936
 135.1257855  63.9870426 113.9660956 135.4932759  65.3115531 109.9551929
 136.2404578  65.8236928 109.6459051 135.7624349  64.9899584 110.8156322
 133.7659409  67.8074072 106.9378883 132.8570628  67.5233104 107.0351353
 133.7954493  68.2273150 106.0782190 138.9978677  71.4180661 110.7070050
 138.5441004  70.5771571 110.7635241 138.3672643  72.0542059 111.0444831
 137.9411596  62.3472647 111.9370718 137.2034353  61.8350033 112.2680960
 138.1938370  61.9073029 111.1253995 137.4411616  73.2557158 111.6419869
 137.7334590  73.8162215 110.9232234 137.9510236  73.5485719 112.3973028
 138.0423223  55.1248899 112.5312487 138.3482100  54.2646262 112.2438402
 138.7675828  55.7166519 112.3311481 124.3347580  65.5279586 110.9194085
 124.1371979  64.9348946 110.1945152 123.7794244  65.2231796 111.6370024
 132.3144303  65.4202692 113.0388678 132.3692913  64.4676529 112.9631155
 131.5035505  65.5762131 113.5229977 133.4635497  69.3482815 104.2766961
 133.0254927  68.6318674 103.8172599 134.2045938  69.5758930 103.7152053
 130.2536663  64.0379752 110.7979057 129.4404529  64.3373922 111.2044249
 130.7495657  63.6435441 111.5153539 132.4045241  74.0337509 112.7313322
 132.3621420  74.2598355 111.8021854 133.3207940  73.8000883 112.8799123
 135.8510875  64.5021576 119.6293951 136.2060263  64.7293049 120.4888417
 136.4983006  64.8339953 119.0071206 141.5808612  67.6240012 110.3343280
 141.4426510  67.8141608 109.4064469 141.2244831  68.3859395 110.7911331
 129.7450738  61.6098107 116.4140292 130.3850117  61.4686866 115.7163255
 128.9128268  61.3232621 116.0378894 141.6077991  69.6916539 115.3454551
 142.0414498  69.5991828 116.1937606 142.3209572  69.6674040 114.7074567
 130.5211042  70.9100538 112.5275284 131.3151640  70.4150858 112.3257859
 129.8102734  70.3818401 112.1642990 135.3405886  73.2918633 116.8787652
 135.3942909  73.8609570 117.6465368 134.4720668  73.4620518 116.5141689
 126.8293805  65.0543620 108.6035037 125.8991393  64.9928075 108.8204999
 126.9251277  64.5319572 107.8071678 126.7479354  61.5798432 111.1913279
 127.0086172  62.4943766 111.0822439 127.5696527  61.1122875 111.3409892
 128.2204280  62.9936190 118.3612103 128.8927333  62.7853552 117.7124752
 127.3934066  62.7958276 117.9217336 142.4693541  69.7340240 117.8787437
 142.6629431  70.6386050 118.1246712 142.3694159  69.2747659 118.7126022
 134.1229852  59.6198130 120.3777764 133.4757767  60.3188080 120.2842241
 134.8930867  60.0534274 120.7454012 137.5308650  69.8846983 123.4528317
 137.3794156  69.6557534 122.5358401 137.5213329  70.8417584 123.4659663
 134.2993986  67.4578895 118.4374584 135.2286046  67.6090055 118.2643551
 133.8785016  67.5462916 117.5823230 133.0982318  71.4829560 116.2073122
 132.9593404  71.1148344 117.0799060 132.3096914  71.9977199 116.0357079
 133.6930470  76.5838656 107.5498658 133.8682225  76.1126699 108.3644281
 133.0063258  77.2104422 107.7779919 134.6487533  70.8611162 113.5961959
 134.3137366  70.8211932 114.4919609 134.1491479  70.1955878 113.1232370
 128.6231777  66.2678793 119.1214541 128.4851575  65.5359031 119.7226080
 129.5336700  66.1787693 118.8398728 137.5846725  68.2067197 103.8699019
 136.9675895  67.4814025 103.7732072 137.1163213  68.9676557 103.5266093
 131.2514078  65.9798752 118.6098220 131.9613696  65.3391944 118.5684839
 131.2083386  66.2311647 119.5324401 139.2400856  72.9166105 121.5304799
 139.1813402  72.2325325 120.8635382 139.6420375  73.6585095 121.0785425
 129.9643012  62.9663970 120.4293860 129.4280369  62.5154708 121.0815456
 129.3759720  63.1009879 119.6864324 128.2591555  79.7328019 114.3238518
 128.4988153  80.3646543 115.0017537 127.4160752  79.3816059 114.6103878
 129.3745271  62.4252621 102.9920323 128.4974737  62.3041422 102.6282570
 129.8503024  61.6338699 102.7399212 139.2418264  70.8805689 119.7618779
 138.3545042  70.5431611 119.8845178 139.8116815  70.1488720 119.9987544
 120.8947411  67.2129781 113.0861830 121.5818450  66.8991511 112.4982846
 120.7395539  68.1171145 112.8129082 125.6982133  62.1019977 117.5146854
 125.6140322  61.4945647 116.7797264 124.8764839  62.5928996 117.5156350
 132.7719417  75.5407141 116.7280022 132.6989588  76.3462113 117.2399327
 132.3296810  75.7399107 115.9028044 132.5609197  74.7778911 110.2382844
 131.7776718  75.3200592 110.3321068 133.2601942  75.2952891 110.6377085
 135.8705847  60.5873541 112.8817049 136.3674546  59.8343503 112.5618119
 135.0992828  60.6237858 112.3160259 143.7235604  66.2913906 114.5235341
 143.7125480  67.1738622 114.1529274 142.8552983  65.9385457 114.3289878
 135.2318100  75.4393975 118.8838181 135.9446073  76.0741440 118.8114082
 134.7408129  75.5357841 118.0678183 136.9535627  69.3445228 110.4555473
 136.0191906  69.4646691 110.2860177 137.1312296  68.4417695 110.1915482
 132.4540815  62.7290924 112.6088734 132.0838603  62.1761964 113.2969639
 132.9499908  62.1249057 112.0563734 140.3408179  65.1862547 110.9905507
 140.8068631  66.0190539 110.9165809 140.7915679  64.7207529 111.6950765
 130.2830014  73.1888419 119.7043752 130.9839473  73.8224902 119.8573146
 129.8125129  73.5303150 118.9439391 138.4084410  71.5306369 107.9891659
 138.6844254  71.4162963 108.8985533 137.5388909  71.1323854 107.9503832
 138.3124841  57.5543134 115.0296408 137.3987921  57.7847361 115.1978615
 138.7417943  57.6381578 115.8810440 138.0831300  65.7433026 117.5296302
 137.4302750  65.9908934 116.8748755 138.4611680  64.9297165 117.1958779
 135.0438474  75.7792720 111.6324472 135.2260868  74.9614376 112.0952225
 135.8671460  75.9960412 111.1949362 135.3780639  74.7060905 108.8939521
 135.9068406  74.1953359 108.2809683 135.6408859  74.3903435 109.7585054
 134.1318873  66.4852837 124.0162339 133.4559510  66.3846967 124.6864714
 134.9546507  66.3292051 124.4798336 125.8797732  72.7224774 116.6374854
 126.4651169  71.9768462 116.7702759 125.6822570  73.0328731 117.5211518
 128.7336387  75.7576021 111.6537297 128.0646763  76.2422149 111.1701337
 128.5949257  76.0045242 112.5680675 120.4715387  65.2930374 115.3579298
 120.5099486  64.7593965 116.1516416 119.9655680  64.7665580 114.7390275
 132.8741656  77.7919765 118.2519955 133.4259964  77.9551386 119.0169040
 133.2147849  78.3824203 117.5799980 127.8506149  60.1394915 118.8541840
 127.9147476  61.0009746 118.4419238 127.7873269  59.5268916 118.1214198
 127.3258422  62.2118047 122.5014874 127.9530460  61.8295125 123.1152398
 126.4686340  61.9932249 122.8670567 137.7252530  72.6181022 124.1068610
 138.2692434  73.2310981 123.6123564 137.1439375  73.1760601 124.6235623
 124.1023964  64.0194476 108.4333229 124.3977405  63.1105155 108.3800283
 123.2012000  63.9982216 108.1114231 136.0110043  75.7401740 115.2383637
 135.8861183  74.9391480 114.7294583 136.6689134  76.2347934 114.7497607
 127.6318211  62.0950473 114.4160778 126.9104797  62.7086441 114.2768251
 128.4211467  62.6308238 114.3377423 138.0744952  73.5410761 116.8663187
 137.1275287  73.4216112 116.7941514 138.4227725  72.6533259 116.9489449
 130.4344525  59.4304899 120.6901429 130.9578927  59.6767196 121.4527739
 130.2156858  60.2624934 120.2704567 125.8311806  61.7008574 108.5572554
 125.5024512  60.8205953 108.3747660 126.1851177  61.6456243 109.4448943
 135.0791385  73.3363477 113.0667540 134.9316347  72.4080184 113.2475110
 135.9044878  73.3583567 112.5824615 128.9453629  61.9881544 108.9248032
 129.2849702  62.5167465 108.2026640 129.3925750  62.3261950 109.7006598
 138.6825507  74.1592035 114.1532412 139.6072054  73.9534897 114.0156864
 138.5140810  73.9108437 115.0621754 131.6397070  60.3718595 118.3751100
 131.2993890  59.5726408 118.7771780 130.9336076  60.6720305 117.8027933
 132.2913542  57.4567907 116.8278423 133.1139611  56.9828385 116.7057313
 132.5351605  58.2358391 117.3277109 130.9321776  60.4856165 107.1241325
 131.6530139  60.8637418 106.6205041 130.3087080  61.2045042 107.2276302
 135.0752899  61.1901314 108.0599657 135.2916514  62.0725952 107.7588485
 134.5946966  60.7987528 107.3305299 129.8152121  64.1487028 114.6370401
 129.6696701  64.4627331 115.5294683 129.3377324  64.7671928 114.0841300
 131.6748503  61.1389576 114.6851291 131.6610072  60.2430669 114.3483589
 132.3920931  61.1460239 115.3189577 133.5274634  61.5726916 116.7304418
 133.2692412  62.4943986 116.7288749 132.9959674  61.1757350 117.4204883
 138.4720823  74.6777703 109.5094504 138.6457700  74.1124125 108.7568356
 138.9649714  75.4778598 109.3273994 124.2897783  66.6892372 117.5758063
 123.7451251  67.4652180 117.7078337 125.1677133  67.0363176 117.4177184
 131.0785399  60.0203956 109.9538861 131.2001311  59.0920602 110.1529749
 130.7887442  60.0342642 109.0417177 133.9476590  57.7058866 113.0905581
 133.9698287  57.7698199 112.1357561 134.3644649  56.8663375 113.2846087
 144.3260214  67.4414126 111.1284804 144.7691360  66.6921451 110.7303927
 143.4486724  67.4324262 110.7458536 139.4595995  73.9944467 106.6091402
 140.1546900  74.6151160 106.8278717 139.8019145  73.1439819 106.8843780
 125.0763805  65.8162268 120.4688220 124.3345541  65.9644904 121.0552850
 124.7556549  66.0770534 119.6054969 141.3587418  71.4444173 108.1378733
 141.8838743  71.7831446 107.4128053 141.2709771  70.5091188 107.9541868
 133.0207467  75.3578246 120.2668610 133.3294594  75.1127393 121.1391309
 133.8182949  75.5624885 119.7787480 133.0428079  77.5116156 112.4973986
 132.6033070  77.0192535 113.1906843 133.7936196  76.9689124 112.2566061
 125.5220418  73.7027697 112.4998614 126.3478438  73.4031469 112.1197258
 125.1714470  72.9335319 112.9488403 130.4901951  73.0554165 114.5696288
 129.8681961  72.3924870 114.2698516 131.1606818  73.0815297 113.8869936
 123.7229023  71.6214023 113.4587548 122.8860932  71.1936198 113.2771549
 123.6952669  71.8146467 114.3958339 130.5626479  61.5335953 124.1628794
 130.6114634  62.4098076 123.7806563 131.1048993  60.9913346 123.5900437
 141.0481325  72.0777076 123.4429931 140.2576868  72.0601215 122.9034430
 140.8114679  72.6165370 124.1978967 141.1679200  68.9269543 120.7562659
 141.2177205  68.7619550 121.6978182 141.0593123  68.0596802 120.3660540
 130.0515458  71.6058089 108.0454748 130.2003579  72.2893553 107.3921421
 130.8581902  71.5863179 108.5604204 138.4582962  64.9100471 122.0721966
 139.3592825  64.7706936 121.7805964 138.5330936  65.0754926 123.0120144
 132.7925767  62.2867326 120.9175152 131.9229077  62.5800892 120.6457741
 133.0285248  62.8707771 121.6382416 142.6697396  71.3466484 121.0004681
 142.3782205  71.7096465 121.8368142 142.0569528  70.6333493 120.8218013
 143.8693079  68.9119364 113.5207251 144.7039970  69.3509168 113.6844812
 144.0052208  68.4358017 112.7015497 140.9184585  66.4699099 119.4684739
 141.3938706  66.6626745 118.6603590 139.9950150  66.5258285 119.2228123
 127.8068091  67.6323266 109.0515817 127.5614133  66.7285596 109.2496027
 127.9764006  67.6340417 108.1095295 135.4964801  58.5046943 118.4340573
 136.0146745  59.2407969 118.1087061 135.1419934  58.8110936 119.2687332
 127.0763739  63.3651624 106.5501979 126.3832984  63.4395979 105.8942015
 126.8315491  62.6011967 107.0723496 135.7477395  54.9247225 113.9541469
 136.0279149  54.2570414 114.5801896 136.5328002  55.1176321 113.4416133
 133.5510864  74.1006219 105.5166496 132.9784831  74.7196406 105.0636968
 134.1243657  74.6505581 106.0506418 139.6186254  63.3464859 117.7013045
 140.5703677  63.4462957 117.7225269 139.4489704  62.5543128 118.2111129
 137.6400633  60.4320442 117.8872445 137.0450565  60.7125455 117.1918934
 137.3550330  60.9214343 118.6589187 136.7708124  74.3843369 106.6475078
 137.7038797  74.3188931 106.8507953 136.6831336  75.2199636 106.1889611
 139.3996140  73.7009239 103.6079026 139.3209772  73.3669103 104.5014783
 140.2205807  74.1931007 103.6070498 142.0974331  66.5670979 116.8155344
 142.0650652  65.6286980 117.0015028 142.7074955  66.6455015 116.0821169
 133.9357662  65.4367032 102.8582548 134.8816767  65.3073240 102.9270966
 133.5571907  64.6981694 103.3351976 142.2468820  63.3582022 116.8613627
 141.7307869  62.5740479 116.6743556 143.1308768  63.0300739 117.0260147
 139.9079547  57.1023038 112.8209440 139.7104368  56.7938126 113.7052772
 140.5179252  57.8284677 112.9507370 145.9966178  65.7694848 116.5535832
 145.2699342  65.6350813 115.9452324 145.5813465  66.0771677 117.3592550
 133.8196355  69.4884778 124.3183205 134.7399364  69.6663377 124.5123252
 133.7845938  68.5440823 124.1662904 132.1200579  63.3617008 102.7937433
 131.2132035  63.0650121 102.8700147 132.3976560  63.0646826 101.9271720
 123.0378520  64.6823372 113.2436480 122.7181304  63.8288680 112.9510854
 122.4911948  64.8971950 113.9994447 126.8158427  67.3985813 116.9605986
 127.0344437  68.3302920 116.9794020 127.2284201  67.0393787 117.7460790
 133.7362645  57.9053898 108.9481675 132.9263374  57.5600983 109.3236921
 134.4247062  57.5961442 109.5369286 135.6653193  56.9831945 110.5705971
 136.2184232  57.4027398 111.2295994 135.9023280  56.0567693 110.6128927
 131.6886293  62.9719018 126.3508735 131.5883020  63.9213375 126.2820826
 131.4707835  62.6437257 125.4784805 130.8899364  60.2203943 102.9349413
 131.7518528  60.5458842 103.1945230 131.0749708  59.4335439 102.4222478
 122.9066780  68.3026283 115.2129601 122.2130251  67.8880236 114.6999556
 123.6539771  68.3446820 114.6163020 139.0432001  59.0932470 110.0784636
 138.4630670  59.7517274 109.6962688 138.7767933  58.2709814 109.6672053
 137.4935567  58.4937528 112.2805956 137.9935345  58.6054062 111.4720275
 138.1371175  58.1898580 112.9206764 131.5517563  66.4016157 125.1673797
 131.0684644  67.2016517 125.3737686 131.6378502  66.4124102 124.2141241
 124.8203522  68.2344537 113.0895616 124.7974210  68.3332224 112.1377499
 125.1304159  69.0809688 113.4112782 127.4790900  70.2920692 117.2042231
 128.4334154  70.2604634 117.1372162 127.2803424  69.8311316 118.0192457
 128.0690282  68.8621808 119.7713028 128.8883171  69.3565887 119.7947866
 128.3427090  67.9453776 119.7430596 137.8256879  61.2532560 109.1340984
 136.9382734  61.5382211 108.9161179 138.2410868  61.0926324 108.2868261
 141.1771415  61.2779081 112.8495323 141.9531805  61.7675534 113.1219940
 140.4519549  61.7037135 113.3067193 143.6143973  61.9906700 113.9069264
 144.2088464  61.7502436 113.1962572 143.6870557  61.2713831 114.5342800
 125.8341129  75.8340311 114.2212429 125.6995597  75.0740712 113.6550427
 125.4173191  76.5581211 113.7541217 136.9700092  71.0177235 103.2289004
 137.6735942  71.2227237 103.8446659 136.2462741  71.5853997 103.4938087
 137.7997902  66.7687096 109.3491274 137.7433104  67.2255648 108.5098906
 138.3526245  66.0077781 109.1714117 141.6102708  62.5576828 110.1741394
 141.3539642  62.1573464 111.0049601 140.9855576  63.2720622 110.0491533
 145.9215046  65.2972901 112.6812685 145.3614604  65.3666091 113.4544247
 145.3158549  65.1213886 111.9612181 128.9910255  76.7309628 114.4330871
 128.8742639  77.6755061 114.3309561 128.1702701  76.4283190 114.8216670
 138.8786789  71.4559764 105.2787464 139.7132393  71.0240963 105.0964939
 138.7171132  71.2841778 106.2064358 138.5332682  67.9591877 106.6443803
 138.4781485  67.7936149 105.7032247 137.9078737  68.6667910 106.8005993
 123.3225197  63.1959942 120.4705225 123.9684060  62.6858896 120.9592451
 123.1142348  63.9328623 121.0448651 135.8478589  70.2640789 125.9697366
 136.7169748  70.4381442 125.6084001 135.3685340  71.0835206 125.8473095
 131.8428807  57.4599986 106.2229122 131.8307477  58.4041826 106.3797392
 132.7352229  57.2770132 105.9288583 130.0164769  77.3837890 117.6486800
 130.9192016  77.4161501 117.9653295 129.7902139  76.4538341 117.6633135
 131.7718371  76.1368877 114.3096878 130.8214002  76.1370738 114.1961251
 132.0750857  75.3901611 113.7932913 135.6580927  54.0542763 110.4775058
 134.8913322  53.5001250 110.6231741 136.0691632  54.1264632 111.3389210
 127.6622688  60.3427559 124.5680240 128.5254149  59.9864364 124.7783564
 127.0888098  60.0041454 125.2555644 144.3160771  81.9256843 115.3104165
 143.9779282  81.8097908 114.4224700 145.1850539  81.5248008 115.2905171
 140.1747587  83.7792320 111.3001056 139.6112452  83.6882257 110.5317344
 140.0599982  82.9592224 111.7803549 144.7980554  83.0791695 121.2690371
 144.7869195  82.6844493 120.3970875 144.9601193  82.3457768 121.8624142
 137.7212018  85.2743511 114.1385277 138.5133310  84.9334336 113.7231576
 137.9608669  85.3838486 115.0587430 145.7547145  87.4463287 106.6115521
 145.1035125  88.0317368 106.2249535 146.5491508  87.9769482 106.6710559
 139.6802772  84.5352425 107.0102656 140.4533648  83.9881412 106.8715531
 140.0328171  85.3996674 107.2217117 141.5187815  85.8628807 120.2169555
 141.2277681  86.7674438 120.1016221 142.1544799  85.9045334 120.9313624
 142.4444022  83.2405655 116.8070915 143.0407594  83.0161678 116.0927877
 142.5018993  82.4990401 117.4096362 142.0169050  80.6945091 104.6421105
 142.2694571  80.1726612 103.8804568 141.0793609  80.5311236 104.7447789
 147.0612333  79.6980869 112.4495849 147.8475422  79.2800292 112.0986266
 147.3251037  80.6026961 112.6177497 147.2322410  85.1353719 107.1484506
 146.5968243  85.2088346 107.8605410 146.9019817  85.7247318 106.4703585
 141.7365339  82.5973197 106.8445480 141.6201597  81.9218100 107.5126565
 141.8467599  82.1105571 106.0277633 144.0796880  82.0583344 110.5492170
 143.7155087  81.5313965 111.2605091 144.9363996  81.6681813 110.3758655
 143.7202367  77.0873243 105.5453518 143.8876769  77.9553480 105.9123989
 143.5299536  77.2500525 104.6214807 146.4777700  85.5490222 117.2119349
 146.1778423  86.4515261 117.1035156 146.1328760  85.2822406 118.0640501
 139.9290182  82.0004019 113.2456053 139.0040678  81.8680233 113.4533745
 140.1774595  82.7798238 113.7425995 143.6991588  79.5430901 106.5300185
 143.5791213  79.9887952 107.3685665 143.0044176  79.8916219 105.9713723
 137.2898993  81.6437293 114.0799842 137.4191374  81.8971772 114.9939254
 136.6096444  82.2365001 113.7604497 141.4598480  92.3134543 110.1790316
 141.3822510  93.2642368 110.2578797 140.8560123  91.9680415 110.8365243
 143.9515710  79.4862408 122.8351683 143.1749044  80.0456328 122.8254548
 144.5906273  79.9719191 123.3566553 142.2062082  82.2947861 122.3969650
 142.9476766  82.8332905 122.1204474 141.4999067  82.9214150 122.5541202
 144.0348492  79.3749609 118.3675369 144.8809687  79.7989022 118.5110018
 143.9747129  78.7183233 119.0613932 147.1847937  77.0353977 120.0256542
 146.9408869  77.7896038 119.4890818 147.4607867  77.4139325 120.8603789
 146.7412629  76.1910410 115.6070380 145.8797108  76.4891664 115.8987118
 146.7675063  76.4080809 114.6751413 143.5574198  84.7352601 112.0144186
 144.0212544  85.0140304 111.2248808 143.2930996  83.8336045 111.8317276
 140.4498279  84.2824082 114.9523949 141.0199636  84.7111351 114.3141433
 141.0406391  84.0006667 115.6508135 142.4943084  80.8575753 108.8233751
 143.1967127  81.3096797 109.2907677 142.1623713  80.2159572 109.4513644
 140.9423446  79.4487510 123.1984960 140.3122106  80.1303791 123.4320357
 140.8359534  79.3370591 122.2538098 136.2368418  79.1159306 114.1250884
 135.4467472  79.3716834 113.6490995 136.7279665  79.9307644 114.2302925
 138.1883163  79.4803885 111.0834361 137.3914327  79.5922579 111.6017857
 137.9608756  79.8190537 110.2175252 144.0188831  86.0048588 119.0316876
 144.0833264  86.4668995 119.8675047 143.3099755  85.3745953 119.1599185
 134.5206121  79.3689796 116.5565875 134.7714159  80.2536806 116.8223451
 135.0565669  79.1894398 115.7840967 143.7336849  87.6716696 108.8995856
 143.5982524  88.5168231 109.3280704 144.2746661  87.8735973 108.1361790
 140.2204188  73.7508275 125.5610211 139.8271134  73.1974474 126.2357855
 141.0370329  74.0618854 125.9516729 137.1866246  85.1892134 109.4723781
 137.6990767  85.9835384 109.6229346 137.8388959  84.4918424 109.4057383
 138.9961131  88.3057890 111.5546534 139.1727759  89.2275855 111.3667518
 139.7917964  87.9916309 111.9840914 143.1372149  75.1666155 123.1530468
 143.8781863  75.7673308 123.0734930 143.3690072  74.4243792 122.5948510
 138.2813487  80.3522522 121.4308697 138.1667003  79.4507779 121.7315796
 137.4258005  80.5986219 121.0793514 145.3605325  88.2940262 123.0296198
 144.9169179  87.5076641 122.7117103 146.0222539  88.4819413 122.3640089
 140.1192446  89.8236064 117.5556877 140.6699871  89.6953127 116.7833871
 139.2803922  90.1230953 117.2051769 143.9159617  86.0887192 121.9001108
 144.4487954  85.3275480 121.6700416 143.3873698  85.7960843 122.6425262
 147.0829312  71.1947258 117.4294749 146.7393582  72.0848899 117.3533860
 147.4508275  71.0048915 116.5664334 135.1515163  83.5180788 110.2483352
 135.9890385  83.9277796 110.0317059 135.3293431  82.5780230 110.2183545
 147.0479595  81.1855869 105.9367185 146.5326218  81.9560473 106.1755572
 146.7756903  80.5121005 106.5600246 144.6326706  76.0305569 110.9952423
 143.7768302  75.6412420 110.8158062 145.0453658  76.1097530 110.1352208
 146.1625853  73.5651913 115.3943983 145.6590648  73.5282048 114.5811788
 146.4556460  74.4744655 115.4540639 142.4068739  73.6490642 114.4010164
 143.2721735  73.4533451 114.0416054 142.4746247  73.4200994 115.3279521
 146.8365898  79.0582961 107.7626966 146.5316034  79.3729110 108.6137109
 147.7896340  79.1364381 107.8054299 145.2812330  85.2173184 109.4119920
 144.7533692  84.4825944 109.0993157 144.7799833  85.9947860 109.1659888
 140.0131058  75.8792850 111.7726531 140.5874810  75.6568032 111.0399724
 140.6002040  75.9481545 112.5255133 140.3400645  77.9097311 105.7922417
 139.5037957  78.2471998 106.1131691 140.2005414  77.7746291 104.8549553
 142.3153725  72.7534099 110.5001601 141.6618138  72.4383116 109.8758215
 142.2734200  72.1309840 111.2261424 143.4264930  83.0353394 102.4154893
 142.5191992  82.8042648 102.6146042 143.9235962  82.2391014 102.6028874
 146.3333009  91.7450901 105.3351579 145.6594708  92.0482598 105.9436537
 146.7198831  92.5479982 104.9857036 145.5491466  79.2416033 114.8249248
 144.6314027  79.4630980 114.6670936 145.9651609  79.3162343 113.9660956
 146.3326513  80.6407448 109.9551929 147.0798332  81.1528846 109.6459051
 146.6018103  80.3191501 110.8156322 144.6053164  83.1365989 106.9378883
 143.6964383  82.8525022 107.0351353 144.6348247  83.5565068 106.0782190
 135.1741334  80.8571503 110.9194085 134.9765734  80.2640864 110.1945152
 134.6187998  80.5523713 111.6370024 143.1538058  80.7494610 113.0388678
 143.2086667  79.7968446 112.9631155 142.3429260  80.9054049 113.5229977
 144.3029251  84.6774733 104.2766961 143.8648681  83.9610592 103.8172599
 145.0439692  84.9050848 103.7152053 141.0930418  79.3671670 110.7979057
 140.2798283  79.6665840 111.2044249 141.5889412  78.9727358 111.5153539
 143.2438996  89.3629426 112.7313322 143.2015174  89.5890273 111.8021854
 144.1601694  89.1292801 112.8799123 146.6904629  79.8313494 119.6293951
 147.0454017  80.0584967 120.4888417 147.3376761  80.1631871 119.0071206
 140.5844492  76.9390025 116.4140292 141.2243872  76.7978784 115.7163255
 139.7522023  76.6524538 116.0378894 141.3604796  86.2392455 112.5275284
 142.1545395  85.7442776 112.3257859 140.6496489  85.7110319 112.1642990
 146.1799641  88.6210551 116.8787652 146.2336663  89.1901487 117.6465368
 145.3114422  88.7912436 116.5141689 137.6687560  80.3835537 108.6035037
 136.7385148  80.3219993 108.8204999 137.7645032  79.8611490 107.8071678
 137.5873109  76.9090350 111.1913279 137.8479926  77.8235683 111.0822439
 138.4090281  76.4414793 111.3409892 139.0598034  78.3228107 118.3612103
 139.7321088  78.1145469 117.7124752 138.2327821  78.1250193 117.9217336
 144.9623606  74.9490048 120.3777764 144.3151521  75.6479998 120.2842241
 145.7324622  75.3826192 120.7454012 145.1387741  82.7870813 118.4374584
 146.0679801  82.9381973 118.2643551 144.7178771  82.8754834 117.5823230
 143.9376072  86.8121477 116.2073122 143.7987158  86.4440262 117.0799060
 143.1490669  87.3269117 116.0357079 144.5324224  91.9130574 107.5498658
 144.7075980  91.4418617 108.3644281 143.8457012  92.5396340 107.7779919
 145.4881287  86.1903080 113.5961959 145.1531120  86.1503850 114.4919609
 144.9885233  85.5247796 113.1232370 139.4625531  81.5970710 119.1214541
 139.3245329  80.8650949 119.7226080 140.3730455  81.5079610 118.8398728
 142.0907832  81.3090670 118.6098220 142.8007451  80.6683862 118.5684839
 142.0477140  81.5603564 119.5324401 140.8036766  78.2955887 120.4293860
 140.2674123  77.8446626 121.0815456 140.2153475  78.4301796 119.6864324
 139.0985310  95.0619937 114.3238518 139.3381908  95.6938461 115.0017537
 138.2554506  94.7107977 114.6103878 140.2139025  77.7544539 102.9920323
 139.3368491  77.6333340 102.6282570 140.6896778  76.9630617 102.7399212
 131.7341165  82.5421699 113.0861830 132.4212205  82.2283429 112.4982846
 131.5789294  83.4463063 112.8129082 136.5375887  77.4311895 117.5146854
 136.4534076  76.8237565 116.7797264 135.7158594  77.9220913 117.5156350
 143.6113171  90.8699059 116.7280022 143.5383343  91.6754031 117.2399327
 143.1690565  91.0691025 115.9028044 143.4002951  90.1070829 110.2382844
 142.6170473  90.6492509 110.3321068 144.0995696  90.6244809 110.6377085
 146.7099601  75.9165459 112.8817049 147.2068301  75.1635421 112.5618119
 145.9386583  75.9529775 112.3160259 146.0711855  90.7685893 118.8838181
 146.7839827  91.4033358 118.8114082 145.5801884  90.8649759 118.0678183
 143.2934570  78.0582842 112.6088734 142.9232357  77.5053882 113.2969639
 143.7893662  77.4540975 112.0563734 141.1223768  88.5180337 119.7043752
 141.8233228  89.1516820 119.8573146 140.6518883  88.8595068 118.9439391
 145.8832228  91.1084637 111.6324472 146.0654623  90.2906293 112.0952225
 146.7065214  91.3252330 111.1949362 146.2174394  90.0352822 108.8939521
 146.7462160  89.5245277 108.2809683 146.4802613  89.7195353 109.7585054
 144.9712627  81.8144755 124.0162339 144.2953264  81.7138884 124.6864714
 145.7940261  81.6583969 124.4798336 136.7191487  88.0516692 116.6374854
 137.3044923  87.3060380 116.7702759 136.5216325  88.3620648 117.5211518
 139.5730142  91.0867939 111.6537297 138.9040517  91.5714067 111.1701337
 139.4343011  91.3337160 112.5680675 131.3109141  80.6222292 115.3579298
 131.3493241  80.0885883 116.1516416 130.8049434  80.0957497 114.7390275
 143.7135410  93.1211683 118.2519955 144.2653718  93.2843304 119.0169040
 144.0541604  93.7116120 117.5799980 138.6899904  75.4686832 118.8541840
 138.7541230  76.3301663 118.4419238 138.6267024  74.8560834 118.1214198
 138.1652176  77.5409965 122.5014874 138.7924215  77.1587042 123.1152398
 137.3080095  77.3224167 122.8670567 134.9417719  79.3486394 108.4333229
 135.2371160  78.4397072 108.3800283 134.0405755  79.3274133 108.1114231
 146.8503798  91.0693658 115.2383637 146.7254937  90.2683398 114.7294583
 147.5082889  91.5639851 114.7497607 138.4711966  77.4242391 114.4160778
 137.7498552  78.0378358 114.2768251 139.2605222  77.9600155 114.3377423
 141.2738279  74.7596817 120.6901429 141.7972681  75.0059114 121.4527739
 141.0550613  75.5916852 120.2704567 136.6705560  77.0300492 108.5572554
 136.3418267  76.1497871 108.3747660 137.0244931  76.9748160 109.4448943
 145.9185139  88.6655394 113.0667540 145.7710102  87.7372102 113.2475110
 146.7438633  88.6875485 112.5824615 139.7847384  77.3173461 108.9248032
 140.1243456  77.8459383 108.2026640 140.2319504  77.6553868 109.7006598
 142.4790824  75.7010512 118.3751100 142.1387645  74.9018325 118.7771780
 141.7729831  76.0012223 117.8027933 143.1307296  72.7859825 116.8278423
 143.9533366  72.3120303 116.7057313 143.3745360  73.5650308 117.3277109
 141.7715531  75.8148083 107.1241325 142.4923893  76.1929336 106.6205041
 141.1480835  76.5336960 107.2276302 145.9146654  76.5193232 108.0599657
 146.1310268  77.4017870 107.7588485 145.4340721  76.1279445 107.3305299
 140.6545875  79.4778945 114.6370401 140.5090456  79.7919248 115.5294683
 140.1771079  80.0963846 114.0841300 142.5142258  76.4681493 114.6851291
 142.5003827  75.5722587 114.3483589 143.2314686  76.4752157 115.3189577
 144.3668389  76.9018833 116.7304418 144.1086166  77.8235904 116.7288749
 143.8353429  76.5049268 117.4204883 135.1291537  82.0184290 117.5758063
 134.5845005  82.7944098 117.7078337 136.0070887  82.3655094 117.4177184
 141.9179154  75.3495874 109.9538861 142.0395065  74.4212520 110.1529749
 141.6281196  75.3634560 109.0417177 144.7870344  73.0350784 113.0905581
 144.8092041  73.0990117 112.1357561 145.2038403  72.1955293 113.2846087
 135.9157559  81.1454186 120.4688220 135.1739295  81.2936821 121.0552850
 135.5950303  81.4062452 119.6054969 143.8601222  90.6870164 120.2668610
 144.1688348  90.4419311 121.1391309 144.6576704  90.8916803 119.7787480
 143.8821834  92.8408074 112.4973986 143.4426824  92.3484452 113.1906843
 144.6329951  92.2981041 112.2566061 136.3614173  89.0319615 112.4998614
 137.1872193  88.7323387 112.1197258 136.0108225  88.2627237 112.9488403
 141.3295706  88.3846083 114.5696288 140.7075715  87.7216788 114.2698516
 142.0000573  88.4107215 113.8869936 134.5622778  86.9505941 113.4587548
 133.7254686  86.5228115 113.2771549 134.5346423  87.1438384 114.3958339
 141.4020233  76.8627871 124.1628794 141.4508389  77.7389994 123.7806563
 141.9442748  76.3205264 123.5900437 140.8909213  86.9350006 108.0454748
 141.0397333  87.6185471 107.3921421 141.6975656  86.9155096 108.5604204
 143.6319522  77.6159243 120.9175152 142.7622831  77.9092809 120.6457741
 143.8679002  78.1999688 121.6382416 138.6461846  82.9615184 109.0515817
 138.4007888  82.0577514 109.2496027 138.8157760  82.9632334 108.1095295
 146.3358556  73.8338860 118.4340573 146.8540499  74.5699887 118.1087061
 145.9813688  74.1402854 119.2687332 137.9157493  78.6943541 106.5501979
 137.2226738  78.7687896 105.8942015 137.6709245  77.9303885 107.0723496
 146.5871150  70.2539143 113.9541469 146.8672904  69.5862332 114.5801896
 147.3721757  70.4468238 113.4416133 144.3904618  89.4298137 105.5166496
 143.8178585  90.0488324 105.0636968 144.9637412  89.9797498 106.0506418
 144.7751417  80.7658949 102.8582548 145.7210522  80.6365158 102.9270966
 144.3965662  80.0273611 103.3351976 144.6590109  84.8176696 124.3183205
 145.5793119  84.9955295 124.5123252 144.6239692  83.8732741 124.1662904
 142.9594334  78.6908926 102.7937433 142.0525789  78.3942039 102.8700147
 143.2370315  78.3938744 101.9271720 133.8772274  80.0115289 113.2436480
 133.5575059  79.1580597 112.9510854 133.3305703  80.2263867 113.9994447
 137.6552182  82.7277730 116.9605986 137.8738192  83.6594838 116.9794020
 138.0677956  82.3685705 117.7460790 144.5756400  73.2345816 108.9481675
 143.7657128  72.8892901 109.3236921 145.2640817  72.9253359 109.5369286
 146.5046948  72.3123862 110.5705971 147.0577987  72.7319316 111.2295994
 146.7417034  71.3859610 110.6128927 142.5280047  78.3010936 126.3508735
 142.4276774  79.2505293 126.2820826 142.3101589  77.9729175 125.4784805
 141.7293119  75.5495861 102.9349413 142.5912283  75.8750759 103.1945230
 141.9143463  74.7627357 102.4222478 133.7460534  83.6318201 115.2129601
 133.0524006  83.2172154 114.6999556 134.4933525  83.6738737 114.6163020
 142.3911317  81.7308075 125.1673797 141.9078399  82.5308435 125.3737686
 142.4772256  81.7416020 124.2141241 135.6597277  83.5636455 113.0895616
 135.6367965  83.6624142 112.1377499 135.9697913  84.4101605 113.4112782
 138.3184655  85.6212610 117.2042231 139.2727908  85.5896552 117.1372162
 138.1197178  85.1603233 118.0192457 138.9084037  84.1913726 119.7713028
 139.7276926  84.6857804 119.7947866 139.1820845  83.2745694 119.7430596
 136.6734884  91.1632229 114.2212429 136.5389351  90.4032630 113.6550427
 136.2566946  91.8873129 113.7541217 139.8304009  92.0601546 114.4330871
 139.7136394  93.0046979 114.3309561 139.0096456  91.7575108 114.8216670
 134.1618951  78.5251859 120.4705225 134.8077815  78.0150813 120.9592451
 133.9536102  79.2620541 121.0448651 146.6872343  85.5932707 125.9697366
 147.5563503  85.7673359 125.6084001 146.2079095  86.4127124 125.8473095
 142.6822562  72.7891904 106.2229122 142.6701231  73.7333744 106.3797392
 143.5745983  72.6062049 105.9288583 140.8558524  92.7129808 117.6486800
 141.7585770  92.7453418 117.9653295 140.6295894  91.7830259 117.6633135
 142.6112126  91.4660794 114.3096878 141.6607757  91.4662656 114.1961251
 142.9144612  90.7193529 113.7932913 146.4974681  69.3834681 110.4775058
 145.7307077  68.8293167 110.6231741 146.9085386  69.4556549 111.3389210
 138.5016442  75.6719477 124.5680240 139.3647904  75.3156281 124.7783564
 137.9281853  75.3333371 125.2555644 147.0762173  94.4451223 114.1250884
 146.2861227  94.7008752 113.6490995 147.5673420  95.2599561 114.2302925
 145.3599876  94.6981714 116.5565875 145.6107914  95.5828724 116.8223451
 145.8959424  94.5186315 115.7840967 145.9908917  98.8472706 110.2483352
 146.8284139  99.2569714 110.0317059 146.1687185  97.9072148 110.2183545
 146.0135089  96.1863421 110.9194085 145.8159488  95.5932782 110.1945152
 145.4581753  95.8815631 111.6370024 142.5734920  97.8713616 113.0861830
 143.2605959  97.5575346 112.4982846 142.4183048  98.7754981 112.8129082
 147.3769642  92.7603813 117.5146854 147.2927831  92.1529482 116.7797264
 146.5552348  93.2512831 117.5156350 142.1502896  95.9514210 115.3579298
 142.1886995  95.4177800 116.1516416 141.6443189  95.4249415 114.7390275
 145.7811473  94.6778312 108.4333229 146.0764914  93.7688990 108.3800283
 144.8799509  94.6566051 108.1114231 145.9685292  97.3476207 117.5758063
 145.4238760  98.1236015 117.7078337 146.8464642  97.6947012 117.4177184
 146.7551314  96.4746104 120.4688220 146.0133050  96.6228739 121.0552850
 146.4344058  96.7354369 119.6054969 145.4016532 102.2797859 113.4587548
 144.5648441 101.8520033 113.2771549 145.3740178 102.4730302 114.3958339
 144.7166029  95.3407207 113.2436480 144.3968813  94.4872515 112.9510854
 144.1699457  95.5555785 113.9994447 144.5854289  98.9610118 115.2129601
 143.8917760  98.5464071 114.6999556 145.3327280  99.0030655 114.6163020
 146.4991031  98.8928372 113.0895616 146.4761719  98.9916059 112.1377499
 146.8091668  99.7393523 113.4112782 147.5128638 106.4924147 114.2212429
 147.3783106 105.7324548 113.6550427 147.0960700 107.2165047 113.7541217
 145.0012706  93.8543777 120.4705225 145.6471569  93.3442731 120.9592451
 144.7929857  94.5912459 121.0448651  98.1023463   8.0028995  96.9035623
  98.0247493   8.9536820  96.9824103  97.4985107   7.6574867  97.5610549
  96.7617430   5.5130516 104.2802183  97.3124855   5.3847579 103.5079177
  95.9228906   5.8125405 103.9297076 102.9757992   7.4345353  92.0596886
 102.3019691   7.7377050  92.6681843 103.3623814   8.2374434  91.7102343
 101.1749208   7.6025026  94.2743965 101.3500963   7.1313069  95.0889587
 100.4881996   8.2290792  94.5025225  95.7410293  10.7514389 101.0483825
  95.9806891  11.3832913 101.7262843  94.8979489  10.4002429 101.3349184
 100.2538155   6.5593511 103.4525329 100.1808326   7.3648483 103.9644633
  99.8115548   6.7585477 102.6273350 100.0427934   5.7965281  96.9628150
  99.2595456   6.3386961  97.0566375 100.7420680   6.3139261  97.3622392
 102.7136838   6.4580345 105.6083488 103.4264810   7.0927810 105.5359389
 102.2226867   6.5544211 104.7923489  96.2155125   6.7762391  98.3782603
  95.5465500   7.2608519  97.8946643  96.0767995   7.0231611  99.2925982
 100.3560394   8.8106134 104.9765262 100.9078702   8.9737756 105.7414347
 100.6966587   9.4010572 104.3045287 100.5026205   6.3764616 106.9913916
 100.8113331   6.1313763 107.8636616 101.3001687   6.5811255 106.5032786
 100.5246817   8.5302526  99.2219293 100.0851807   8.0378904  99.9152149
 101.2754934   7.9875493  98.9811368  93.0039156   4.7214067  99.2243921
  93.8297176   4.4217838  98.8442564  92.6533208   3.9521689  99.6733709
  91.2047761   2.6400393 100.1832854  90.3679669   2.2122567 100.0016856
  91.1771406   2.8332836 101.1203646  93.3159867   6.8526681 100.9457735
  93.1814335   6.0927082 100.3795733  92.8991929   7.5767581 100.4786524
  96.4728993   7.7495998 101.1576178  96.3561377   8.6941430 101.0554868
  95.6521439   7.4469559 101.5461977  97.4983507   8.4024260 104.3732106
  98.4010754   8.4347870 104.6898601  97.2720877   7.4724711 104.3878442
  99.2537109   7.1555246 101.0342185  98.3032740   7.1557108 100.9206557
  99.5569595   6.4087981 100.5178220 114.9889802  12.9915785 102.0987947
 115.6268212  12.8722532 101.3951287 114.8710645  13.9396629 102.1575899
 111.7979509  12.9443213 102.0349472 111.4598020  12.8284278 101.1470007
 112.6669277  12.5434378 102.0150478 107.6566324  14.7978689  98.0246363
 107.0931189  14.7068626  97.2562651 107.5418719  13.9778594  98.5048855
 112.2799292  14.0978065 107.9935678 112.2687932  13.7030863 107.1216181
 112.4419931  13.3644137 108.5869449 105.2030756  16.2929881 100.8630583
 105.9952048  15.9520706 100.4476883 105.4427406  16.4024856 101.7832737
 113.2365883  18.4649657  93.3360828 112.5853863  19.0503737  92.9494842
 114.0310246  18.9955852  93.3955865 107.1621510  15.5538794  93.7347962
 107.9352386  15.0067781  93.5960838 107.5146909  16.4183043  93.9462424
 109.0006553  16.8815176 106.9414862 108.7096419  17.7860807 106.8261528
 109.6363537  16.9231704 107.6558931 109.9262760  14.2592025 103.5316221
 110.5226332  14.0348047 102.8173184 109.9837731  13.5176770 104.1341669
 109.4987788  11.7131460  91.3666412 109.7513309  11.1912982  90.6049875
 108.5612347  11.5497606  91.4693096 114.7141148  16.1540089  93.8729812
 114.0786981  16.2274715  94.5850717 114.3838555  16.7433688  93.1948891
 109.2184077  13.6159566  93.5690787 109.1020335  12.9404470  94.2371871
 109.3286337  13.1291940  92.7522940 111.5615618  13.0769713  97.2737476
 111.1973825  12.5500334  97.9850398 112.4182734  12.6868182  97.1003962
 113.9596438  16.5676592 103.9364655 113.6597161  17.4701631 103.8280462
 113.6147497  16.3008775 104.7885808 107.4108919  13.0190389  99.9701360
 106.4859416  12.8866603 100.1779051 107.6593333  13.7984608 100.4671302
 111.1810326  10.5617270  93.2545492 111.0609951  11.0074321  94.0930972
 110.4862914  10.9102588  92.6959030 104.7717730  12.6623662 100.8045149
 104.9010112  12.9158141 101.7184560 104.0915182  13.2551370 100.4849804
 108.9417218  23.3320912  96.9035623 108.8641247  24.2828737  96.9824103
 108.3378861  22.9866785  97.5610549 111.4334447  10.5048778 109.5596990
 110.6567781  11.0642698 109.5499854 112.0725010  10.9905561 110.0811860
 109.6880820  13.3134231 109.1214957 110.4295504  13.8519275 108.8449780
 108.9817805  13.9400520 109.2786509 115.1636159  15.4563372 107.7187118
 115.5719515  15.0145782 106.9741751 114.4413421  14.8815999 107.9721311
 111.5167229  10.3935978 105.0920675 112.3628425  10.8175392 105.2355324
 111.4565867   9.7369603 105.7859238 115.4864974  16.0164562 101.4739407
 114.8573836  16.1810276 100.7715475 115.0990636  16.4306172 102.2450371
 119.3654206  16.9519000  98.8283771 118.6805244  17.3317901  98.2780804
 119.4498055  17.5614327  99.5615719 116.6205137  14.5978959 105.4279114
 116.8322033  15.2410719 104.7513496 116.5734886  13.7641276 104.9601045
 111.0392936  15.7538970  98.7389492 111.5031281  16.0326673  97.9494115
 110.7749734  14.8522415  98.5562583 107.9317017  15.3010452 101.6769256
 108.5018374  15.7297720 101.0386740 108.5225129  15.0193036 102.3753441
 109.9761822  11.8762123  95.5479057 110.6785865  12.3283166  96.0152984
 109.6442450  11.2345941  96.1758951 108.4242183  10.4673879 109.9230267
 107.7940844  11.1490160 110.1565664 108.3178271  10.3556961 108.9783405
 103.7187156  10.1345675 100.8496191 102.9286210  10.3903204 100.3736302
 104.2098403  10.9494013 100.9548232 117.7350965  17.4750914 103.6001472
 118.5568409  17.0731102 103.3184153 117.7313368  17.3719149 104.5517588
 105.6701901  10.4990255  97.8079668 104.8733065  10.6108949  98.3263163
 105.4427493  10.8376907  96.9420558 111.5007569  17.0234958 105.7562182
 111.5652001  17.4855365 106.5920354 110.7918493  16.3932323 105.8844492
 102.0024859  10.3876166 103.2811182 102.2532897  11.2723176 103.5468758
 102.5384407  10.2080767 102.5086274 111.2155587  18.6903065  95.6241163
 111.0801261  19.5354601  96.0526010 111.7565399  18.8922343  94.8607096
 104.6684984  16.2078503  96.1969088 105.1809504  17.0021754  96.3474652
 105.3207697  15.5104794  96.1302689 106.4779869  19.3244260  98.2791841
 106.6546497  20.2462224  98.0912825 107.2736702  19.0102679  98.7086221
 105.7632225  11.3708891 108.1554004 105.6485740  10.4694149 108.4561103
 104.9076743  11.6172588 107.8038821 112.8424063  19.3126632 109.7541505
 112.3987917  18.5263010 109.4362409 113.5041276  19.5005782 109.0885395
 107.6011184  20.8422433 104.2802183 108.1518609  20.7139497 103.5079177
 106.7622660  21.1417322 103.9297076 114.9405301  19.5929432 107.7822906
 114.9223776  20.4138313 107.2903175 115.8625221  19.4683507 108.0073047
 111.3978355  17.1073561 108.6246414 111.9306692  16.3461849 108.3945722
 110.8692436  16.8147213 109.3670569 102.6333901  14.5367158  96.9728658
 103.4709123  14.9464166  96.7562366 102.8112168  13.5966600  96.9428852
 114.5298333  12.2042238  92.6612491 114.0144956  12.9746843  92.9000879
 114.2575641  11.5307374  93.2845553 119.5032607  14.9574593  94.5965665
 118.7262050  14.6185752  94.1520827 120.1824088  14.9627216  93.9220630
 112.7631068  16.2359554  96.1365226 112.2352429  15.5012313  95.8238464
 112.2618571  17.0134230  95.8905195 117.7423914  14.4308574 101.2532273
 117.0847588  15.1207835 101.3412401 118.5464313  14.8205006 101.5966259
 116.5529373  12.7852947  99.3036214 117.0661254  13.4182939  99.8057924
 117.2030597  12.1854142  98.9379574 107.8219383   8.9283681  92.5167723
 106.9856695   9.2658367  92.8376998 107.6824152   8.7932661  91.5794860
 110.9083668  14.0539764  89.1400199 110.0010730  13.8229017  89.3391348
 111.4054700  13.2577383  89.3274181 113.8151747  22.7637271  92.0596886
 113.1413446  23.0668968  92.6681843 114.2017569  23.5666351  91.7102343
 113.0310204  10.2602402 101.5494555 112.1132765  10.4817349 101.3916243
 113.4470347  10.3348713 100.6906262 113.8145251  11.6593818  96.6797235
 114.5617070  12.1715215  96.3704357 114.0836841  11.3377871  97.5401629
 112.0871901  14.1552359  93.6624189 111.1783121  13.8711392  93.7596659
 112.1166985  14.5751437  92.8027496 117.3191169  17.7658948  97.4315357
 116.8653496  16.9249858  97.4880548 116.6885136  18.4020347  97.7690137
 115.7624108  19.6035445  98.3665175 116.0547082  20.1640502  97.6477541
 116.2722729  19.8964006  99.1218334 102.6560072  11.8757873  97.6439392
 102.4584472  11.2827234  96.9190458 102.1006736  11.5710083  98.3615330
 110.6356796  11.7680979  99.7633985 110.6905405  10.8154816  99.6876461
 109.8247998  11.9240418 100.2475283 111.7847989  15.6961102  91.0012268
 111.3467419  14.9796961  90.5417905 112.5258430  15.9237217  90.4397359
 108.5749155  10.3858039  97.5224364 107.7617021  10.6852210  97.9289556
 109.0708150   9.9913728  98.2398846 110.7257733  20.3815796  99.4558628
 110.6833912  20.6076642  98.5267160 111.6420432  20.1479171  99.6044430
 114.1723367  10.8499864 106.3539258 114.5272755  11.0771337 107.2133723
 114.8195498  11.1818240 105.7316513 119.9021104  13.9718299  97.0588587
 119.7639003  14.1619895  96.1309776 119.5457323  14.7337682  97.5156638
 119.9290484  16.0394826 102.0699858 120.3626990  15.9470116 102.9182912
 120.6422064  16.0152327 101.4319874 108.8423534  17.2578825  99.2520591
 109.6364133  16.7629145  99.0503166 108.1315226  16.7296688  98.8888297
 113.6618379  19.6396921 103.6032959 113.7155401  20.2087857 104.3710675
 112.7933160  19.8098806 103.2386996 105.1506298  11.4021907  95.3280344
 104.2203886  11.3406362  95.5450306 105.2463770  10.8797860  94.5316985
 105.0691847   7.9276720  97.9158585 105.3298664   8.8422053  97.8067746
 105.8909019   7.4601162  98.0655198 106.5416772   9.3414477 105.0857410
 107.2139825   9.1331839 104.4370059 105.7146558   9.1436563 104.6462642
 120.7906033  16.0818527 104.6032744 120.9841923  16.9864338 104.8492018
 120.6906651  15.6225946 105.4371329 115.8521142  16.2325270 110.1773624
 115.7006648  16.0035822 109.2603708 115.8425821  17.1895871 110.1904969
 112.6206478  13.8057183 105.1619891 113.5498538  13.9568342 104.9888858
 112.1997508  13.8941203 104.3068537 111.4194810  17.8307847 102.9318428
 111.2805896  17.4626631 103.8044366 110.6309406  18.3455486 102.7602386
 112.0142962  22.9316943  94.2743965 112.1894718  22.4604987  95.0889587
 111.3275750  23.5582710  94.5025225 112.9700025  17.2089450 100.3207266
 112.6349858  17.1690220 101.2164916 112.4703971  16.5434166  99.8477676
 106.9444269  12.6157080 105.8459847 106.8064067  11.8837319 106.4471386
 107.8549193  12.5265980 105.5644035 115.9059217  14.5545484  90.5944326
 115.2888388  13.8292312  90.4977378 115.4375705  15.3154844  90.2511400
 109.5726570  12.3277039 105.3343527 110.2826188  11.6870231 105.2930145
 109.5295878  12.5789934 106.2569708 117.5613349  19.2644392 108.2550106
 117.5025895  18.5803613 107.5880689 117.9632867  20.0063382 107.8030732
 108.2855504   9.3142257 107.1539166 107.7492861   8.8632995 107.8060763
 107.6972212   9.4488166 106.4109631 106.5804047  26.0806306 101.0483825
 106.8200646  26.7124830 101.7262843 105.7373244  25.7294346 101.3349184
 117.5630756  17.2283976 106.4864086 116.6757535  16.8909898 106.6090485
 118.1329307  16.4967008 106.7232851  99.2159903  13.5608068  99.8107137
  99.9030943  13.2469798  99.2228152  99.0608032  14.4649433  99.5374388
 104.0194625   8.4498265 104.2392161 103.9352814   7.8423934 103.5042571
 103.1977331   8.9407283 104.2401657 111.0931909  21.8885429 103.4525329
 111.0202081  22.6940400 103.9644633 110.6509302  22.0877395 102.6273350
 110.8821689  21.1257199  96.9628150 110.0989211  21.6678879  97.0566375
 111.5814434  21.6431178  97.3622392 113.5530593  21.7872263 105.6083488
 114.2658565  22.4219728 105.5359389 113.0620621  21.8836129 104.7923489
 115.2748120  15.6923515  97.1800779 114.3404398  15.8124978  97.0105484
 115.4524788  14.7895982  96.9160789 108.6042506  19.5366706 106.4289058
 109.3051966  20.1703189 106.5818453 108.1337621  19.8781438 105.6684698
 116.7296902  17.8784656  94.7136965 117.0056746  17.7641251  95.6230839
 115.8601401  17.4802141  94.6749138 113.3650966  22.1271007  98.3569779
 113.5473361  21.3092663  98.8197531 114.1883952  22.3438699  97.9194669
 113.6993132  21.0539192  95.6184827 114.2280898  20.5431647  95.0054990
 113.9621351  20.7381722  96.4830361 112.4531365  12.8331125 110.7407646
 111.7772002  12.7325254 111.4110021 113.2758999  12.6770338 111.2043643
 104.2010224  19.0703061 103.3620161 104.7863661  18.3246749 103.4948065
 104.0035063  19.3807018 104.2456825 107.0548880  22.1054309  98.3782603
 106.3859255  22.5900436  97.8946643 106.9161749  22.3523529  99.2925982
  98.7927879  11.6408661 102.0824604  98.8311979  11.1072252 102.8761722
  98.2868172  11.1143867 101.4635581 111.1954148  24.1398052 104.9765262
 111.7472456  24.3029674 105.7414347 111.5360342  24.7302490 104.3045287
 105.6470914   8.5596334 109.2260181 106.2742953   8.1773412 109.8397705
 104.7898833   8.3410536 109.5915873 116.0465022  18.9659310 110.8313916
 116.5904926  19.5789268 110.3368871 115.4651867  19.5238888 111.3480929
 102.4236457  10.3672764  95.1578536 102.7189898   9.4583442  95.1045589
 101.5224492  10.3460503  94.8359538 114.3322535  22.0880028 101.9628944
 114.2073675  21.2869768 101.4539889 114.9901627  22.5826221 101.4742914
 105.9530704   8.4428760 101.1406084 105.2317289   9.0564728 101.0013557
 106.7423959   8.9786525 101.0622730 116.3957444  19.8889048 103.5908494
 115.4487779  19.7694399 103.5186821 116.7440217  19.0011546 103.6734755
 104.1524298   8.0486861  95.2817861 103.8237004   7.1684240  95.0992967
 104.5063669   7.9934530  96.1694250 113.4003877  19.6841764  99.7912846
 113.2528840  18.7558471  99.9720416 114.2257371  19.7061855  99.3069921
 107.2666121   8.3359831  95.6493338 107.6062194   8.8645752  94.9271947
 107.7138242   8.6740237  96.4251905 117.0037999  20.5070323 100.8777719
 117.9284546  20.3013184 100.7402170 116.8353302  20.2586724 101.7867061
 108.1364613  10.4965315 101.3615708 107.9909194  10.8105618 102.2539990
 107.6589816  11.1150215 100.8086607 116.7933315  21.0255990  96.2339810
 116.9670193  20.4602413  95.4813663 117.2862206  21.8256885  96.0519300
 102.6110275  13.0370659 104.3003369 102.0663743  13.8130467 104.4323644
 103.4889625  13.3841464 104.1422491 117.7808488  20.3422755  93.3336709
 118.4759392  20.9629447  93.5524023 118.1231638  19.4918106  93.6089087
 103.3976297  12.1640556 107.1933526 102.6558033  12.3123191 107.7798157
 103.0769041  12.4248821 106.3300276 119.6799911  17.7922460  94.8624040
 120.2051235  18.1309733  94.1373360 119.5922263  16.8569475  94.6787174
 111.3419959  21.7056534 106.9913916 111.6507086  21.4605681 107.8636616
 112.1395441  21.9103172 106.5032786 111.3640571  23.8594443  99.2219293
 110.9245562  23.3670822  99.9152149 112.1148688  23.3167411  98.9811368
 103.8432910  20.0505984  99.2243921 104.6690930  19.7509756  98.8442564
 103.4926962  19.2813607  99.6733709 108.8114444  19.4032452 101.2941594
 108.1894453  18.7403157 100.9943822 109.4819311  19.4293584 100.6115242
 102.0441516  17.9692311 100.1832854 101.2073424  17.5414485 100.0016856
 102.0165161  18.1624754 101.1203646 119.3693817  18.4255364 110.1675237
 118.5789361  18.4079503 109.6279737 119.1327171  18.9643657 110.9224274
 119.4891692  15.2747830 107.4807966 119.5389697  15.1097838 108.4223489
 119.3805615  14.4075089 107.0905847 108.3727951  17.9536376  94.7700055
 108.5216071  18.6371840  94.1166728 109.1794394  17.9341466  95.2849511
 120.9909889  17.6944772 107.7249988 120.6994697  18.0574752 108.5613449
 120.3782020  16.9811780 107.5463320 122.1905571  15.2597651 100.2452558
 123.0252462  15.6987455 100.4090118 122.3264700  14.7836305  99.4260804
 119.2397077  12.8177386 106.1930046 119.7151199  13.0105033 105.3848897
 118.3162642  12.8736572 105.9473429 106.1280584  13.9801553  95.7761124
 105.8826625  13.0763883  95.9741334 106.2976498  13.9818704  94.8340602
 105.3976231   9.7129911  93.2747285 104.7045476   9.7874266  92.6187321
 105.1527983   8.9490255  93.7968802 111.8723356  20.4484506  92.2411802
 111.2997323  21.0674693  91.7882274 112.4456150  20.9983868  92.7751724
 115.0920616  20.7321656  93.3720385 116.0251289  20.6667218  93.5753260
 115.0043829  21.5677923  92.9134917 117.7208633  20.0487527  90.3324332
 117.6422264  19.7147390  91.2260090 118.5418299  20.5409295  90.3315805
 112.2570155  11.7845319  89.5827855 113.2029259  11.6551527  89.6516273
 111.8784400  11.0459981  90.0597283 112.1408847  15.8363065 111.0428512
 113.0611857  16.0141664 111.2368558 112.1058430  14.8919110 110.8908211
 110.4413072   9.7095295  89.5182740 109.5344527   9.4128408  89.5945454
 110.7189053   9.4125113  88.6517026 101.3591012  11.0301659  99.9681786
 101.0393796  10.1766967  99.6756160 100.8124440  11.2450237 100.7239754
 105.1370920  13.7464100 103.6851293 105.3556929  14.6781208 103.7039327
 105.5496693  13.3872074 104.4706097 110.0098785   9.3197306 113.0754042
 109.9095512  10.2691663 113.0066133 109.7920327   8.9915544 112.2030112
 101.2279272  14.6504570 101.9374908 100.5342744  14.2358523 101.4244862
 101.9752263  14.6925107 101.3408327 109.8730055  12.7494444 111.8919104
 109.3897137  13.5494805 112.0982993 109.9590994  12.7602389 110.9386548
 103.1416015  14.5822824  99.8140923 103.1186703  14.6810511  98.8622806
 103.4516651  15.4287975 100.1358089 105.8003393  16.6398979 103.9287537
 106.7546646  16.6082921 103.8617469 105.6015916  16.1789603 104.7437763
 106.3902775  15.2100095 106.4958335 107.2095664  15.7044174 106.5193172
 106.6639582  14.2932063 106.4675903 104.1553621  22.1818599 100.9457735
 104.0208089  21.4218999 100.3795733 103.7385684  22.9059498 100.4786524
 115.2912584  17.3655522  89.9534311 115.9948434  17.5705525  90.5691966
 114.5675233  17.9332284  90.2183394 116.1210395  13.1165383  96.0736581
 116.0645596  13.5733935  95.2344213 116.6738737  12.3556068  95.8959423
 107.3122747  23.0787916 101.1576178 107.1955131  24.0233348 101.0554868
 106.4915193  22.7761477 101.5461977 117.1999282  17.8038051  92.0032771
 118.0344886  17.3719250  91.8210245 117.0383625  17.6320065  92.9309665
 116.8545174  14.3070165  93.3689110 116.7993978  14.1414436  92.4277554
 116.2291229  15.0146198  93.5251300 101.6437689   9.5438229 107.1950532
 102.2896552   9.0337183 107.6837757 101.4354840  10.2806911 107.7693957
 114.1691081  16.6119076 112.6942673 115.0382241  16.7859729 112.3329308
 113.6897833  17.4313493 112.5718402 108.3377261  23.7316177 104.3732106
 109.2404508  23.7639788 104.6898601 108.1114631  22.8016628 104.3878442
 110.0930863  22.4847164 101.0342185 109.1426494  22.4849026 100.9206557
 110.3963349  21.7379899 100.5178220 125.8283557  28.3207702 102.0987947
 126.4661967  28.2014450 101.3951287 125.7104400  29.2688546 102.1575899
 122.6373263  28.2735131 102.0349472 122.2991775  28.1576195 101.1470007
 123.5063031  27.8726296 102.0150478 118.4960079  30.1270607  98.0246363
 117.9324944  30.0360544  97.2562651 118.3812474  29.3070511  98.5048855
 123.1193046  29.4269982 107.9935678 123.1081687  29.0322781 107.1216181
 123.2813686  28.6936055 108.5869449 116.0424511  31.6221799 100.8630583
 116.8345803  31.2812623 100.4476883 116.2821161  31.7316774 101.7832737
 124.0759638  33.7941575  93.3360828 123.4247617  34.3795655  92.9494842
 124.8704000  34.3247770  93.3955865 118.0015265  30.8830712  93.7347962
 118.7746141  30.3359699  93.5960838 118.3540664  31.7474961  93.9462424
 119.8400307  32.2107094 106.9414862 119.5490173  33.1152725 106.8261528
 120.4757292  32.2523622 107.6558931 120.7656514  29.5883943 103.5316221
 121.3620086  29.3639965 102.8173184 120.8231486  28.8468688 104.1341669
 120.3381542  27.0423378  91.3666412 120.5907063  26.5204899  90.6049875
 119.4006102  26.8789523  91.4693096 125.3824825  26.0459156  99.1741155
 126.1687915  25.6278579  98.8231572 125.6463530  26.9505248  99.3422804
 125.5534903  31.4832007  93.8729812 124.9180736  31.5566633  94.5850717
 125.2232309  32.0725605  93.1948891 130.7833252  25.9834389 100.0774134
 131.5158424  25.4133606 100.3111963 130.0272608  25.5955990 100.5180639
 120.0577831  28.9451484  93.5690787 119.9414089  28.2696387  94.2371871
 120.1680091  28.4583858  92.7522940 122.4009372  28.4061631  97.2737476
 122.0367579  27.8792252  97.9850398 123.2576488  28.0160100  97.1003962
 128.3058673  19.6955964 104.5368742 127.9741998  20.5651375 104.3129957
 127.7104286  19.3792248 105.2162773 122.0414859  23.4351531  92.2698825
 122.2089261  24.3031767  92.6369296 121.8512028  23.5978812  91.3460114
 124.7990192  31.8968510 103.9364655 124.4990915  32.7993548 103.8280462
 124.4541252  31.6300693 104.7885808 118.2502674  28.3482306  99.9701360
 117.3253170  28.2158521 100.1779051 118.4987087  29.1276526 100.4671302
 128.1987336  24.4151050 101.6162093 127.2904213  24.3466458 101.3220853
 128.1474932  24.8922995 102.4443918 122.0204080  25.8909188  93.2545492
 121.9003705  26.3366239  94.0930972 121.3256668  26.2394506  92.6959030
 115.6111485  27.9915580 100.8045149 115.7403866  28.2450059 101.7184560
 114.9308936  28.5843288 100.4849804 119.7810972  38.6612830  96.9035623
 119.7035002  39.6120655  96.9824103 119.1772616  38.3158702  97.5610549
 122.2728202  25.8340695 109.5596990 121.4961536  26.3934615 109.5499854
 122.9118765  26.3197478 110.0811860 130.0648983  22.6167488 103.3939966
 129.4223363  22.9100021 102.7479761 129.5603911  22.5020409 104.1993163
 127.7189146  26.3630661  94.0825826 128.6307002  26.5958048  93.9073523
 127.2098793  26.9467706  93.5200904 120.5274574  28.6426149 109.1214957
 121.2689259  29.1811193 108.8449780 119.8211560  29.2692437 109.2786509
 126.0029914  30.7855289 107.7187118 126.4113270  30.3437700 106.9741751
 125.2807175  30.2107917 107.9721311 122.3560984  25.7227896 105.0920675
 123.2022179  26.1467310 105.2355324 122.2959622  25.0661520 105.7859238
 126.3258728  31.3456480 101.4739407 125.6967591  31.5102194 100.7715475
 125.9384391  31.7598089 102.2450371 130.2047960  32.2810918  98.8283771
 129.5198999  32.6609819  98.2780804 130.2891810  32.8906244  99.5615719
 125.5060429  23.3832264 106.7501849 125.2621361  24.1374325 106.2136125
 125.7820360  23.7617612 107.5849096 127.4598892  29.9270877 105.4279114
 127.6715787  30.5702637 104.7513496 127.4128640  29.0933193 104.9601045
 125.0625121  22.5388697 102.3315687 124.2009600  22.8369951 102.6232424
 125.0887556  22.7559096 101.3996719 121.8786690  31.0830888  98.7389492
 122.3425036  31.3618591  97.9494115 121.6143488  30.1814332  98.5562583
 118.7710771  30.6302369 101.6769256 119.3412128  31.0589638 101.0386740
 119.3618883  30.3484954 102.3753441 120.8155576  27.2054040  95.5479057
 121.5179620  27.6575084  96.0152984 120.4836205  26.5637859  96.1758951
 119.2635938  25.7965797 109.9230267 118.6334599  26.4782078 110.1565664
 119.1572026  25.6848878 108.9783405 114.5580910  25.4637593 100.8496191
 113.7679964  25.7195121 100.3736302 115.0492158  26.2785931 100.9548232
 128.5744720  32.8042832 103.6001472 129.3962164  32.4023019 103.3184153
 128.5707123  32.7011066 104.5517588 116.5095656  25.8282172  97.8079668
 115.7126819  25.9400866  98.3263163 116.2821248  26.1668824  96.9420558
 122.3401323  32.3526875 105.7562182 122.4045756  32.8147283 106.5920354
 121.6312247  31.7224240 105.8844492 112.8418613  25.7168083 103.2811182
 113.0926652  26.6015093 103.5468758 113.3778162  25.5372685 102.5086274
 136.6650713  29.1481581  99.9486443 135.9114421  28.5788979  99.7930448
 136.7998254  29.1144245 100.8957078 122.0549341  34.0194983  95.6241163
 121.9195016  34.8646519  96.0526010 122.5959154  34.2214261  94.8607096
 118.5416681  20.0986563 112.2855518 118.1483626  19.5452761 112.9603162
 119.3582821  20.4097141 112.6762035 115.5078738  31.5370421  96.1969088
 116.0203259  32.3313671  96.3474652 116.1601451  30.8396711  96.1302689
 117.3173623  34.6536177  98.2791841 117.4940251  35.5754142  98.0912825
 118.1130457  34.3394596  98.7086221 121.4584642  21.5144442 109.8775774
 122.1994355  22.1151595 109.7980237 121.6902564  20.7722080 109.3193817
 116.6025980  26.7000809 108.1554004 116.4879495  25.7986066 108.4561103
 115.7470497  26.9464506 107.8038821 123.6817817  34.6418549 109.7541505
 123.2381672  33.8554928 109.4362409 124.3435031  34.8297700 109.0885395
 118.4404939  36.1714351 104.2802183 118.9912364  36.0431414 103.5079177
 117.6016414  36.4709240 103.9297076 125.7799055  34.9221349 107.7822906
 125.7617531  35.7430230 107.2903175 126.7018976  34.7975425 108.0073047
 122.2372110  32.4365479 108.6246414 122.7700446  31.6753767 108.3945722
 121.7086191  32.1439131 109.3670569 125.4041805  17.5425545 104.1540056
 125.0606074  18.4327186 104.0779167 125.7720767  17.3527202 103.2909641
 113.4727655  29.8659075  96.9728658 114.3102877  30.2756084  96.7562366
 113.6505923  28.9258517  96.9428852 125.3692087  27.5334156  92.6612491
 124.8538711  28.3038761  92.9000879 125.0969396  26.8599292  93.2845553
 122.9539198  22.3783857  97.7197730 122.0980795  21.9890707  97.5403368
 123.3666150  22.4575817  96.8597515 124.4838345  19.9130200 102.1189289
 123.9803141  19.8760335 101.3057095 124.7768952  20.8222943 102.1785946
 120.7281231  19.9968930 101.1255471 121.5934228  19.8011738 100.7661361
 120.7958740  19.7679281 102.0524828 130.3426361  30.2866511  94.5965665
 129.5655804  29.9477670  94.1520827 131.0217842  30.2919134  93.9220630
 125.1578390  25.4061248  94.4872272 124.8528526  25.7207397  95.3382416
 126.1108833  25.4842668  94.5299605 123.6024822  31.5651471  96.1365226
 123.0746184  30.8304231  95.8238464 123.1012325  32.3426148  95.8905195
 128.5817668  29.7600492 101.2532273 127.9241343  30.4499753 101.3412401
 129.3858068  30.1496924 101.5966259 118.3343550  22.2271138  98.4971838
 118.9087302  22.0046319  97.7645031 118.9214532  22.2959832  99.2500439
 127.3923127  28.1144864  99.3036214 127.9055009  28.7474856  99.8057924
 128.0424351  27.5146060  98.9379574 118.6613137  24.2575599  92.5167723
 117.8250449  24.5950285  92.8376998 118.5217907  24.1224578  91.5794860
 120.6366218  19.1012386  97.2246907 119.9830630  18.7861404  96.6003522
 120.5946692  18.4788127  97.9506730 121.7477423  29.3831682  89.1400199
 120.8404484  29.1520935  89.3391348 122.2448454  28.5869301  89.3274181
 124.6545501  38.0929189  92.0596886 123.9807200  38.3960885  92.6681843
 125.0411323  38.8958269  91.7102343 123.8703958  25.5894320 101.5494555
 122.9526519  25.8109267 101.3916243 124.2864102  25.6640630 100.6906262
 124.6539006  26.9885736  96.6797235 125.4010825  27.5007133  96.3704357
 124.9230595  26.6669788  97.5401629 122.9265656  29.4844276  93.6624189
 122.0176875  29.2003309  93.7596659 122.9560740  29.9043355  92.8027496
 128.1584923  33.0950866  97.4315357 127.7047250  32.2541776  97.4880548
 127.5278890  33.7312264  97.7690137 127.1017843  24.0242852  98.6616024
 126.3640600  23.5120238  98.9926267 127.3544616  23.5843234  97.8499301
 126.6017863  34.9327363  98.3665175 126.8940837  35.4932420  97.6477541
 127.1116483  35.2255924  99.1218334 127.2029470  16.8019104  99.2557794
 127.5088347  15.9416467  98.9683709 127.9282075  17.3936724  99.0556788
 113.4953826  27.2049791  97.6439392 113.2978226  26.6119151  96.9190458
 112.9400490  26.9002001  98.3615330 121.4750550  27.0972897  99.7633985
 121.5299160  26.1446733  99.6876461 120.6641752  27.2532336 100.2475283
 122.6241744  31.0253020  91.0012268 122.1861174  30.3088879  90.5417905
 123.3652185  31.2529135  90.4397359 119.4142910  25.7149957  97.5224364
 118.6010775  26.0144127  97.9289556 119.9101904  25.3205646  98.2398846
 121.5651488  35.7107714  99.4558628 121.5227667  35.9368560  98.5267160
 122.4814187  35.4771088  99.6044430 125.0117122  26.1791781 106.3539258
 125.3666509  26.4063254 107.2133723 125.6589253  26.5110158 105.7316513
 130.7414859  29.3010217  97.0588587 130.6032757  29.4911813  96.1309776
 130.3851077  30.0629600  97.5156638 118.9056985  23.2868312 103.1385599
 119.5456364  23.1457071 102.4408562 118.0734515  23.0002826 102.7624201
 130.7684238  31.3686744 102.0699858 131.2020745  31.2762033 102.9182912
 131.4815819  31.3444245 101.4319874 119.6817289  32.5870743  99.2520591
 120.4757887  32.0921063  99.0503166 118.9708981  32.0588606  98.8888297
 124.5012133  34.9688838 103.6032959 124.5549155  35.5379775 104.3710675
 123.6326914  35.1390723 103.2386996 115.9900052  26.7313824  95.3280344
 115.0597640  26.6698280  95.5450306 116.0857524  26.2089777  94.5316985
 115.9085601  23.2568637  97.9158585 116.1692418  24.1713971  97.8067746
 116.7302773  22.7893080  98.0655198 117.3810526  24.6706394 105.0857410
 118.0533580  24.4623757 104.4370059 116.5540313  24.4728480 104.6462642
 131.6299788  31.4110445 104.6032744 131.8235678  32.3156255 104.8492018
 131.5300406  30.9517864 105.4371329 123.2836098  21.2968335 107.1023071
 122.6364013  21.9958285 107.0087547 124.0537114  21.7304479 107.4699319
 126.6914896  31.5617188 110.1773624 126.5400403  31.3327739 109.2603708
 126.6819576  32.5187789 110.1904969 123.4600233  29.1349100 105.1619891
 124.3892293  29.2860260 104.9888858 123.0391263  29.2233121 104.3068537
 122.2588565  33.1599765 102.9318428 122.1199650  32.7918549 103.8044366
 121.4703161  33.6747404 102.7602386 122.8536717  38.2608861  94.2743965
 123.0288472  37.7896904  95.0889587 122.1669505  38.8874627  94.5025225
 123.8093780  32.5381367 100.3207266 123.4743612  32.4982137 101.2164916
 123.3097725  31.8726083  99.8477676 117.7838024  27.9448997 105.8459847
 117.6457822  27.2129236 106.4471386 118.6942947  27.8557898 105.5644035
 126.7452971  29.8837402  90.5944326 126.1282142  29.1584230  90.4977378
 126.2769460  30.6446762  90.2511400 120.4120324  27.6568957 105.3343527
 121.1219943  27.0162149 105.2930145 120.3689633  27.9081852 106.2569708
 128.4007103  34.5936310 108.2550106 128.3419649  33.9095530 107.5880689
 128.8026621  35.3355300 107.8030732 119.1249258  24.6434175 107.1539166
 118.5886615  24.1924913 107.8060763 118.5365967  24.7780083 106.4109631
 117.4197802  41.4098224 101.0483825 117.6594400  42.0416748 101.7262843
 116.5766998  41.0586264 101.3349184 118.5351517  24.1022826  89.7165630
 117.6580984  23.9811627  89.3527877 119.0109270  23.3108904  89.4644519
 128.4024510  32.5575894 106.4864086 127.5151289  32.2201816 106.6090485
 128.9723061  31.8258925 106.7232851 110.0553657  28.8899986  99.8107137
 110.7424697  28.5761716  99.2228152 109.9001786  29.7941350  99.5374388
 114.8588380  23.7790182 104.2392161 114.7746568  23.1715852 103.5042571
 114.0371086  24.2699201 104.2401657 121.9325664  37.2177346 103.4525329
 121.8595835  38.0232318 103.9644633 121.4903057  37.4169312 102.6273350
 121.7215443  36.4549116  96.9628150 120.9382965  36.9970797  97.0566375
 122.4208188  36.9723096  97.3622392 125.0312093  22.2643746  99.6062356
 125.5280793  21.5113708  99.2863426 124.2599075  22.3008063  99.0405565
 132.8841851  27.9684111 101.2480647 132.8731727  28.8508827 100.8774580
 132.0159230  27.6155662 101.0535184 124.3924347  37.1164180 105.6083488
 125.1052319  37.7511645 105.5359389 123.9014376  37.2128046 104.7923489
 126.1141874  31.0215433  97.1800779 125.1798153  31.1416896  97.0105484
 126.2918543  30.1187900  96.9160789 121.6147062  24.4061129  99.3334040
 121.2444850  23.8532169 100.0214946 122.1106155  23.8019262  98.7809040
 129.5014425  26.8632752  97.7150813 129.9674878  27.6960744  97.6411116
 129.9521926  26.3977734  98.4196072 119.4436261  34.8658624 106.4289058
 120.1445720  35.4995107 106.5818453 118.9731376  35.2073355 105.6684698
 127.5690657  33.2076574  94.7136965 127.8450500  33.0933168  95.6230839
 126.6995155  32.8094059  94.6749138 127.4731088  19.2313339 101.7541715
 126.5594168  19.4617566 101.9223922 127.9024190  19.3151783 102.6055747
 127.2437547  27.4203231 104.2541609 126.5908997  27.6679139 103.5994061
 127.6217927  26.6067370 103.9204086 124.2044721  37.4562924  98.3569779
 124.3867115  36.6384580  98.8197531 125.0277707  37.6730617  97.9194669
 124.5386886  36.3831110  95.6184827 125.0674653  35.8723564  95.0054990
 124.8015106  36.0673640  96.4830361 123.2925120  28.1623042 110.7407646
 122.6165757  28.0617172 111.4110021 124.1152754  28.0062256 111.2043643
 115.0403979  34.3994979 103.3620161 115.6257416  33.6538667 103.4948065
 114.8428817  34.7098936 104.2456825 117.8942634  37.4346226  98.3782603
 117.2253009  37.9192354  97.8946643 117.7555504  37.6815447  99.2925982
 109.6321634  26.9700579 102.0824604 109.6705733  26.4364170 102.8761722
 109.1261926  26.4435785 101.4635581 122.0347903  39.4689970 104.9765262
 122.5866211  39.6321591 105.7414347 122.3754096  40.0594408 104.3045287
 117.0112396  21.8165120 105.5787146 117.0753722  22.6779951 105.1664544
 116.9479516  21.2039121 104.8459505 116.4864668  23.8888252 109.2260181
 117.1136707  23.5065329 109.8397705 115.6292587  23.6702454 109.5915873
 126.8858777  34.2951227 110.8313916 127.4298681  34.9081186 110.3368871
 126.3045622  34.8530806 111.3480929 113.2630211  25.6964681  95.1578536
 113.5583652  24.7875360  95.1045589 112.3618247  25.6752421  94.8359538
 125.1716290  37.4171945 101.9628944 125.0467429  36.6161685 101.4539889
 125.8295381  37.9118139 101.4742914 116.7924458  23.7720678 101.1406084
 116.0711044  24.3856646 101.0013557 117.5817714  24.3078443 101.0622730
 127.2351198  35.2180965 103.5908494 126.2881534  35.0986317 103.5186821
 127.5833971  34.3303463 103.6734755 119.5950772  21.1075104 107.4146736
 120.1185173  21.3537401 108.1773045 119.3763105  21.9395139 106.9949873
 114.9918053  23.3778779  95.2817861 114.6630759  22.4976158  95.0992967
 115.3457423  23.3226448  96.1694250 124.2397632  35.0133682  99.7912846
 124.0922594  34.0850389  99.9720416 125.0651125  35.0353772  99.3069921
 118.1059876  23.6651749  95.6493338 118.4455948  24.1937670  94.9271947
 118.5531996  24.0032155  96.4251905 127.8431753  35.8362240 100.8777719
 128.7678301  35.6305102 100.7402170 127.6747057  35.5878642 101.7867061
 120.8003317  22.0488799 105.0996406 120.4600137  21.2496613 105.5017086
 120.0942323  22.3490510 104.5273240 121.4519789  19.1338112 103.5523729
 122.2745858  18.6598590 103.4302620 121.6957852  19.9128596 104.0522416
 120.0928023  22.1626370  93.8486631 120.8136386  22.5407623  93.3450348
 119.4693327  22.8815247  93.9521609 124.2359146  22.8671519  94.7844964
 124.4522760  23.7496157  94.4833792 123.7553213  22.4757733  94.0550605
 118.9758367  25.8257233 101.3615708 118.8302948  26.1397536 102.2539990
 118.4983571  26.4442133 100.8086607 120.8354750  22.8159781 101.4096598
 120.8216319  21.9200874 101.0728896 121.5527178  22.8230444 102.0434884
 122.6880881  23.2497121 103.4549725 122.4298659  24.1714191 103.4534056
 122.1565921  22.8527555 104.1450189 127.6327070  36.3547908  96.2339810
 127.8063947  35.7894330  95.4813663 128.1255961  37.1548803  96.0519300
 113.4504029  28.3662577 104.3003369 112.9057498  29.1422385 104.4323644
 114.3283379  28.7133381 104.1422491 120.2391646  21.6974161  96.6784168
 120.3607557  20.7690807  96.8775055 119.9493688  21.7112847  95.7662483
 123.1082836  19.3829071  99.8150888 123.1304533  19.4468404  98.8602867
 123.5250895  18.5433580 100.0091394 133.4866461  29.1184331  97.8530110
 133.9297607  28.3691656  97.4549233 132.6092971  29.1094467  97.4703842
 128.6202242  35.6714672  93.3336709 129.3153147  36.2921365  93.5524023
 128.9625392  34.8210023  93.6089087 114.2370051  27.4932473 107.1933526
 113.4951787  27.6415109 107.7798157 113.9162796  27.7540739 106.3300276
 130.5193665  33.1214378  94.8624040 131.0444989  33.4601651  94.1373360
 130.4316018  32.1861393  94.6787174 122.1813714  37.0348451 106.9913916
 122.4900840  36.7897598 107.8636616 122.9789196  37.2395090 106.5032786
 122.2034326  39.1886361  99.2219293 121.7639316  38.6962740  99.9152149
 122.9542443  38.6459329  98.9811368 114.6826665  35.3797902  99.2243921
 115.5084685  35.0801674  98.8442564 114.3320717  34.6105524  99.6733709
 119.6508198  34.7324370 101.2941594 119.0288207  34.0695075 100.9943822
 120.3213065  34.7585502 100.6115242 112.8835270  33.2984228 100.1832854
 112.0467178  32.8706403 100.0016856 112.8558915  33.4916672 101.1203646
 119.7232726  23.2106158 110.8874100 119.7720881  24.0868281 110.5051870
 120.2655240  22.6683551 110.3145744 130.2087571  33.7547281 110.1675237
 129.4183115  33.7371420 109.6279737 129.9720926  34.2935575 110.9224274
 130.3285446  30.6039748 107.4807966 130.3783451  30.4389755 108.4223489
 130.2199370  29.7367007 107.0905847 119.2121705  33.2828293  94.7700055
 119.3609825  33.9663758  94.1166728 120.0188149  33.2633384  95.2849511
 127.6189209  26.5870676 108.7967273 128.5199072  26.4477141 108.5051271
 127.6937183  26.7525131 109.7365450 121.9532014  23.9637531 107.6420459
 121.0835323  24.2571097 107.3703048 122.1891494  24.5477976 108.3627723
 131.8303643  33.0236689 107.7249988 131.5388451  33.3866670 108.5613449
 131.2175774  32.3103698 107.5463320 133.0299325  30.5889569 100.2452558
 133.8646217  31.0279373 100.4090118 133.1658454  30.1128222  99.4260804
 130.0790831  28.1469304 106.1930046 130.5544953  28.3396950 105.3848897
 129.1556397  28.2028490 105.9473429 116.9674338  29.3093471  95.7761124
 116.7220380  28.4055801  95.9741334 117.1370253  29.3110622  94.8340602
 124.6571048  20.1817147 105.1585879 125.1752992  20.9178174 104.8332368
 124.3026181  20.4881141 105.9932639 116.2369986  25.0421829  93.2747285
 115.5439231  25.1166184  92.6187321 115.9921737  24.2782172  93.7968802
 124.9083642  16.6017430 100.6786776 125.1885396  15.9340619 101.3047203
 125.6934249  16.7946526 100.1661440 122.7117111  35.7776424  92.2411802
 122.1391078  36.3966611  91.7882274 123.2849904  36.3275786  92.7751724
 128.7792500  25.0235064 104.4258351 129.7309923  25.1233162 104.4470575
 128.6095951  24.2313333 104.9356436 126.8006880  22.1090647 104.6117752
 126.2056812  22.3895660 103.9164241 126.5156577  22.5984548 105.3834493
 125.9314370  36.0613574  93.3720385 126.8645044  35.9959136  93.5753260
 125.8437583  36.8969841  92.9134917 128.5602387  35.3779444  90.3324332
 128.4816019  35.0439308  91.2260090 129.3812054  35.8701212  90.3315805
 131.2580578  28.2441184 103.5400651 131.2256898  27.3057184 103.7260335
 131.8681202  28.3225220 102.8066476 123.0963909  27.1137237  89.5827855
 124.0423014  26.9843445  89.6516273 122.7178154  26.3751899  90.0597283
 131.4075067  25.0352227 103.5858934 130.8914115  24.2510684 103.3988863
 132.2915015  24.7070944 103.7505453 129.0685794  18.7793243  99.5454747
 128.8710615  18.4708331 100.4298079 129.6785499  19.5054882  99.6752677
 137.0757128  29.3057191 102.6806688 137.8060517  29.0442479 103.2414391
 136.4664074  28.5685912 102.7208756 135.1572425  27.4465053 103.2781139
 134.4305589  27.3121018 102.6697630 134.7419712  27.7541882 104.0837857
 122.9802602  31.1654983 111.0428512 123.9005611  31.3433582 111.2368558
 122.9452185  30.2211028 110.8908211 121.2806826  25.0387213  89.5182740
 120.3738282  24.7420326  89.5945454 121.5582807  24.7417031  88.6517026
 112.1984767  26.3593576  99.9681786 111.8787551  25.5058885  99.6756160
 111.6518195  26.5742155 100.7239754 115.9764674  29.0756017 103.6851293
 116.1950684  30.0073125 103.7039327 116.3890448  28.7163992 104.4706097
 122.8968892  19.5824103  95.6726981 122.0869620  19.2371188  96.0482227
 123.5853309  19.2731647  96.2614593 124.8259440  18.6602150  97.2951278
 125.3790479  19.0797603  97.9541301 125.0629527  17.7337898  97.3374234
 120.8492539  24.6489223 113.0754042 120.7489266  25.5983580 113.0066133
 120.6314082  24.3207462 112.2030112 120.0505611  21.8974148  89.6594719
 120.9124775  22.2229047  89.9190537 120.2355955  21.1105644  89.1467785
 112.0673027  29.9796488 101.9374908 111.3736498  29.5650441 101.4244862
 112.8146018  30.0217024 101.3408327 128.2038247  20.7702675  96.8029942
 127.6236916  21.4287479  96.4207995 127.9374180  19.9480019  96.3917360
 126.6541814  20.1707732  99.0051263 127.1541592  20.2824267  98.1965581
 127.2977422  19.8668785  99.6452071 120.7123810  28.0786362 111.8919104
 120.2290891  28.8786722 112.0982993 120.7984749  28.0894307 110.9386548
 113.9809769  29.9114742  99.8140923 113.9580457  30.0102429  98.8622806
 114.2910406  30.7579893 100.1358089 116.6397147  31.9690897 103.9287537
 117.5940401  31.9374839 103.8617469 116.4409671  31.5081521 104.7437763
 117.2296529  30.5392013 106.4958335 118.0489418  31.0336091 106.5193172
 117.5033337  29.6223981 106.4675903 126.9863125  22.9302765  95.8586291
 126.0988980  23.2152416  95.6406485 127.4017114  22.7696529  95.0113567
 130.3377661  22.9549286  99.5740630 131.1138052  23.4445739  99.8465247
 129.6125796  23.3807340 100.0312499 132.7750220  23.6676905 100.6314570
 133.3694711  23.4272641  99.9207879 132.8476804  22.9484036 101.2588107
 114.9947376  37.5110516 100.9457735 114.8601844  36.7510917 100.3795733
 114.5779438  38.2351416 100.4786524 126.1306339  32.6947440  89.9534311
 126.8342189  32.8997442  90.5691966 125.4068988  33.2624202  90.2183394
 126.9604149  28.4457301  96.0736581 126.9039350  28.9025852  95.2344213
 127.5132492  27.6847986  95.8959423 130.7708955  24.2347033  96.8986700
 130.5145889  23.8343669  97.7294908 130.1461823  24.9490827  96.7736839
 135.0821293  26.9743106  99.4057992 134.5220851  27.0436295 100.1789554
 134.4764796  26.7984091  98.6857488 118.1516502  38.4079833 101.1576178
 118.0348886  39.3525266 101.0554868 117.3308948  38.1053395 101.5461977
 128.0393036  33.1329969  92.0032771 128.8738640  32.7011167  91.8210245
 127.8777379  32.9611983  92.9309665 127.6938928  29.6362082  93.3689110
 127.6387732  29.4706354  92.4277554 127.0684984  30.3438115  93.5251300
 112.4831443  24.8730147 107.1950532 113.1290307  24.3629101 107.6837757
 112.2748594  25.6098828 107.7693957 125.0084836  31.9410994 112.6942673
 125.8775995  32.1151646 112.3329308 124.5291587  32.7605411 112.5718402
 121.0035054  19.1370191  92.9474428 120.9913724  20.0812031  93.1042699
 121.8958476  18.9540337  92.6533889 119.1771016  39.0608095 104.3732106
 120.0798263  39.0931705 104.6898601 118.9508386  38.1308546 104.3878442
 120.9324618  37.8139082 101.0342185 119.9820249  37.8140943 100.9206557
 121.2357104  37.0671816 100.5178220 124.8187173  15.7312968  97.2020365
 124.0519569  15.1771455  97.3477047 125.2297878  15.8034837  98.0634517
 116.8228934  22.0197764 111.2925546 117.6860396  21.6634569 111.5028871
 116.2494345  21.6811659 111.9800951 136.6677311  43.6499620 102.0987947
 137.3055721  43.5306367 101.3951287 136.5498154  44.5980464 102.1575899
 133.4767018  43.6027048 102.0349472 133.1385529  43.4868113 101.1470007
 134.3456786  43.2018213 102.0150478 129.3353833  45.4562525  98.0246363
 128.7718698  45.3652462  97.2562651 129.2206228  44.6362429  98.5048855
 133.9586801  44.7561900 107.9935678 133.9475441  44.3614698 107.1216181
 134.1207440  44.0227973 108.5869449 126.8818265  46.9513716 100.8630583
 127.6739557  46.6104541 100.4476883 127.1214915  47.0608691 101.7832737
 134.9153392  49.1233492  93.3360828 134.2641372  49.7087573  92.9494842
 135.7097755  49.6539687  93.3955865 128.8409019  46.2122629  93.7347962
 129.6139895  45.6651617  93.5960838 129.1934418  47.0766879  93.9462424
 130.6794062  47.5399012 106.9414862 130.3883928  48.4444643 106.8261528
 131.3151046  47.5815539 107.6558931 131.6050269  44.9175860 103.5316221
 132.2013841  44.6931883 102.8173184 131.6625240  44.1760606 104.1341669
 131.1775297  42.3715296  91.3666412 131.4300818  41.8496817  90.6049875
 130.2399856  42.2081441  91.4693096 136.2218580  41.3751074  99.1741155
 137.0081669  40.9570497  98.8231572 136.4857284  42.2797166  99.3422804
 136.3928657  46.8123924  93.8729812 135.7574490  46.8858551  94.5850717
 136.0626064  47.4017523  93.1948891 141.6227007  41.3126307 100.0774134
 142.3552179  40.7425524 100.3111963 140.8666363  40.9247908 100.5180639
 130.8971586  44.2743402  93.5690787 130.7807844  43.5988305  94.2371871
 131.0073846  43.7875775  92.7522940 133.2403127  43.7353549  97.2737476
 132.8761334  43.2084170  97.9850398 134.0970243  43.3452018  97.1003962
 139.1452427  35.0247881 104.5368742 138.8135752  35.8943292 104.3129957
 138.5498041  34.7084165 105.2162773 132.8808614  38.7643448  92.2698825
 133.0483016  39.6323685  92.6369296 132.6905783  38.9270730  91.3460114
 135.6383947  47.2260427 103.9364655 135.3384670  48.1285466 103.8280462
 135.2935006  46.9592610 104.7885808 129.0896428  43.6774224  99.9701360
 128.1646925  43.5450438 100.1779051 129.3380841  44.4568443 100.4671302
 139.0381091  39.7442967 101.6162093 138.1297968  39.6758376 101.3220853
 138.9868686  40.2214912 102.4443918 132.8597835  41.2201106  93.2545492
 132.7397460  41.6658157  94.0930972 132.1650423  41.5686424  92.6959030
 126.4505239  43.3207498 100.8045149 126.5797620  43.5741977 101.7184560
 125.7702691  43.9135206 100.4849804 130.6204727  53.9904748  96.9035623
 130.5428756  54.9412573  96.9824103 130.0166370  53.6450620  97.5610549
 133.1121956  41.1632613 109.5596990 132.3355290  41.7226533 109.5499854
 133.7512519  41.6489396 110.0811860 140.9042737  37.9459406 103.3939966
 140.2617117  38.2391939 102.7479761 140.3997666  37.8312326 104.1993163
 138.5582901  41.6922579  94.0825826 139.4700757  41.9249966  93.9073523
 138.0492548  42.2759623  93.5200904 131.3668329  43.9718066 109.1214957
 132.1083013  44.5103110 108.8449780 130.6605314  44.5984355 109.2786509
 136.8423668  46.1147207 107.7187118 137.2507024  45.6729617 106.9741751
 136.1200930  45.5399834 107.9721311 133.1954738  41.0519814 105.0920675
 134.0415934  41.4759227 105.2355324 133.1353376  40.3953438 105.7859238
 137.1652483  46.6748397 101.4739407 136.5361345  46.8394112 100.7715475
 136.7778145  47.0890007 102.2450371 141.0441715  47.6102835  98.8283771
 140.3592753  47.9901737  98.2780804 141.1285564  48.2198162  99.5615719
 136.3454184  38.7124182 106.7501849 136.1015116  39.4666243 106.2136125
 136.6214114  39.0909530 107.5849096 138.2992646  45.2562794 105.4279114
 138.5109542  45.8994554 104.7513496 138.2522395  44.4225111 104.9601045
 135.9018875  37.8680615 102.3315687 135.0403354  38.1661869 102.6232424
 135.9281310  38.0851014 101.3996719 132.7180445  46.4122806  98.7389492
 133.1818790  46.6910509  97.9494115 132.4537243  45.5106250  98.5562583
 129.6104526  45.9594287 101.6769256 130.1805883  46.3881555 101.0386740
 130.2012638  45.6776872 102.3753441 131.6549331  42.5345958  95.5479057
 132.3573374  42.9867002  96.0152984 131.3229959  41.8929777  96.1758951
 130.1029692  41.1257715 109.9230267 129.4728353  41.8073995 110.1565664
 129.9965780  41.0140796 108.9783405 125.3974665  40.7929511 100.8496191
 124.6073719  41.0487039 100.3736302 125.8885912  41.6077848 100.9548232
 139.4138474  48.1334750 103.6001472 140.2355918  47.7314937 103.3184153
 139.4100877  48.0302984 104.5517588 127.3489410  41.1574090  97.8079668
 126.5520574  41.2692784  98.3263163 127.1215002  41.4960742  96.9420558
 133.1795078  47.6818793 105.7562182 133.2439510  48.1439200 106.5920354
 132.4706002  47.0516158 105.8844492 123.6812368  41.0460001 103.2811182
 123.9320406  41.9307011 103.5468758 124.2171916  40.8664603 102.5086274
 147.5044467  44.4773498  99.9486443 146.7508176  43.9080896  99.7930448
 147.6392009  44.4436163 100.8957078 132.8943096  49.3486901  95.6241163
 132.7588770  50.1938436  96.0526010 133.4352908  49.5506178  94.8607096
 129.3810435  35.4278480 112.2855518 128.9877381  34.8744679 112.9603162
 130.1976575  35.7389059 112.6762035 126.3472493  46.8662339  96.1969088
 126.8597013  47.6605589  96.3474652 126.9995206  46.1688629  96.1302689
 128.1567378  49.9828095  98.2791841 128.3334006  50.9046060  98.0912825
 128.9524211  49.6686514  98.7086221 132.2978396  36.8436360 109.8775774
 133.0388110  37.4443513 109.7980237 132.5296319  36.1013997 109.3193817
 127.4419734  42.0292727 108.1554004 127.3273249  41.1277984 108.4561103
 126.5864252  42.2756424 107.8038821 134.5211572  49.9710467 109.7541505
 134.0775426  49.1846846 109.4362409 135.1828785  50.1589618 109.0885395
 129.2798693  51.5006269 104.2802183 129.8306118  51.3723332 103.5079177
 128.4410169  51.8001158 103.9297076 136.6192810  50.2513267 107.7822906
 136.6011285  51.0722148 107.2903175 137.5412730  50.1267342 108.0073047
 133.0765864  47.7657396 108.6246414 133.6094201  47.0045685 108.3945722
 132.5479945  47.4731048 109.3670569 136.2435559  32.8717462 104.1540056
 135.8999828  33.7619104 104.0779167 136.6114522  32.6819120 103.2909641
 124.3121410  45.1950993  96.9728658 125.1496632  45.6048001  96.7562366
 124.4899677  44.2550435  96.9428852 136.2085842  42.8626074  92.6612491
 135.6932465  43.6330678  92.9000879 135.9363150  42.1891210  93.2845553
 133.7932953  37.7075774  97.7197730 132.9374549  37.3182625  97.5403368
 134.2059905  37.7867735  96.8597515 135.3232099  35.2422118 102.1189289
 134.8196895  35.2052253 101.3057095 135.6162706  36.1514860 102.1785946
 131.5674985  35.3260847 101.1255471 132.4327982  35.1303656 100.7661361
 131.6352494  35.0971199 102.0524828 141.1820116  45.6158428  94.5965665
 140.4049559  45.2769588  94.1520827 141.8611597  45.6211051  93.9220630
 135.9972145  40.7353166  94.4872272 135.6922281  41.0499315  95.3382416
 136.9502587  40.8134586  94.5299605 134.4418577  46.8943389  96.1365226
 133.9139938  46.1596149  95.8238464 133.9406080  47.6718065  95.8905195
 139.4211423  45.0892409 101.2532273 138.7635097  45.7791671 101.3412401
 140.2251822  45.4788841 101.5966259 129.1737304  37.5563055  98.4971838
 129.7481056  37.3338237  97.7645031 129.7608287  37.6251750  99.2500439
 138.2316882  43.4436782  99.3036214 138.7448763  44.0766774  99.8057924
 138.8818106  42.8437978  98.9379574 129.5006892  39.5867516  92.5167723
 128.6644204  39.9242203  92.8376998 129.3611661  39.4516496  91.5794860
 131.4759972  34.4304304  97.2246907 130.8224384  34.1153321  96.6003522
 131.4340446  33.8080045  97.9506730 132.5871177  44.7123599  89.1400199
 131.6798239  44.4812853  89.3391348 133.0842209  43.9161218  89.3274181
 135.4939256  53.4221106  92.0596886 134.8200955  53.7252803  92.6681843
 135.8805078  54.2250187  91.7102343 134.7097713  40.9186238 101.5494555
 133.7920274  41.1401185 101.3916243 135.1257856  40.9932548 100.6906262
 135.4932760  42.3177653  96.6797235 136.2404579  42.8299051  96.3704357
 135.7624350  41.9961706  97.5401629 133.7659410  44.8136194  93.6624189
 132.8570630  44.5295227  93.7596659 133.7954494  45.2335273  92.8027496
 138.9978678  48.4242784  97.4315357 138.5441005  47.5833693  97.4880548
 138.3672645  49.0604182  97.7690137 137.9411597  39.3534770  98.6616024
 137.2034354  38.8412156  98.9926267 138.1938371  38.9135151  97.8499301
 137.4411617  50.2619280  98.3665175 137.7334591  50.8224337  97.6477541
 137.9510238  50.5547841  99.1218334 138.0423225  32.1311022  99.2557794
 138.3482102  31.2708385  98.9683709 138.7675830  32.7228642  99.0556788
 124.3347581  42.5341708  97.6439392 124.1371981  41.9411069  96.9190458
 123.7794245  42.2293918  98.3615330 132.3144304  42.4264815  99.7633985
 132.3692914  41.4738651  99.6876461 131.5035507  42.5824254 100.2475283
 133.4635498  46.3544938  91.0012268 133.0254928  45.6380797  90.5417905
 134.2045939  46.5821053  90.4397359 130.2536664  41.0441874  97.5224364
 129.4404530  41.3436045  97.9289556 130.7495659  40.6497563  98.2398846
 132.4045242  51.0399631  99.4558628 132.3621421  51.2660478  98.5267160
 133.3207941  50.8063006  99.6044430 135.8510876  41.5083699 106.3539258
 136.2060264  41.7355172 107.2133723 136.4983007  41.8402076 105.7316513
 141.5808613  44.6302135  97.0588587 141.4426512  44.8203731  96.1309776
 141.2244832  45.3921518  97.5156638 129.7450739  38.6160230 103.1385599
 130.3850118  38.4748989 102.4408562 128.9128270  38.3294743 102.7624201
 141.6077993  46.6978662 102.0699858 142.0414499  46.6053951 102.9182912
 142.3209573  46.6736162 101.4319874 130.5211043  47.9162660  99.2520591
 131.3151642  47.4212981  99.0503166 129.8102735  47.3880524  98.8888297
 135.3405888  50.2980756 103.6032959 135.3942910  50.8671692 104.3710675
 134.4720669  50.4682641 103.2386996 126.8293807  42.0605742  95.3280344
 125.8991395  41.9990198  95.5450306 126.9251279  41.5381695  94.5316985
 126.7479356  38.5860555  97.9158585 127.0086173  39.5005888  97.8067746
 127.5696528  38.1184998  98.0655198 128.2204281  39.9998312 105.0857410
 128.8927334  39.7915674 104.4370059 127.3934067  39.8020398 104.6462642
 142.4693542  46.7402362 104.6032744 142.6629432  47.6448173 104.8492018
 142.3694160  46.2809782 105.4371329 134.1229853  36.6260253 107.1023071
 133.4757768  37.3250203 107.0087547 134.8930868  37.0596397 107.4699319
 137.5308651  46.8909105 110.1773624 137.3794157  46.6619657 109.2603708
 137.5213330  47.8479707 110.1904969 134.2993987  44.4641018 105.1619891
 135.2286047  44.6152178 104.9888858 133.8785017  44.5525039 104.3068537
 133.0982319  48.4891682 102.9318428 132.9593405  48.1210467 103.8044366
 132.3096915  49.0039322 102.7602386 133.6930471  53.5900779  94.2743965
 133.8682227  53.1188822  95.0889587 133.0063259  54.2166545  94.5025225
 134.6487534  47.8673285 100.3207266 134.3137367  47.8274055 101.2164916
 134.1491480  47.2018001  99.8477676 128.6231778  43.2740915 105.8459847
 128.4851576  42.5421154 106.4471386 129.5336702  43.1849815 105.5644035
 137.5846726  45.2129319  90.5944326 136.9675896  44.4876148  90.4977378
 137.1163214  45.9738680  90.2511400 131.2514079  42.9860874 105.3343527
 131.9613697  42.3454067 105.2930145 131.2083387  43.2373769 106.2569708
 139.2400858  49.9228228 108.2550106 139.1813404  49.2387448 107.5880689
 139.6420376  50.6647218 107.8030732 129.9643013  39.9726092 107.1539166
 129.4280370  39.5216831 107.8060763 129.3759721  40.1072001 106.4109631
 128.2591556  56.7390142 101.0483825 128.4988155  57.3708666 101.7262843
 127.4160753  56.3878182 101.3349184 129.3745272  39.4314744  89.7165630
 128.4974738  39.3103545  89.3527877 129.8503025  38.6400822  89.4644519
 139.2418265  47.8867812 106.4864086 138.3545044  47.5493733 106.6090485
 139.8116816  47.1550843 106.7232851 120.8947412  44.2191903  99.8107137
 121.5818452  43.9053633  99.2228152 120.7395541  45.1233268  99.5374388
 125.6982134  39.1082100 104.2392161 125.6140323  38.5007770 103.5042571
 124.8764840  39.5991118 104.2401657 132.7719418  52.5469264 103.4525329
 132.6989590  53.3524236 103.9644633 132.3296811  52.7461230 102.6273350
 132.5609198  51.7841034  96.9628150 131.7776720  52.3262714  97.0566375
 133.2601943  52.3015014  97.3622392 135.8705848  37.5935664  99.6062356
 136.3674547  36.8405626  99.2863426 135.0992829  37.6299980  99.0405565
 143.7235605  43.2976029 101.2480647 143.7125482  44.1800744 100.8774580
 142.8552985  42.9447580 101.0535184 135.2318102  52.4456098 105.6083488
 135.9446074  53.0803563 105.5359389 134.7408130  52.5419964 104.7923489
 136.9535629  46.3507351  97.1800779 136.0191907  46.4708813  97.0105484
 137.1312297  45.4479818  96.9160789 132.4540817  39.7353047  99.3334040
 132.0838604  39.1824087 100.0214946 132.9499909  39.1311180  98.7809040
 140.3408180  42.1924670  97.7150813 140.8068632  43.0252662  97.6411116
 140.7915680  41.7269652  98.4196072 130.2830015  50.1950542 106.4289058
 130.9839475  50.8287025 106.5818453 129.8125130  50.5365273 105.6684698
 138.4084411  48.5368491  94.7136965 138.6844255  48.4225086  95.6230839
 137.5388910  48.1385976  94.6749138 138.3124843  34.5605257 101.7541715
 137.3987923  34.7909484 101.9223922 138.7417944  34.6443701 102.6055747
 138.0831301  42.7495149 104.2541609 137.4302751  42.9971056 103.5994061
 138.4611681  41.9359287 103.9204086 135.0438475  52.7854842  98.3569779
 135.2260870  51.9676498  98.8197531 135.8671461  53.0022534  97.9194669
 135.3780641  51.7123027  95.6184827 135.9068407  51.2015482  95.0054990
 135.6408860  51.3965558  96.4830361 134.1318874  43.4914960 110.7407646
 133.4559511  43.3909089 111.4110021 134.9546508  43.3354174 111.2043643
 125.8797733  49.7286897 103.3620161 126.4651170  48.9830584 103.4948065
 125.6822572  50.0390853 104.2456825 128.7336389  52.7638144  98.3782603
 128.0646764  53.2484272  97.8946643 128.5949258  53.0107364  99.2925982
 120.4715388  42.2992497 102.0824604 120.5099488  41.7656087 102.8761722
 119.9655681  41.7727702 101.4635581 132.8741657  54.7981888 104.9765262
 133.4259965  54.9613509 105.7414347 133.2147851  55.3886325 104.3045287
 127.8506150  37.1457037 105.5787146 127.9147477  38.0071868 105.1664544
 127.7873271  36.5331039 104.8459505 127.3258423  39.2180170 109.2260181
 127.9530462  38.8357247 109.8397705 126.4686342  38.9994372 109.5915873
 137.7252531  49.6243145 110.8313916 138.2692435  50.2373103 110.3368871
 137.1439376  50.1822723 111.3480929 124.1023966  41.0256599  95.1578536
 124.3977407  40.1167277  95.1045589 123.2012001  41.0044338  94.8359538
 136.0110044  52.7463863 101.9628944 135.8861184  51.9453603 101.4539889
 136.6689135  53.2410056 101.4742914 127.6318213  39.1012596 101.1406084
 126.9104798  39.7148563 101.0013557 128.4211468  39.6370360 101.0622730
 138.0744953  50.5472883 103.5908494 137.1275288  50.4278234 103.5186821
 138.4227726  49.6595381 103.6734755 130.4344526  36.4367022 107.4146736
 130.9578928  36.6829319 108.1773045 130.2156859  37.2687057 106.9949873
 125.8311807  38.7070697  95.2817861 125.5024513  37.8268076  95.0992967
 126.1851178  38.6518365  96.1694250 135.0791386  50.3425599  99.7912846
 134.9316348  49.4142307  99.9720416 135.9044880  50.3645690  99.3069921
 128.9453630  38.9943666  95.6493338 129.2849703  39.5229588  94.9271947
 129.3925751  39.3324073  96.4251905 138.6825508  51.1654158 100.8777719
 139.6072055  50.9597019 100.7402170 138.5140811  50.9170559 101.7867061
 131.6397071  37.3780717 105.0996406 131.2993892  36.5788530 105.5017086
 130.9336077  37.6782428 104.5273240 132.2913543  34.4630030 103.5523729
 133.1139612  33.9890508 103.4302620 132.5351607  35.2420513 104.0522416
 130.9321777  37.4918288  93.8486631 131.6530140  37.8699541  93.3450348
 130.3087082  38.2107165  93.9521609 135.0752900  38.1963437  94.7844964
 135.2916515  39.0788075  94.4833792 134.5946968  37.8049650  94.0550605
 129.8152122  41.1549150 101.3615708 129.6696702  41.4689453 102.2539990
 129.3377325  41.7734051 100.8086607 131.6748505  38.1451698 101.4096598
 131.6610073  37.2492791 101.0728896 132.3920933  38.1522362 102.0434884
 133.5274635  38.5789038 103.4549725 133.2692413  39.5006109 103.4534056
 132.9959676  38.1819473 104.1450189 138.4720824  51.6839826  96.2339810
 138.6457702  51.1186248  95.4813663 138.9649715  52.4840720  96.0519300
 124.2897784  43.6954495 104.3003369 123.7451252  44.4714303 104.4323644
 125.1677134  44.0425299 104.1422491 131.0785401  37.0266078  96.6784168
 131.2001312  36.0982725  96.8775055 130.7887443  37.0404764  95.7662483
 133.9476591  34.7120989  99.8150888 133.9698288  34.7760322  98.8602867
 134.3644650  33.8725498 100.0091394 144.3260215  44.4476248  97.8530110
 144.7691361  43.6983574  97.4549233 143.4486726  44.4386385  97.4703842
 139.4595997  51.0006590  93.3336709 140.1546901  51.6213283  93.5524023
 139.8019147  50.1501941  93.6089087 125.0763806  42.8224391 107.1933526
 124.3345542  42.9707026 107.7798157 124.7556550  43.0832656 106.3300276
 141.3587420  48.4506295  94.8624040 141.8838744  48.7893568  94.1373360
 141.2709772  47.5153311  94.6787174 133.0207468  52.3640369 106.9913916
 133.3294595  52.1189516 107.8636616 133.8182950  52.5687008 106.5032786
 133.0428080  54.5178279  99.2219293 132.6033071  54.0254657  99.9152149
 133.7936197  53.9751246  98.9811368 125.5220419  50.7089820  99.2243921
 126.3478439  50.4093591  98.8442564 125.1714471  49.9397442  99.6733709
 130.4901953  50.0616288 101.2941594 129.8681962  49.3986993 100.9943822
 131.1606820  50.0877420 100.6115242 123.7229025  48.6276146 100.1832854
 122.8860933  48.1998320 100.0016856 123.6952670  48.8208589 101.1203646
 130.5626480  38.5398076 110.8874100 130.6114636  39.4160199 110.5051870
 131.1048994  37.9975469 110.3145744 141.0481326  49.0839199 110.1675237
 140.2576869  49.0663338 109.6279737 140.8114680  49.6227493 110.9224274
 141.1679201  45.9331665 107.4807966 141.2177206  45.7681673 108.4223489
 141.0593124  45.0658924 107.0905847 130.0515460  48.6120211  94.7700055
 130.2003580  49.2955676  94.1166728 130.8581903  48.5925301  95.2849511
 138.4582963  41.9162593 108.7967273 139.3592826  41.7769058 108.5051271
 138.5330938  42.0817048 109.7365450 132.7925769  39.2929448 107.6420459
 131.9229078  39.5863014 107.3703048 133.0285249  39.8769893 108.3627723
 142.6697398  48.3528607 107.7249988 142.3782206  48.7158588 108.5613449
 142.0569529  47.6395615 107.5463320 143.8693080  45.9181487 100.2452558
 144.7039971  46.3571291 100.4090118 144.0052209  45.4420140  99.4260804
 140.9184586  43.4761222 106.1930046 141.3938708  43.6688868 105.3848897
 139.9950151  43.5320407 105.9473429 127.8068093  44.6385389  95.7761124
 127.5614134  43.7347719  95.9741334 127.9764007  44.6402539  94.8340602
 135.4964802  35.5109065 105.1585879 136.0146746  36.2470092 104.8332368
 135.1419935  35.8173058 105.9932639 127.0763740  40.3713746  93.2747285
 126.3832985  40.4458101  92.6187321 126.8315492  39.6074090  93.7968802
 135.7477397  31.9309348 100.6786776 136.0279150  31.2632537 101.3047203
 136.5328003  32.1238443 100.1661440 133.5510865  51.1068342  92.2411802
 132.9784832  51.7258529  91.7882274 134.1243659  51.6567703  92.7751724
 139.6186255  40.3526982 104.4258351 140.5703678  40.4525079 104.4470575
 139.4489705  39.5605250 104.9356436 137.6400634  37.4382565 104.6117752
 137.0450566  37.7187578 103.9164241 137.3550331  37.9276466 105.3834493
 136.7708125  51.3905492  93.3720385 137.7038798  51.3251053  93.5753260
 136.6831338  52.2261759  92.9134917 139.3996142  50.7071362  90.3324332
 139.3209773  50.3731226  91.2260090 140.2205808  51.1993130  90.3315805
 142.0974333  43.5733101 103.5400651 142.0650653  42.6349102 103.7260335
 142.7074956  43.6517138 102.8066476 133.9357664  42.4429154  89.5827855
 134.8816768  42.3135362  89.6516273 133.5571909  41.7043816  90.0597283
 142.2468821  40.3644145 103.5858934 141.7307870  39.5802601 103.3988863
 143.1308770  40.0362861 103.7505453 139.9079548  34.1085160  99.5454747
 139.7104369  33.8000249 100.4298079 140.5179254  34.8346799  99.6752677
 145.9966180  42.7756971 103.2781139 145.2699343  42.6412936 102.6697630
 145.5813467  43.0833799 104.0837857 133.8196356  46.4946900 111.0428512
 134.7399366  46.6725499 111.2368558 133.7845939  45.5502946 110.8908211
 132.1200581  40.3679131  89.5182740 131.2132036  40.0712243  89.5945454
 132.3976562  40.0708949  88.6517026 123.0378521  41.6885494  99.9681786
 122.7181305  40.8350802  99.6756160 122.4911949  41.9034072 100.7239754
 126.8158429  44.4047935 103.6851293 127.0344438  45.3365043 103.7039327
 127.2284202  44.0455910 104.4706097 133.7362646  34.9116020  95.6726981
 132.9263375  34.5663105  96.0482227 134.4247063  34.6023564  96.2614593
 135.6653195  33.9894067  97.2951278 136.2184233  34.4089521  97.9541301
 135.9023281  33.0629815  97.3374234 131.6886294  39.9781141 113.0754042
 131.5883021  40.9275498 113.0066133 131.4707836  39.6499380 112.2030112
 130.8899365  37.2266066  89.6594719 131.7518529  37.5520964  89.9190537
 131.0749709  36.4397562  89.1467785 122.9066781  45.3088406 101.9374908
 122.2130253  44.8942358 101.4244862 123.6539772  45.3508942 101.3408327
 139.0432002  36.0994592  96.8029942 138.4630671  36.7579396  96.4207995
 138.7767934  35.2771937  96.3917360 137.4935568  35.4999650  99.0051263
 137.9935347  35.6116185  98.1965581 138.1371176  35.1960703  99.6452071
 131.5517564  43.4078280 111.8919104 131.0684646  44.2078640 112.0982993
 131.6378503  43.4186225 110.9386548 124.8203524  45.2406659  99.8140923
 124.7974212  45.3394347  98.8622806 125.1304160  46.0871810 100.1358089
 127.4790902  47.2982814 103.9287537 128.4334155  47.2666757 103.8617469
 127.2803425  46.8373438 104.7437763 128.0690284  45.8683930 106.4958335
 128.8883173  46.3628009 106.5193172 128.3427091  44.9515899 106.4675903
 137.8256880  38.2594683  95.8586291 136.9382735  38.5444333  95.6406485
 138.2410869  38.0988446  95.0113567 141.1771416  38.2841204  99.5740630
 141.9531806  38.7737656  99.8465247 140.4519550  38.7099258 100.0312499
 143.6143975  38.9968823 100.6314570 144.2088465  38.7564559  99.9207879
 143.6870558  38.2775954 101.2588107 125.8341130  52.8402434 100.9457735
 125.6995598  52.0802835 100.3795733 125.4173193  53.5643334 100.4786524
 136.9700093  48.0239357  89.9534311 137.6735943  48.2289360  90.5691966
 136.2462742  48.5916119  90.2183394 137.7997904  43.7749219  96.0736581
 137.7433105  44.2317770  95.2344213 138.3526246  43.0139903  95.8959423
 141.6102709  39.5638951  96.8986700 141.3539644  39.1635586  97.7294908
 140.9855578  40.2782745  96.7736839 145.9215047  42.3035024  99.4057992
 145.3614605  42.3728213 100.1789554 145.3158551  42.1276008  98.6857488
 128.9910256  53.7371751 101.1576178 128.8742640  54.6817183 101.0554868
 128.1702702  53.4345313 101.5461977 138.8786791  48.4621887  92.0032771
 139.7132395  48.0303085  91.8210245 138.7171134  48.2903900  92.9309665
 138.5332683  44.9654000  93.3689110 138.4781487  44.7998271  92.4277554
 137.9078738  45.6730033  93.5251300 123.3225198  40.2022064 107.1950532
 123.9684061  39.6921018 107.6837757 123.1142349  40.9390746 107.7693957
 135.8478590  47.2702912 112.6942673 136.7169750  47.4443564 112.3329308
 135.3685342  48.0897329 112.5718402 131.8428808  34.4662109  92.9474428
 131.8307478  35.4103949  93.1042699 132.7352230  34.2832254  92.6533889
 130.0164770  54.3900013 104.3732106 130.9192017  54.4223623 104.6898601
 129.7902140  53.4600464 104.3878442 131.7718372  53.1430999 101.0342185
 130.8214003  53.1432861 100.9206557 132.0750858  52.3963734 100.5178220
 135.6580928  31.0604886  97.2020365 134.8913324  30.5063372  97.3477047
 136.0691633  31.1326754  98.0634517 127.6622689  37.3489681 111.2925546
 128.5254150  36.9926486 111.5028871 127.0888100  37.0103576 111.9800951
 144.3160772  58.9318966 102.0349472 143.9779284  58.8160031 101.1470007
 145.1850540  58.5310131 102.0150478 140.1747588  60.7854442  98.0246363
 139.6112453  60.6944379  97.2562651 140.0599983  59.9654347  98.5048855
 144.7980555  60.0853818 107.9935678 144.7869196  59.6906616 107.1216181
 144.9601195  59.3519890 108.5869449 137.7212020  62.2805634 100.8630583
 138.5133312  61.9396459 100.4476883 137.9608670  62.3900609 101.7832737
 145.7547147  64.4525410  93.3360828 145.1035126  65.0379490  92.9494842
 146.5491509  64.9831605  93.3955865 139.6802774  61.5414547  93.7347962
 140.4533650  60.9943534  93.5960838 140.0328173  62.4058796  93.9462424
 141.5187816  62.8690929 106.9414862 141.2277682  63.7736560 106.8261528
 142.1544801  62.9107457 107.6558931 142.4444023  60.2467778 103.5316221
 143.0407595  60.0223800 102.8173184 142.5018995  59.5052523 104.1341669
 142.0169051  57.7007213  91.3666412 142.2694572  57.1788735  90.6049875
 141.0793611  57.5373359  91.4693096 147.0612334  56.7042992  99.1741155
 147.8475424  56.2862415  98.8231572 147.3251039  57.6089084  99.3422804
 147.2322412  62.1415842  93.8729812 146.5968245  62.2150468  94.5850717
 146.9019818  62.7309441  93.1948891 141.7365340  59.6035319  93.5690787
 141.6201598  58.9280223  94.2371871 141.8467600  59.1167693  92.7522940
 144.0796881  59.0645466  97.2737476 143.7155088  58.5376087  97.9850398
 144.9363997  58.6743935  97.1003962 143.7202368  54.0935366  92.2698825
 143.8876770  54.9615602  92.6369296 143.5299537  54.2562648  91.3460114
 146.4777701  62.5552345 103.9364655 146.1778424  63.4577384 103.8280462
 146.1328761  62.2884528 104.7885808 139.9290183  59.0066142  99.9701360
 139.0040679  58.8742356 100.1779051 140.1774596  59.7860361 100.4671302
 143.6991589  56.5493024  93.2545492 143.5791214  56.9950074  94.0930972
 143.0044177  56.8978341  92.6959030 137.2898994  58.6499415 100.8045149
 137.4191375  58.9033894 101.7184560 136.6096445  59.2427123 100.4849804
 141.4598481  69.3196665  96.9035623 141.3822511  70.2704490  96.9824103
 140.8560125  68.9742538  97.5610549 143.9515711  56.4924531 109.5596990
 143.1749045  57.0518451 109.5499854 144.5906274  56.9781314 110.0811860
 142.2062083  59.3009984 109.1214957 142.9476768  59.8395028 108.8449780
 141.4999069  59.9276273 109.2786509 144.0348493  56.3811731 105.0920675
 144.8809688  56.8051145 105.2355324 143.9747131  55.7245356 105.7859238
 147.1847938  54.0416100 106.7501849 146.9408870  54.7958160 106.2136125
 147.4607869  54.4201447 107.5849096 146.7412630  53.1972533 102.3315687
 145.8797109  53.4953786 102.6232424 146.7675065  53.4142932 101.3996719
 143.5574199  61.7414723  98.7389492 144.0212545  62.0202426  97.9494115
 143.2930997  60.8398168  98.5562583 140.4498280  61.2886205 101.6769256
 141.0199637  61.7173473 101.0386740 141.0406392  61.0068789 102.3753441
 142.4943085  57.8637876  95.5479057 143.1967129  58.3158919  96.0152984
 142.1623714  57.2221694  96.1758951 140.9423447  56.4549632 109.9230267
 140.3122107  57.1365913 110.1565664 140.8359535  56.3432714 108.9783405
 136.2368419  56.1221428 100.8496191 135.4467473  56.3778957 100.3736302
 136.7279667  56.9369766 100.9548232 138.1883165  56.4866008  97.8079668
 137.3914328  56.5984702  98.3263163 137.9608757  56.8252660  96.9420558
 144.0188832  63.0110711 105.7562182 144.0833265  63.4731118 106.5920354
 143.3099756  62.3808076 105.8844492 134.5206122  56.3751919 103.2811182
 134.7714161  57.2598929 103.5468758 135.0565671  56.1956520 102.5086274
 143.7336850  64.6778818  95.6241163 143.5982525  65.5230354  96.0526010
 144.2746663  64.8798096  94.8607096 140.2204190  50.7570398 112.2855518
 139.8271135  50.2036597 112.9603162 141.0370330  51.0680977 112.6762035
 137.1866247  62.1954256  96.1969088 137.6990768  62.9897507  96.3474652
 137.8388960  61.4980547  96.1302689 138.9961132  65.3120013  98.2791841
 139.1727760  66.2337977  98.0912825 139.7917966  64.9978432  98.7086221
 143.1372151  52.1728277 109.8775774 143.8781864  52.7735430 109.7980237
 143.3690073  51.4305915 109.3193817 138.2813489  57.3584644 108.1554004
 138.1667004  56.4569902 108.4561103 137.4258006  57.6048341 107.8038821
 145.3605326  65.3002385 109.7541505 144.9169181  64.5138763 109.4362409
 146.0222540  65.4881535 109.0885395 140.1192448  66.8298186 104.2802183
 140.6699873  66.7015250 103.5079177 139.2803923  67.1293075 103.9297076
 143.9159619  63.0949314 108.6246414 144.4487955  62.3337602 108.3945722
 143.3873700  62.8022966 109.3670569 147.0829314  48.2009380 104.1540056
 146.7393583  49.0911022 104.0779167 147.4508276  48.0111038 103.2909641
 135.1515164  60.5242911  96.9728658 135.9890386  60.9339919  96.7562366
 135.3293432  59.5842353  96.9428852 147.0479596  58.1917991  92.6612491
 146.5326220  58.9622596  92.9000879 146.7756905  57.5183127  93.2845553
 144.6326707  53.0367692  97.7197730 143.7768304  52.6474542  97.5403368
 145.0453659  53.1159653  96.8597515 146.1625854  50.5714035 102.1189289
 145.6590650  50.5344170 101.3057095 146.4556461  51.4806778 102.1785946
 142.4068740  50.6552765 101.1255471 143.2721737  50.4595574 100.7661361
 142.4746249  50.4263117 102.0524828 146.8365899  56.0645083  94.4872272
 146.5316035  56.3791233  95.3382416 147.7896342  56.1426503  94.5299605
 145.2812331  62.2235307  96.1365226 144.7533693  61.4888066  95.8238464
 144.7799834  63.0009983  95.8905195 140.0131059  52.8854973  98.4971838
 140.5874811  52.6630154  97.7645031 140.6002041  52.9543667  99.2500439
 140.3400646  54.9159434  92.5167723 139.5037958  55.2534120  92.8376998
 140.2005416  54.7808414  91.5794860 142.3153727  49.7596222  97.2246907
 141.6618139  49.4445239  96.6003522 142.2734201  49.1371962  97.9506730
 143.4264931  60.0415517  89.1400199 142.5191993  59.8104770  89.3391348
 143.9235963  59.2453136  89.3274181 146.3333010  68.7513024  92.0596886
 145.6594709  69.0544721  92.6681843 146.7198832  69.5542104  91.7102343
 145.5491467  56.2478155 101.5494555 144.6314028  56.4693102 101.3916243
 145.9651611  56.3224466 100.6906262 146.3326515  57.6469571  96.6797235
 147.0798334  58.1590968  96.3704357 146.6018104  57.3253624  97.5401629
 144.6053165  60.1428112  93.6624189 143.6964384  59.8587145  93.7596659
 144.6348249  60.5627190  92.8027496 135.1741335  57.8633626  97.6439392
 134.9765735  57.2702987  96.9190458 134.6187999  57.5585836  98.3615330
 143.1538059  57.7556732  99.7633985 143.2086669  56.8030569  99.6876461
 142.3429261  57.9116171 100.2475283 144.3029253  61.6836855  91.0012268
 143.8648683  60.9672714  90.5417905 145.0439694  61.9112970  90.4397359
 141.0930419  56.3733792  97.5224364 140.2798284  56.6727963  97.9289556
 141.5889413  55.9789481  98.2398846 143.2438997  66.3691549  99.4558628
 143.2015176  66.5952395  98.5267160 144.1601696  66.1354924  99.6044430
 146.6904631  56.8375617 106.3539258 147.0454018  57.0647090 107.2133723
 147.3376762  57.1693993 105.7316513 140.5844494  53.9452148 103.1385599
 141.2243873  53.8040907 102.4408562 139.7522024  53.6586661 102.7624201
 141.3604798  63.2454578  99.2520591 142.1545396  62.7504898  99.0503166
 140.6496490  62.7172441  98.8888297 146.1799642  65.6272674 103.6032959
 146.2336664  66.1963610 104.3710675 145.3114423  65.7974559 103.2386996
 137.6687561  57.3897660  95.3280344 136.7385149  57.3282115  95.5450306
 137.7645033  56.8673613  94.5316985 137.5873110  53.9152473  97.9158585
 137.8479927  54.8297806  97.8067746 138.4090282  53.4476915  98.0655198
 139.0598035  55.3290230 105.0857410 139.7321089  55.1207592 104.4370059
 138.2327822  55.1312316 104.6462642 144.9623607  51.9552171 107.1023071
 144.3151522  52.6542120 107.0087547 145.7324623  52.3888315 107.4699319
 145.1387742  59.7932936 105.1619891 146.0679802  59.9444095 104.9888858
 144.7178772  59.8816956 104.3068537 143.9376074  63.8183600 102.9318428
 143.7987159  63.4502384 103.8044366 143.1490670  64.3331239 102.7602386
 144.5324226  68.9192697  94.2743965 144.7075981  68.4480740  95.0889587
 143.8457014  69.5458463  94.5025225 145.4881289  63.1965203 100.3207266
 145.1531121  63.1565973 101.2164916 144.9885234  62.5309919  99.8477676
 139.4625533  58.6032833 105.8459847 139.3245331  57.8713072 106.4471386
 140.3730456  58.5141733 105.5644035 142.0907833  58.3152792 105.3343527
 142.8007452  57.6745984 105.2930145 142.0477141  58.5665687 106.2569708
 140.8036767  55.3018010 107.1539166 140.2674124  54.8508748 107.8060763
 140.2153476  55.4363919 106.4109631 139.0985311  72.0682059 101.0483825
 139.3381909  72.7000583 101.7262843 138.2554507  71.7170099 101.3349184
 140.2139026  54.7606661  89.7165630 139.3368493  54.6395462  89.3527877
 140.6896779  53.9692740  89.4644519 131.7341166  59.5483821  99.8107137
 132.4212206  59.2345551  99.2228152 131.5789295  60.4525186  99.5374388
 136.5375889  54.4374018 104.2392161 136.4534077  53.8299687 103.5042571
 135.7158595  54.9283036 104.2401657 143.6113173  67.8761182 103.4525329
 143.5383344  68.6816153 103.9644633 143.1690566  68.0753148 102.6273350
 143.4002952  67.1132952  96.9628150 142.6170474  67.6554632  97.0566375
 144.0995697  67.6306931  97.3622392 146.7099602  52.9227581  99.6062356
 147.2068302  52.1697544  99.2863426 145.9386584  52.9591898  99.0405565
 146.0711856  67.7748016 105.6083488 146.7839828  68.4095481 105.5359389
 145.5801885  67.8711882 104.7923489 143.2934571  55.0644964  99.3334040
 142.9232359  54.5116005 100.0214946 143.7893664  54.4603098  98.7809040
 141.1223770  65.5242459 106.4289058 141.8233229  66.1578942 106.5818453
 140.6518885  65.8657191 105.6684698 145.8832230  68.1146760  98.3569779
 146.0654624  67.2968416  98.8197531 146.7065216  68.3314452  97.9194669
 146.2174395  67.0414945  95.6184827 146.7462161  66.5307400  95.0054990
 146.4802615  66.7257475  96.4830361 144.9712629  58.8206878 110.7407646
 144.2953266  58.7201007 111.4110021 145.7940263  58.6646091 111.2043643
 136.7191488  65.0578814 103.3620161 137.3044925  64.3122502 103.4948065
 136.5216326  65.3682771 104.2456825 139.5730143  68.0930062  98.3782603
 138.9040518  68.5776189  97.8946643 139.4343013  68.3399282  99.2925982
 131.3109143  57.6284414 102.0824604 131.3493242  57.0948005 102.8761722
 130.8049435  57.1019620 101.4635581 143.7135412  70.1273805 104.9765262
 144.2653720  70.2905427 105.7414347 144.0541605  70.7178243 104.3045287
 138.6899905  52.4748955 105.5787146 138.7541231  53.3363786 105.1664544
 138.6267025  51.8622957 104.8459505 138.1652177  54.5472088 109.2260181
 138.7924216  54.1649165 109.8397705 137.3080096  54.3286289 109.5915873
 134.9417720  56.3548517  95.1578536 135.2371161  55.4459195  95.1045589
 134.0405756  56.3336256  94.8359538 146.8503799  68.0755781 101.9628944
 146.7254938  67.2745521 101.4539889 147.5082890  68.5701974 101.4742914
 138.4711967  54.4304513 101.1406084 137.7498553  55.0440481 101.0013557
 139.2605223  54.9662278 101.0622730 141.2738281  51.7658940 107.4146736
 141.7972682  52.0121236 108.1773045 141.0550614  52.5978975 106.9949873
 136.6705562  54.0362614  95.2817861 136.3418268  53.1559993  95.0992967
 137.0244932  53.9810283  96.1694250 145.9185141  65.6717517  99.7912846
 145.7710103  64.7434224  99.9720416 146.7438634  65.6937608  99.3069921
 139.7847385  54.3235584  95.6493338 140.1243457  54.8521505  94.9271947
 140.2319505  54.6615990  96.4251905 142.4790826  52.7072635 105.0996406
 142.1387646  51.9080448 105.5017086 141.7729832  53.0074346 104.5273240
 143.1307297  49.7921947 103.5523729 143.9533367  49.3182425 103.4302620
 143.3745361  50.5712431 104.0522416 141.7715532  52.8210206  93.8486631
 142.4923894  53.1991458  93.3450348 141.1480836  53.5399082  93.9521609
 145.9146655  53.5255355  94.7844964 146.1310269  54.4079993  94.4833792
 145.4340722  53.1341568  94.0550605 140.6545876  56.4841068 101.3615708
 140.5090457  56.7981371 102.2539990 140.1771080  57.1025968 100.8086607
 142.5142259  53.4743616 101.4096598 142.5003828  52.5784709 101.0728896
 143.2314687  53.4814280 102.0434884 144.3668390  53.9080956 103.4549725
 144.1086168  54.8298027 103.4534056 143.8353430  53.5111391 104.1450189
 135.1291538  59.0246412 104.3003369 134.5845006  59.8006220 104.4323644
 136.0070888  59.3717217 104.1422491 141.9179155  52.3557996  96.6784168
 142.0395066  51.4274642  96.8775055 141.6281197  52.3696682  95.7662483
 144.7870345  50.0412907  99.8150888 144.8092042  50.1052240  98.8602867
 145.2038404  49.2017415 100.0091394 135.9157560  58.1516309 107.1933526
 135.1739296  58.2998944 107.7798157 135.5950305  58.4124574 106.3300276
 143.8601223  67.6932287 106.9913916 144.1688349  67.4481434 107.8636616
 144.6576705  67.8978925 106.5032786 143.8821835  69.8470196  99.2219293
 143.4426825  69.3546575  99.9152149 144.6329952  69.3043164  98.9811368
 136.3614174  66.0381737  99.2243921 137.1872194  65.7385509  98.8442564
 136.0108226  65.2689360  99.6733709 141.3295707  65.3908205 101.2941594
 140.7075716  64.7278911 100.9943822 142.0000574  65.4169337 100.6115242
 134.5622779  63.9568064 100.1832854 133.7254687  63.5290238 100.0016856
 134.5346424  64.1500507 101.1203646 141.4020235  53.8689994 110.8874100
 141.4508390  54.7452116 110.5051870 141.9442749  53.3267387 110.3145744
 140.8909214  63.9412129  94.7700055 141.0397334  64.6247593  94.1166728
 141.6975657  63.9217219  95.2849511 143.6319523  54.6221366 107.6420459
 142.7622832  54.9154932 107.3703048 143.8679003  55.2061811 108.3627723
 138.6461847  59.9677306  95.7761124 138.4007889  59.0639636  95.9741334
 138.8157762  59.9694457  94.8340602 146.3358557  50.8400983 105.1585879
 146.8540501  51.5762010 104.8332368 145.9813690  51.1464976 105.9932639
 137.9157495  55.7005664  93.2747285 137.2226739  55.7750019  92.6187321
 137.6709246  54.9366008  93.7968802 146.5871151  47.2601265 100.6786776
 146.8672905  46.5924454 101.3047203 147.3721758  47.4530361 100.1661440
 144.3904620  66.4360259  92.2411802 143.8178587  67.0550446  91.7882274
 144.9637413  66.9859621  92.7751724 144.7751418  57.7721072  89.5827855
 145.7210523  57.6427280  89.6516273 144.3965663  57.0335734  90.0597283
 144.6590111  61.8238818 111.0428512 145.5793120  62.0017417 111.2368558
 144.6239694  60.8794864 110.8908211 142.9594335  55.6971048  89.5182740
 142.0525791  55.4004161  89.5945454 143.2370316  55.4000867  88.6517026
 133.8772276  57.0177412  99.9681786 133.5575060  56.1642720  99.6756160
 133.3305704  57.2325990 100.7239754 137.6552183  59.7339853 103.6851293
 137.8738193  60.6656961 103.7039327 138.0677957  59.3747827 104.4706097
 144.5756401  50.2407938  95.6726981 143.7657129  49.8955023  96.0482227
 145.2640818  49.9315482  96.2614593 146.5046949  49.3185985  97.2951278
 147.0577988  49.7381438  97.9541301 146.7417036  48.3921733  97.3374234
 142.5280048  55.3073059 113.0754042 142.4276775  56.2567416 113.0066133
 142.3101590  54.9791297 112.2030112 141.7293120  52.5557984  89.6594719
 142.5912284  52.8812882  89.9190537 141.9143464  51.7689480  89.1467785
 133.7460536  60.6380323 101.9374908 133.0524007  60.2234276 101.4244862
 134.4933527  60.6800860 101.3408327 142.3911319  58.7370197 111.8919104
 141.9078400  59.5370558 112.0982993 142.4772258  58.7478142 110.9386548
 135.6597278  60.5698577  99.8140923 135.6367966  60.6686264  98.8622806
 135.9697915  61.4163728 100.1358089 138.3184656  62.6274732 103.9287537
 139.2727910  62.5958674 103.8617469 138.1197180  62.1665356 104.7437763
 138.9084038  61.1975848 106.4958335 139.7276927  61.6919927 106.5193172
 139.1820846  60.2807816 106.4675903 136.6734885  68.1694352 100.9457735
 136.5389353  67.4094753 100.3795733 136.2566947  68.8935251 100.4786524
 139.8304011  69.0663669 101.1576178 139.7136395  70.0109101 101.0554868
 139.0096457  68.7637230 101.5461977 134.1618952  55.5313982 107.1950532
 134.8077816  55.0212936 107.6837757 133.9536103  56.2682664 107.7693957
 146.6872345  62.5994830 112.6942673 147.5563504  62.7735482 112.3329308
 146.2079096  63.4189246 112.5718402 142.6822563  49.7954027  92.9474428
 142.6701233  50.7395867  93.1042699 143.5745985  49.6124172  92.6533889
 140.8558525  69.7191931 104.3732106 141.7585771  69.7515541 104.6898601
 140.6295895  68.7892381 104.3878442 142.6112127  68.4722917 101.0342185
 141.6607758  68.4724779 100.9206557 142.9144613  67.7255652 100.5178220
 146.4974682  46.3896803  97.2020365 145.7307078  45.8355290  97.3477047
 146.9085387  46.4618672  98.0634517 138.5016443  52.6781599 111.2925546
 139.3647905  52.3218404 111.5028871 137.9281854  52.3395494 111.9800951
 147.0762174  71.4513346 100.8496191 146.2861228  71.7070874 100.3736302
 147.5673421  72.2661684 100.9548232 145.3599877  71.7043836 103.2811182
 145.6107915  72.5890846 103.5468758 145.8959425  71.5248438 102.5086274
 145.9908919  75.8534828  96.9728658 146.8284141  76.2631837  96.7562366
 146.1687186  74.9134270  96.9428852 146.0135090  73.1925544  97.6439392
 145.8159490  72.5994904  96.9190458 145.4581754  72.8877754  98.3615330
 142.5734921  74.8775739  99.8107137 143.2605961  74.5637469  99.2228152
 142.4183050  75.7817103  99.5374388 147.3769643  69.7665935 104.2392161
 147.2927832  69.1591605 103.5042571 146.5552349  70.2574954 104.2401657
 142.1502897  72.9576332 102.0824604 142.1886997  72.4239923 102.8761722
 141.6443190  72.4311538 101.4635581 145.7811475  71.6840434  95.1578536
 146.0764916  70.7751113  95.1045589 144.8799510  71.6628174  94.8359538
 145.9685293  74.3538330 104.3003369 145.4238761  75.1298138 104.4323644
 146.8464643  74.7009134 104.1422491 146.7551315  73.4808226 107.1933526
 146.0133051  73.6290862 107.7798157 146.4344059  73.7416492 106.3300276
 145.4016533  79.2859981 100.1832854 144.5648442  78.8582156 100.0016856
 145.3740179  79.4792425 101.1203646 144.7166030  72.3469330  99.9681786
 144.3968814  71.4934638  99.6756160 144.1699458  72.5617908 100.7239754
 144.5854290  75.9672241 101.9374908 143.8917762  75.5526194 101.4244862
 145.3327281  76.0092778 101.3408327 146.4991033  75.8990495  99.8140923
 146.4761721  75.9978182  98.8622806 146.8091669  76.7455646 100.1358089
 147.5128639  83.4986269 100.9457735 147.3783107  82.7386670 100.3795733
 147.0960702  84.2227169 100.4786524 145.0012707  70.8605900 107.1950532
 145.6471570  70.3504854 107.6837757 144.7929858  71.5974581 107.7693957
 119.7810973  15.6674953  83.6280930 119.7035003  16.6182778  83.7069410
 119.1772617  15.3220825  84.2855856 118.4404940  13.1776474  91.0047490
 118.9912365  13.0493537  90.2324484 117.6016416  13.4771363  90.6542383
 124.6545503  15.0991311  78.7842192 123.9807201  15.4023008  79.3927150
 125.0411325  15.9020392  78.4347649 122.8536718  15.2670984  80.9989271
 123.0288473  14.7959027  81.8134894 122.1669506  15.8936750  81.2270532
 117.4197803  18.4160347  87.7729132 117.6594401  19.0478871  88.4508150
 116.5767000  18.0648387  88.0594491 121.9325665  14.2239469  90.1770636
 121.8595836  15.0294440  90.6889940 121.4903058  14.4231435  89.3518657
 121.7215445  13.4611239  83.6873457 120.9382966  14.0032919  83.7811682
 122.4208190  13.9785219  84.0867698 124.3924348  14.1226303  92.3328794
 125.1052321  14.7573768  92.2604696 123.9014377  14.2190169  91.5168796
 117.8942635  14.4408349  85.1027910 117.2253011  14.9254477  84.6191950
 117.7555505  14.6877569  86.0171289 122.0347904  16.4752092  91.7010568
 122.5866212  16.6383714  92.4659654 122.3754097  17.0656530  91.0290593
 122.1813715  14.0410574  93.7159223 122.4900842  13.7959721  94.5881922
 122.9789197  14.2457212  93.2278093 122.2034327  16.1948484  85.9464599
 121.7639318  15.7024862  86.6397456 122.9542444  15.6521451  85.7056675
 114.6826666  12.3860024  85.9489227 115.5084686  12.0863796  85.5687871
 114.3320718  11.6167647  86.3979016 112.8835271  10.3046351  86.9078161
 112.0467180   9.8768525  86.7262162 112.8558917  10.4978794  87.8448952
 114.9947377  14.5172639  87.6703042 114.8601845  13.7573040  87.1041040
 114.5779439  15.2413539  87.2031831 118.1516503  15.4141956  87.8821485
 118.0348887  16.3587388  87.7800175 117.3308949  15.1115517  88.2707284
 119.1771017  16.0670218  91.0977413 120.0798264  16.0993828  91.4143908
 118.9508387  15.1370669  91.1123749 120.9324619  14.8201204  87.7587492
 119.9820250  14.8203066  87.6451864 121.2357105  14.0733939  87.2423526
 136.6677313  20.6561743  88.8233254 137.3055723  20.5368490  88.1196594
 136.5498155  21.6042587  88.8821206 133.4767019  20.6089171  88.7594779
 133.1385530  20.4930236  87.8715314 134.3456787  20.2080336  88.7395785
 129.3353835  22.4624647  84.7491670 128.7718700  22.3714584  83.9807957
 129.2206230  21.6424552  85.2294162 133.9586802  21.7624023  94.7180984
 133.9475443  21.3676821  93.8461488 134.1207441  21.0290095  95.3114756
 126.8818266  23.9575839  87.5875890 127.6739558  23.6166663  87.1722189
 127.1214917  24.0670814  88.5078043 134.9153393  26.1295615  80.0606135
 134.2641373  26.7149695  79.6740148 135.7097756  26.6601810  80.1201172
 128.8409020  23.2184752  80.4593269 129.6139896  22.6713739  80.3206145
 129.1934419  24.0829001  80.6707730 130.6794063  24.5461134  93.6660168
 130.3883929  25.4506765  93.5506834 131.3151047  24.5877662  94.3804238
 131.6050270  21.9237983  90.2561528 132.2013842  21.6994005  89.5418491
 131.6625241  21.1822728  90.8586976 131.1775298  19.3777418  78.0911719
 131.4300819  18.8558939  77.3295182 130.2399857  19.2143564  78.1938402
 136.3928658  23.8186047  80.5975119 135.7574491  23.8920673  81.3096023
 136.0626065  24.4079646  79.9194198 130.8971587  21.2805524  80.2936094
 130.7807845  20.6050428  80.9617178 131.0073847  20.7937898  79.4768247
 133.2403128  20.7415671  83.9982783 132.8761335  20.2146292  84.7095704
 134.0970244  20.3514140  83.8249268 135.6383948  24.2322550  90.6609962
 135.3384671  25.1347589  90.5525769 135.2935008  23.9654733  91.5131115
 129.0896430  20.6836347  86.6946666 128.1646926  20.5512561  86.9024358
 129.3380843  21.4630566  87.1916609 132.8597836  18.2263228  79.9790798
 132.7397461  18.6720279  80.8176279 132.1650424  18.5748546  79.4204336
 126.4505241  20.3269620  87.5290455 126.5797622  20.5804099  88.4429867
 125.7702692  20.9197328  87.2095110 130.6204728  30.9966870  83.6280930
 130.5428758  31.9474695  83.7069410 130.0166371  30.6512743  84.2855856
 133.1121958  18.1694736  96.2842296 132.3355292  18.7288656  96.2745161
 133.7512521  18.6551519  96.8057167 131.3668330  20.9780189  95.8460263
 132.1083014  21.5165233  95.5695087 130.6605315  21.6046478  96.0031815
 136.8423670  23.1209329  94.4432425 137.2507026  22.6791740  93.6987057
 136.1200931  22.5461957  94.6966618 133.1954740  18.0581936  91.8165982
 134.0415935  18.4821350  91.9600631 133.1353377  17.4015561  92.5104545
 137.1652484  23.6810520  88.1984714 136.5361347  23.8456234  87.4960782
 136.7778146  24.0952130  88.9695678 141.0441716  24.6164958  85.5529078
 140.3592754  24.9963859  85.0026111 141.1285565  25.2260285  86.2861025
 138.2992648  22.2624917  92.1524421 138.5109543  22.9056677  91.4758802
 138.2522396  21.4287234  91.6846351 132.7180446  23.4184928  85.4634799
 133.1818792  23.6972631  84.6739421 132.4537244  22.5168373  85.2807890
 129.6104527  22.9656410  88.4014562 130.1805884  23.3943678  87.7632047
 130.2012639  22.6838994  89.0998748 131.6549332  19.5408081  82.2724364
 132.3573375  19.9929124  82.7398290 131.3229961  18.8991899  82.9004257
 130.1029694  18.1319837  96.6475573 129.4728354  18.8136118  96.8810970
 129.9965782  18.0202919  95.7028712 125.3974666  17.7991633  87.5741498
 124.6073720  18.0549162  87.0981608 125.8885913  18.6139971  87.6793538
 139.4138476  25.1396872  90.3246778 140.2355919  24.7377060  90.0429460
 139.4100879  25.0365107  91.2762894 127.3489411  18.1636212  84.5324974
 126.5520575  18.2754907  85.0508470 127.1215004  18.5022865  83.6665865
 133.1795079  24.6880916  92.4807489 133.2439512  25.1501323  93.3165661
 132.4706003  24.0578281  92.6089799 123.6812369  18.0522124  90.0056488
 123.9320408  18.9369134  90.2714064 124.2171917  17.8726725  89.2331580
 132.8943097  26.3549023  82.3486469 132.7588772  27.2000559  82.7771317
 133.4352909  26.5568301  81.5852403 126.3472494  23.8724461  82.9214394
 126.8597015  24.6667711  83.0719959 126.9995207  23.1750752  82.8547996
 128.1567379  26.9890217  85.0037148 128.3334007  27.9108182  84.8158131
 128.9524212  26.6748637  85.4331527 127.4419735  19.0354849  94.8799311
 127.3273251  18.1340107  95.1806410 126.5864253  19.2818546  94.5284127
 134.5211573  26.9772590  96.4786811 134.0775427  26.1908968  96.1607716
 135.1828787  27.1651740  95.8130702 129.2798694  28.5068391  91.0047490
 129.8306119  28.3785455  90.2324484 128.4410170  28.8063280  90.6542383
 136.6192811  27.2575390  94.5068213 136.6011287  28.0784271  94.0148482
 137.5412731  27.1329465  94.7318354 133.0765865  24.7719519  95.3491721
 133.6094202  24.0107807  95.1191029 132.5479946  24.4793171  96.0915875
 124.3121411  22.2013115  83.6973965 125.1496633  22.6110124  83.4807673
 124.4899679  21.2612558  83.6674159 136.2085843  19.8688196  79.3857798
 135.6932466  20.6392801  79.6246185 135.9363152  19.1953332  80.0090859
 141.1820117  22.6220551  81.3210971 140.4049560  22.2831710  80.8766133
 141.8611598  22.6273174  80.6465936 134.4418578  23.9005512  82.8610533
 133.9139940  23.1658271  82.5483770 133.9406081  24.6780188  82.6150501
 139.4211424  22.0954532  87.9777579 138.7635099  22.7853793  88.0657708
 140.2251823  22.4850964  88.3211566 138.2316883  20.4498905  86.0281521
 138.7448765  21.0828897  86.5303231 138.8818107  19.8500100  85.6624881
 129.5006893  16.5929639  79.2413030 128.6644205  16.9304325  79.5622305
 129.3611662  16.4578619  78.3040167 132.5871178  21.7185722  75.8645506
 131.6798240  21.4874975  76.0636655 133.0842210  20.9223341  76.0519488
 135.4939257  30.4283229  78.7842192 134.8200956  30.7314926  79.3927150
 135.8805079  31.2312309  78.4347649 134.7097714  17.9248360  88.2739862
 133.7920275  18.1463307  88.1161550 135.1257857  17.9994671  87.4151569
 135.4932762  19.3239776  83.4042542 136.2404580  19.8361173  83.0949664
 135.7624351  19.0023829  84.2646935 133.7659412  21.8198317  80.3869496
 132.8570631  21.5357350  80.4841966 133.7954496  22.2397395  79.5272803
 138.9978679  25.4304906  84.1560664 138.5441006  24.5895816  84.2125854
 138.3672646  26.0666305  84.4935444 137.4411618  27.2681403  85.0910482
 137.7334593  27.8286460  84.3722847 137.9510239  27.5609964  85.8463641
 124.3347582  19.5403831  84.3684698 124.1371982  18.9473192  83.6435765
 123.7794246  19.2356041  85.0860637 132.3144306  19.4326937  86.4879291
 132.3692916  18.4800774  86.4121768 131.5035508  19.5886376  86.9720590
 133.4635500  23.3607060  77.7257575 133.0254929  22.6442919  77.2663212
 134.2045940  23.5883175  77.1642666 130.2536666  18.0503997  84.2469670
 129.4404531  18.3498168  84.6534862 130.7495660  17.6559686  84.9644153
 132.4045244  28.0461754  86.1803935 132.3621422  28.2722600  85.2512467
 133.3207942  27.8125129  86.3289736 135.8510877  18.5145822  93.0784564
 136.2060265  18.7417295  93.9379030 136.4983009  18.8464198  92.4561820
 141.5808614  21.6364257  83.7833893 141.4426513  21.8265853  82.8555082
 141.2244833  22.3983640  84.2401944 141.6077994  23.7040784  88.7945165
 142.0414501  23.6116074  89.6428219 142.3209575  23.6798285  88.1565181
 130.5211044  24.9224783  85.9765898 131.3151643  24.4275103  85.7748473
 129.8102737  24.3942646  85.6133603 135.3405889  27.3042879  90.3278265
 135.3942911  27.8733815  91.0955981 134.4720670  27.4744764  89.9632303
 126.8293808  19.0667865  82.0525650 125.8991396  19.0052320  82.2695613
 126.9251280  18.5443817  81.2562292 126.7479357  15.5922678  84.6403892
 127.0086174  16.5068011  84.5313053 127.5696529  15.1247120  84.7900505
 128.2204282  17.0060435  91.8102717 128.8927336  16.7977797  91.1615366
 127.3934069  16.8082521  91.3707949 142.4693543  23.7464485  91.3278050
 142.6629434  24.6510296  91.5737325 142.3694162  23.2871904  92.1616635
 137.5308652  23.8971228  96.9018931 137.3794159  23.6681780  95.9849014
 137.5213332  24.8541829  96.9150276 134.2993989  21.4703141  91.8865197
 135.2286049  21.6214300  91.7134165 133.8785019  21.5587161  91.0313844
 133.0982320  25.4953805  89.6563735 132.9593406  25.1272589  90.5289673
 132.3096917  26.0101444  89.4847693 133.6930472  30.5962901  80.9989271
 133.8682228  30.1250945  81.8134894 133.0063260  31.2228668  81.2270532
 134.6487535  24.8735408  87.0452573 134.3137368  24.8336178  87.9410223
 134.1491481  24.2080124  86.5722983 128.6231779  20.2803038  92.5705154
 128.4851577  19.5483277  93.1716693 129.5336703  20.1911938  92.2889342
 137.5846727  22.2191442  77.3189632 136.9675898  21.4938270  77.2222685
 137.1163216  22.9800802  76.9756707 131.2514080  19.9922997  92.0588833
 131.9613699  19.3516189  92.0175452 131.2083388  20.2435892  92.9815014
 139.2400859  26.9290350  94.9795413 139.1813405  26.2449570  94.3125996
 139.6420377  27.6709340  94.5276039 129.9643014  16.9788215  93.8784473
 129.4280371  16.5278953  94.5306069 129.3759723  17.1134124  93.1354937
 128.2591558  33.7452264  87.7729132 128.4988156  34.3770788  88.4508150
 127.4160754  33.3940304  88.0594491 139.2418266  24.8929934  93.2109392
 138.3545045  24.5555856  93.3335791 139.8116817  24.1612966  93.4478158
 120.8947413  21.2254026  86.5352444 121.5818453  20.9115756  85.9473459
 120.7395542  22.1295391  86.2619695 125.6982135  16.1144223  90.9637467
 125.6140324  15.5069892  90.2287877 124.8764842  16.6053241  90.9646964
 132.7719419  29.5531387  90.1770636 132.6989591  30.3586358  90.6889940
 132.3296813  29.7523352  89.3518657 132.5609199  28.7903157  83.6873457
 131.7776721  29.3324837  83.7811682 133.2601944  29.3077136  84.0867698
 135.2318103  29.4518221  92.3328794 135.9446075  30.0865685  92.2604696
 134.7408132  29.5482087  91.5168796 136.9535630  23.3569473  83.9046086
 136.0191909  23.4770936  83.7350790 137.1312298  22.4541940  83.6406096
 130.2830016  27.2012664  93.1534365 130.9839476  27.8349147  93.3063759
 129.8125131  27.5427396  92.3930004 138.4084412  25.5430614  81.4382272
 138.6844256  25.4287209  82.3476146 137.5388911  25.1448099  81.3994445
 135.0438476  29.7916965  85.0815086 135.2260871  28.9738621  85.5442838
 135.8671462  30.0084657  84.6439976 135.3780642  28.7185150  82.3430134
 135.9068408  28.2077604  81.7300296 135.6408861  28.4027680  83.2075667
 134.1318875  20.4977083  97.4652952 133.4559513  20.3971212  98.1355328
 134.9546509  20.3416296  97.9288950 125.8797735  26.7349019  90.0865468
 126.4651171  25.9892707  90.2193372 125.6822573  27.0452976  90.9702132
 128.7336390  29.7700267  85.1027910 128.0646765  30.2546394  84.6191950
 128.5949259  30.0169487  86.0171289 120.4715389  19.3054619  88.8069911
 120.5099489  18.7718210  89.6007029 119.9655682  18.7789825  88.1880888
 132.8741658  31.8044010  91.7010568 133.4259966  31.9675632  92.4659654
 133.2147852  32.3948448  91.0290593 127.3258424  16.2242292  95.9505487
 127.9530463  15.8419370  96.5643012 126.4686343  16.0056494  96.3161180
 137.7252533  26.6305268  97.5559223 138.2692437  27.2435226  97.0614178
 137.1439378  27.1884846  98.0726236 124.1023967  18.0318722  81.8823842
 124.3977408  17.1229400  81.8290896 123.2012003  18.0106461  81.5604845
 136.0110046  29.7525986  88.6874251 135.8861185  28.9515725  88.1785196
 136.6689137  30.2472179  88.1988221 127.6318214  16.1074718  87.8651391
 126.9104800  16.7210686  87.7258864 128.4211470  16.6432483  87.7868037
 138.0744954  27.5535006  90.3153801 137.1275290  27.4340357  90.2432127
 138.4227727  26.6657504  90.3980062 125.8311808  15.7132819  82.0063167
 125.5024515  14.8330198  81.8238273 126.1851179  15.6580488  82.8939557
 135.0791387  27.3487722  86.5158153 134.9316350  26.4204429  86.6965723
 135.9044881  27.3707813  86.0315228 128.9453632  16.0005789  82.3738645
 129.2849704  16.5291710  81.6517253 129.3925752  16.3386195  83.1497212
 138.6825509  28.1716281  87.6023026 139.6072057  27.9659142  87.4647477
 138.5140813  27.9232682  88.5112367 129.8152123  18.1611273  88.0861015
 129.6696704  18.4751576  88.9785296 129.3377327  18.7796173  87.5331913
 138.4720825  28.6901948  82.9585117 138.6457703  28.1248371  82.2058970
 138.9649717  29.4902843  82.7764607 124.2897785  20.7016617  91.0248676
 123.7451253  21.4776425  91.1568950 125.1677135  21.0487422  90.8667797
 139.4595998  28.0068713  80.0582015 140.1546902  28.6275405  80.2769330
 139.8019148  27.1564064  80.3334393 125.0763807  19.8286513  93.9178833
 124.3345543  19.9769149  94.5043463 124.7556551  20.0894779  93.0545582
 141.3587421  25.4568418  81.5869346 141.8838745  25.7955691  80.8618666
 141.2709774  24.5215433  81.4032481 133.0207470  29.3702492  93.7159223
 133.3294596  29.1251638  94.5881922 133.8182952  29.5749130  93.2278093
 133.0428082  31.5240401  85.9464599 132.6033072  31.0316780  86.6397456
 133.7936199  30.9813369  85.7056675 125.5220421  27.7151942  85.9489227
 126.3478441  27.4155714  85.5687871 125.1714473  26.9459565  86.3979016
 130.4901954  27.0678410  88.0186901 129.8681963  26.4049115  87.7189129
 131.1606821  27.0939542  87.3360549 123.7229026  25.6338269  86.9078161
 122.8860934  25.2060443  86.7262162 123.6952671  25.8270712  87.8448952
 141.0481327  26.0901322  96.8920544 140.2576871  26.0725461  96.3525044
 140.8114682  26.6289615  97.6469581 141.1679202  22.9393788  94.2053273
 141.2177207  22.7743795  95.1468795 141.0593125  22.0721047  93.8151153
 130.0515461  25.6182334  81.4945362 130.2003581  26.3017798  80.8412034
 130.8581904  25.5987424  82.0094817 142.6697399  25.3590730  94.4495294
 142.3782207  25.7220710  95.2858755 142.0569530  24.6457738  94.2708626
 143.8693081  22.9243609  86.9697864 144.7039973  23.3633413  87.1335425
 144.0052210  22.4482263  86.1506110 140.9184587  20.4823344  92.9175352
 141.3938709  20.6750991  92.1094204 139.9950153  20.5382530  92.6718736
 127.8068094  21.6447511  82.5006430 127.5614136  20.7409841  82.6986641
 127.9764008  21.6464662  81.5585908 127.0763741  17.3775869  79.9992592
 126.3832986  17.4520224  79.3432628 126.8315493  16.6136213  80.5214109
 133.5510866  28.1130464  78.9657109 132.9784833  28.7320651  78.5127581
 134.1243660  28.6629826  79.4997031 136.7708126  28.3967614  80.0965691
 137.7038799  28.3313176  80.2998567 136.6831339  29.2323881  79.6380224
 139.3996143  27.7133485  77.0569639 139.3209774  27.3793348  77.9505397
 140.2205810  28.2055253  77.0561111 133.9357665  19.4491277  76.3073161
 134.8816770  19.3197485  76.3761580 133.5571910  18.7105939  76.7842590
 133.8196357  23.5009023  97.7673818 134.7399367  23.6787622  97.9613865
 133.7845940  22.5565068  97.6153518 132.1200582  17.3741253  76.2428047
 131.2132037  17.0774366  76.3190760 132.3976563  17.0771071  75.3762333
 123.0378522  18.6947617  86.6927093 122.7181307  17.8412925  86.4001467
 122.4911951  18.9096195  87.4485060 126.8158430  21.4110058  90.4096600
 127.0344440  22.3427166  90.4284633 127.2284204  21.0518032  91.1951403
 131.6886295  16.9843263  99.7999349 131.5883022  17.9337620  99.7311440
 131.4707837  16.6561502  98.9275419 122.9066782  22.3150528  88.6620215
 122.2130254  21.9004481  88.1490169 123.6539773  22.3571065  88.0653634
 131.5517565  20.4140402  98.6164410 131.0684647  21.2140762  98.8228299
 131.6378504  20.4248347  97.6631854 124.8203525  22.2468782  86.5386230
 124.7974213  22.3456469  85.5868113 125.1304161  23.0933933  86.8603396
 127.4790903  24.3044937  90.6532844 128.4334156  24.2728879  90.5862776
 127.2803426  23.8435561  91.4683070 128.0690285  22.8746053  93.2203642
 128.8883174  23.3690132  93.2438479 128.3427093  21.9578021  93.1921209
 125.8341132  29.8464557  87.6703042 125.6995599  29.0864957  87.1041040
 125.4173194  30.5705456  87.2031831 136.9700095  25.0301480  76.6779617
 137.6735945  25.2351483  77.2937273 136.2462743  25.5978242  76.9428701
 137.7997905  20.7811341  82.7981887 137.7433106  21.2379893  81.9589520
 138.3526247  20.0202026  82.6204730 128.9910257  30.7433874  87.8821485
 128.8742642  31.6879306  87.7800175 128.1702704  30.4407435  88.2707284
 138.8786792  25.4684009  78.7278077 139.7132396  25.0365208  78.5455552
 138.7171135  25.2966023  79.6554972 138.5332684  21.9716123  80.0934417
 138.4781488  21.8060394  79.1522861 137.9078739  22.6792155  80.2496606
 123.3225199  17.2084187  93.9195839 123.9684063  16.6983141  94.4083064
 123.1142350  17.9452869  94.4939264 135.8478591  24.2765034  99.4187979
 136.7169751  24.4505687  99.0574614 135.3685343  25.0959451  99.2963709
 130.0164772  31.3962135  91.0977413 130.9192018  31.4285746  91.4143908
 129.7902142  30.4662586  91.1123749 131.7718374  30.1493122  87.7587492
 130.8214005  30.1494984  87.6451864 132.0750860  29.4025857  87.2423526
 144.3160773  35.9381088  88.7594779 143.9779285  35.8222153  87.8715314
 145.1850542  35.5372254  88.7395785 140.1747589  37.7916565  84.7491670
 139.6112454  37.7006502  83.9807957 140.0599984  36.9716469  85.2294162
 144.7980556  37.0915940  94.7180984 144.7869197  36.6968738  93.8461488
 144.9601196  36.3582013  95.3114756 137.7212021  39.2867756  87.5875890
 138.5133313  38.9458581  87.1722189 137.9608671  39.3962732  88.5078043
 145.7547148  41.4587533  80.0606135 145.1035128  42.0441613  79.6740148
 146.5491511  41.9893728  80.1201172 139.6802775  38.5476670  80.4593269
 140.4533651  38.0005657  80.3206145 140.0328174  39.4120919  80.6707730
 141.5187817  39.8753052  93.6660168 141.2277683  40.7798683  93.5506834
 142.1544802  39.9169580  94.3804238 142.4444024  37.2529901  90.2561528
 143.0407597  37.0285923  89.5418491 142.5018996  36.5114646  90.8586976
 142.0169053  34.7069336  78.0911719 142.2694573  34.1850857  77.3295182
 141.0793612  34.5435481  78.1938402 147.0612336  33.7105114  85.8986462
 147.8475425  33.2924537  85.5476879 147.3251040  34.6151206  86.0668110
 147.2322413  39.1477965  80.5975119 146.5968246  39.2212591  81.3096023
 146.9019819  39.7371563  79.9194198 141.7365341  36.6097442  80.2936094
 141.6201600  35.9342345  80.9617178 141.8467601  36.1229816  79.4768247
 144.0796882  36.0707589  83.9982783 143.7155090  35.5438210  84.7095704
 144.9363998  35.6806058  83.8249268 143.7202369  31.0997489  78.9944131
 143.8876772  31.9677725  79.3614603 143.5299538  31.2624770  78.0705421
 146.4777703  39.5614468  90.6609962 146.1778426  40.4639506  90.5525769
 146.1328762  39.2946651  91.5131115 139.9290184  36.0128264  86.6946666
 139.0040681  35.8804478  86.9024358 140.1774597  36.7922484  87.1916609
 143.6991590  33.5555146  79.9790798 143.5791215  34.0012197  80.8176279
 143.0044179  33.9040464  79.4204336 137.2898995  35.6561538  87.5290455
 137.4191376  35.9096017  88.4429867 136.6096446  36.2489246  87.2095110
 141.4598482  46.3258788  83.6280930 141.3822512  47.2766613  83.7069410
 140.8560126  45.9804660  84.2855856 143.9515712  33.4986653  96.2842296
 143.1749046  34.0580573  96.2745161 144.5906275  33.9843436  96.8057167
 142.2062084  36.3072107  95.8460263 142.9476769  36.8457151  95.5695087
 141.4999070  36.9338395  96.0031815 144.0348494  33.3873854  91.8165982
 144.8809689  33.8113267  91.9600631 143.9747132  32.7307478  92.5104545
 147.1847939  31.0478222  93.4747156 146.9408871  31.8020283  92.9381431
 147.4607870  31.4263570  94.3094403 146.7412631  30.2034655  89.0560993
 145.8797110  30.5015909  89.3477731 146.7675066  30.4205054  88.1242026
 143.5574201  38.7476846  85.4634799 144.0212546  39.0264549  84.6739421
 143.2930999  37.8460290  85.2807890 140.4498282  38.2948327  88.4014562
 141.0199639  38.7235596  87.7632047 141.0406394  38.0130912  89.0998748
 142.4943087  34.8699998  82.2724364 143.1967130  35.3221042  82.7398290
 142.1623715  34.2283817  82.9004257 140.9423448  33.4611755  96.6475573
 140.3122109  34.1428036  96.8810970 140.8359536  33.3494836  95.7028712
 136.2368421  33.1283551  87.5741498 135.4467475  33.3841079  87.0981608
 136.7279668  33.9431889  87.6793538 138.1883166  33.4928130  84.5324974
 137.3914329  33.6046824  85.0508470 137.9608758  33.8314782  83.6665865
 144.0188834  40.0172833  92.4807489 144.0833266  40.4793241  93.3165661
 143.3099757  39.3870198  92.6089799 134.5206124  33.3814041  90.0056488
 134.7714162  34.2661051  90.2714064 135.0565672  33.2018643  89.2331580
 143.7336851  41.6840941  82.3486469 143.5982526  42.5292477  82.7771317
 144.2746664  41.8860218  81.5852403 140.2204191  27.7632521  99.0100824
 139.8271136  27.2098719  99.6848469 141.0370331  28.0743099  99.4007342
 137.1866249  39.2016379  82.9214394 137.6990769  39.9959629  83.0719959
 137.8388961  38.5042669  82.8547996 138.9961133  42.3182135  85.0037148
 139.1727762  43.2400100  84.8158131 139.7917967  42.0040554  85.4331527
 143.1372152  29.1790400  96.6021081 143.8781865  29.7797553  96.5225544
 143.3690075  28.4368038  96.0439124 138.2813490  34.3646767  94.8799311
 138.1667005  33.4632024  95.1806410 137.4258008  34.6110464  94.5284127
 145.3605328  42.3064507  96.4786811 144.9169182  41.5200886  96.1607716
 146.0222541  42.4943658  95.8130702 140.1192449  43.8360309  91.0047490
 140.6699874  43.7077372  90.2324484 139.2803925  44.1355198  90.6542383
 143.9159620  40.1011437  95.3491721 144.4487957  39.3399725  95.1191029
 143.3873701  39.8085089  96.0915875 147.0829315  25.2071503  90.8785363
 146.7393584  26.0973144  90.8024473 147.4508277  25.0173160  90.0154948
 135.1515165  37.5305033  83.6973965 135.9890387  37.9402042  83.4807673
 135.3293433  36.5904475  83.6674159 147.0479598  35.1980114  79.3857798
 146.5326221  35.9684718  79.6246185 146.7756906  34.5245250  80.0090859
 144.6326709  30.0429815  84.4443036 143.7768305  29.6536665  84.2648675
 145.0453660  30.1221775  83.5842822 146.1625855  27.5776158  88.8434596
 145.6590651  27.5406293  88.0302401 146.4556462  28.4868901  88.9031253
 142.4068741  27.6614888  87.8500778 143.2721738  27.4657696  87.4906667
 142.4746250  27.4325239  88.7770134 146.8365901  33.0707206  81.2117579
 146.5316036  33.3853355  82.0627722 147.7896343  33.1488626  81.2544912
 145.2812333  39.2297429  82.8610533 144.7533694  38.4950189  82.5483770
 144.7799835  40.0072106  82.6150501 140.0131060  29.8917096  85.2217145
 140.5874812  29.6692277  84.4890337 140.6002043  29.9605790  85.9745746
 140.3400647  31.9221557  79.2413030 139.5037960  32.2596243  79.5622305
 140.2005417  31.7870536  78.3040167 142.3153728  26.7658344  83.9492214
 141.6618140  26.4507362  83.3248829 142.2734202  26.1434085  84.6752037
 143.4264933  37.0477640  75.8645506 142.5191994  36.8166893  76.0636655
 143.9235965  36.2515259  76.0519488 146.3333012  45.7575147  78.7842192
 145.6594710  46.0606843  79.3927150 146.7198834  46.5604227  78.4347649
 145.5491468  33.2540278  88.2739862 144.6314030  33.4755225  88.1161550
 145.9651612  33.3286588  87.4151569 146.3326516  34.6531694  83.4042542
 147.0798335  35.1653091  83.0949664 146.6018106  34.3315746  84.2646935
 144.6053166  37.1490234  80.3869496 143.6964385  36.8649267  80.4841966
 144.6348250  37.5689313  79.5272803 135.1741337  34.8695748  84.3684698
 134.9765736  34.2765109  83.6435765 134.6188001  34.5647959  85.0860637
 143.1538060  34.7618855  86.4879291 143.2086670  33.8092691  86.4121768
 142.3429262  34.9178294  86.9720590 144.3029254  38.6898978  77.7257575
 143.8648684  37.9734837  77.2663212 145.0439695  38.9175093  77.1642666
 141.0930420  33.3795915  84.2469670 140.2798286  33.6790085  84.6534862
 141.5889414  32.9851603  84.9644153 143.2438998  43.3753672  86.1803935
 143.2015177  43.6014518  85.2512467 144.1601697  43.1417046  86.3289736
 146.6904632  33.8437739  93.0784564 147.0454020  34.0709212  93.9379030
 147.3376763  34.1756116  92.4561820 140.5844495  30.9514270  89.8630905
 141.2243874  30.8103029  89.1653869 139.7522025  30.6648784  89.4869507
 141.3604799  40.2516701  85.9765898 142.1545397  39.7567021  85.7748473
 140.6496491  39.7234564  85.6133603 146.1799643  42.6334796  90.3278265
 146.2336666  43.2025733  91.0955981 145.3114425  42.8036681  89.9632303
 137.6687562  34.3959782  82.0525650 136.7385150  34.3344238  82.2695613
 137.7645034  33.8735735  81.2562292 137.5873111  30.9214595  84.6403892
 137.8479929  31.8359928  84.5313053 138.4090284  30.4539038  84.7900505
 139.0598037  32.3352352  91.8102717 139.7321090  32.1269715  91.1615366
 138.2327823  32.1374438  91.3707949 144.9623609  28.9614293  93.8268378
 144.3151524  29.6604243  93.7332854 145.7324624  29.3950437  94.1944626
 145.1387743  36.7995058  91.8865197 146.0679803  36.9506218  91.7134165
 144.7178773  36.8879079  91.0313844 143.9376075  40.8245723  89.6563735
 143.7987161  40.4564507  90.5289673 143.1490671  41.3393362  89.4847693
 144.5324227  45.9254819  80.9989271 144.7075982  45.4542862  81.8134894
 143.8457015  46.5520585  81.2270532 145.4881290  40.2027325  87.0452573
 145.1531123  40.1628095  87.9410223 144.9885236  39.5372041  86.5722983
 139.4625534  35.6094955  92.5705154 139.3245332  34.8775194  93.1716693
 140.3730457  35.5203855  92.2889342 142.0907835  35.3214915  92.0588833
 142.8007453  34.6808107  92.0175452 142.0477143  35.5727810  92.9815014
 140.8036769  32.3080133  93.8784473 140.2674126  31.8570871  94.5306069
 140.2153477  32.4426041  93.1354937 139.0985312  49.0744182  87.7729132
 139.3381910  49.7062706  88.4508150 138.2554509  48.7232222  88.0594491
 140.2139028  31.7668784  76.4410937 139.3368494  31.6457585  76.0773183
 140.6896781  30.9754862  76.1889825 131.7341168  36.5545944  86.5352444
 132.4212207  36.2407674  85.9473459 131.5789296  37.4587308  86.2619695
 136.5375890  31.4436140  90.9637467 136.4534079  30.8361810  90.2287877
 135.7158596  31.9345159  90.9646964 143.6113174  44.8823304  90.1770636
 143.5383345  45.6878276  90.6889940 143.1690567  45.0815270  89.3518657
 143.4002954  44.1195074  83.6873457 142.6170475  44.6616755  83.7811682
 144.0995699  44.6369054  84.0867698 146.7099604  29.9289704  86.3307662
 147.2068303  29.1759666  86.0108733 145.9386585  29.9654020  85.7650872
 146.0711857  44.7810138  92.3328794 146.7839830  45.4157603  92.2604696
 145.5801886  44.8774004  91.5168796 143.2934572  32.0707087  86.0579347
 142.9232360  31.5178127  86.7460253 143.7893665  31.4665220  85.5054347
 141.1223771  42.5304582  93.1534365 141.8233230  43.1641065  93.3063759
 140.6518886  42.8719313  92.3930004 145.8832231  45.1208882  85.0815086
 146.0654625  44.3030538  85.5442838 146.7065217  45.3376575  84.6439976
 146.2174396  44.0477068  82.3430134 146.7462163  43.5369522  81.7300296
 146.4802616  43.7319598  83.2075667 144.9712630  35.8269000  97.4652952
 144.2953267  35.7263130  98.1355328 145.7940264  35.6708214  97.9288950
 136.7191489  42.0640937  90.0865468 137.3044926  41.3184625  90.2193372
 136.5216328  42.3744894  90.9702132 139.5730144  45.0992184  85.1027910
 138.9040520  45.5838312  84.6191950 139.4343014  45.3461405  86.0171289
 131.3109144  34.6346537  88.8069911 131.3493243  34.1010128  89.6007029
 130.8049437  34.1081743  88.1880888 143.7135413  47.1335928  91.7010568
 144.2653721  47.2967549  92.4659654 144.0541606  47.7240366  91.0290593
 138.6899906  29.4811078  92.3032453 138.7541233  30.3425908  91.8909851
 138.6267026  28.8685079  91.5704812 138.1652179  31.5534210  95.9505487
 138.7924217  31.1711287  96.5643012 137.3080097  31.3348412  96.3161180
 134.9417721  33.3610639  81.8823842 135.2371162  32.4521318  81.8290896
 134.0405757  33.3398379  81.5604845 146.8503800  45.0817903  88.6874251
 146.7254940  44.2807643  88.1785196 147.5082891  45.5764097  88.1988221
 138.4711968  31.4366636  87.8651391 137.7498554  32.0502604  87.7258864
 139.2605224  31.9724401  87.7868037 141.2738282  28.7721062  94.1392043
 141.7972684  29.0183359  94.9018352 141.0550615  29.6041097  93.7195180
 136.6705563  31.0424737  82.0063167 136.3418269  30.1622116  81.8238273
 137.0244934  30.9872406  82.8939557 145.9185142  42.6779640  86.5158153
 145.7710104  41.7496347  86.6965723 146.7438635  42.6999730  86.0315228
 139.7847386  31.3297707  82.3738645 140.1243459  31.8583628  81.6517253
 140.2319507  31.6678113  83.1497212 142.4790827  29.7134757  91.8241713
 142.1387647  28.9142570  92.2262393 141.7729833  30.0136468  91.2518546
 143.1307299  26.7984070  90.2769036 143.9533368  26.3244548  90.1547926
 143.3745362  27.5774554  90.7767722 141.7715533  29.8272328  80.5731938
 142.4923896  30.2053581  80.0695655 141.1480837  30.5461205  80.6766916
 145.9146656  30.5317477  81.5090270 146.1310271  31.4142115  81.2079098
 145.4340723  30.1403691  80.7795912 140.6545878  33.4903190  88.0861015
 140.5090458  33.8043494  88.9785296 140.1771081  34.1088091  87.5331913
 142.5142260  30.4805738  88.1341904 142.5003829  29.5846832  87.7974202
 143.2314689  30.4876402  88.7680190 144.3668391  30.9143079  90.1795032
 144.1086169  31.8360149  90.1779362 143.8353431  30.5173513  90.8695496
 135.1291540  36.0308535  91.0248676 134.5845008  36.8068343  91.1568950
 136.0070890  36.3779339  90.8667797 141.9179156  29.3620119  83.4029474
 142.0395068  28.4336765  83.6020362 141.6281199  29.3758805  82.4907790
 144.7870347  27.0475029  86.5396194 144.8092044  27.1114362  85.5848174
 145.2038406  26.2079538  86.7336700 135.9157562  35.1578431  93.9178833
 135.1739298  35.3061066  94.5043463 135.5950306  35.4186697  93.0545582
 143.8601224  44.6994409  93.7159223 144.1688351  44.4543556  94.5881922
 144.6576706  44.9041048  93.2278093 143.8821836  46.8532319  85.9464599
 143.4426827  46.3608698  86.6397456 144.6329953  46.3105287  85.7056675
 136.3614175  43.0443860  85.9489227 137.1872195  42.7447632  85.5687871
 136.0108227  42.2751482  86.3979016 141.3295708  42.3970328  88.0186901
 140.7075718  41.7341033  87.7189129 142.0000575  42.4231460  87.3360549
 134.5622780  40.9630186  86.9078161 133.7254689  40.5352361  86.7262162
 134.5346426  41.1562630  87.8448952 141.4020236  30.8752116  97.6119407
 141.4508391  31.7514239  97.2297177 141.9442750  30.3329509  97.0391050
 140.8909215  40.9474251  81.4945362 141.0397336  41.6309716  80.8412034
 141.6975659  40.9279341  82.0094817 143.6319524  31.6283489  94.3665766
 142.7622834  31.9217055  94.0948354 143.8679005  32.2123934  95.0873029
 138.6461848  36.9739429  82.5006430 138.4007890  36.0701759  82.6986641
 138.8157763  36.9756580  81.5585908 146.3358558  27.8463105  91.8831186
 146.8540502  28.5824132  91.5577675 145.9813691  28.1527099  92.7177945
 137.9157496  32.7067787  79.9992592 137.2226741  32.7812142  79.3432628
 137.6709248  31.9428130  80.5214109 146.5871152  24.2663388  87.4032083
 146.8672906  23.5986577  88.0292509 147.3721759  24.4592484  86.8906747
 144.3904621  43.4422382  78.9657109 143.8178588  44.0612569  78.5127581
 144.9637414  43.9921744  79.4997031 144.7751419  34.7783195  76.3073161
 145.7210524  34.6489403  76.3761580 144.3965664  34.0397857  76.7842590
 144.6590112  38.8300941  97.7673818 145.5793121  39.0079540  97.9613865
 144.6239695  37.8856986  97.6153518 142.9594336  32.7033171  76.2428047
 142.0525792  32.4066284  76.3190760 143.2370317  32.4062989  75.3762333
 133.8772277  34.0239534  86.6927093 133.5575061  33.1704843  86.4001467
 133.3305705  34.2388113  87.4485060 137.6552184  36.7401975  90.4096600
 137.8738194  37.6719083  90.4284633 138.0677958  36.3809950  91.1951403
 144.5756402  27.2470061  82.3972288 143.7657131  26.9017146  82.7727534
 145.2640819  26.9377604  82.9859900 146.5046950  26.3248108  84.0196585
 147.0577989  26.7443561  84.6786608 146.7417037  25.3983856  84.0619541
 142.5280050  32.3135181  99.7999349 142.4276777  33.2629538  99.7311440
 142.3101592  31.9853420  98.9275419 141.7293121  29.5620106  76.3840026
 142.5912285  29.8875005  76.6435843 141.9143465  28.7751602  75.8713092
 133.7460537  37.6442446  88.6620215 133.0524008  37.2296399  88.1490169
 134.4933528  37.6862982  88.0653634 142.3911320  35.7432320  98.6164410
 141.9078401  36.5432680  98.8228299 142.4772259  35.7540265  97.6631854
 135.6597279  37.5760700  86.5386230 135.6367967  37.6748387  85.5868113
 135.9697916  38.4225850  86.8603396 138.3184657  39.6336855  90.6532844
 139.2727911  39.6020797  90.5862776 138.1197181  39.1727478  91.4683070
 138.9084039  38.2037971  93.2203642 139.7276928  38.6982049  93.2438479
 139.1820847  37.2869939  93.1921209 136.6734886  45.1756474  87.6703042
 136.5389354  44.4156875  87.1041040 136.2566948  45.8997374  87.2031831
 139.8304012  46.0725791  87.8821485 139.7136396  47.0171224  87.7800175
 139.0096458  45.7699353  88.2707284 134.1618954  32.5376105  93.9195839
 134.8077817  32.0275059  94.4083064 133.9536105  33.2744786  94.4939264
 146.6872346  39.6056952  99.4187979 147.5563505  39.7797604  99.0574614
 146.2079097  40.4251369  99.2963709 142.6822564  26.8016149  79.6719735
 142.6701234  27.7457989  79.8288006 143.5745986  26.6186295  79.3779196
 140.8558526  46.7254053  91.0977413 141.7585773  46.7577663  91.4143908
 140.6295896  45.7954504  91.1123749 142.6112128  45.4785040  87.7587492
 141.6607759  45.4786901  87.6451864 142.9144614  44.7317774  87.2423526
 146.4974684  23.3958926  83.9265672 145.7307079  22.8417413  84.0722354
 146.9085389  23.4680795  84.7879823 138.5016445  29.6843722  98.0170853
 139.3647906  29.3280527  98.2274178 137.9281855  29.3457617  98.7046257
 147.0762175  48.4575469  87.5741498 146.2861229  48.7132997  87.0981608
 147.5673422  49.2723806  87.6793538 145.3599878  48.7105959  90.0056488
 145.6107916  49.5952969  90.2714064 145.8959426  48.5310561  89.2331580
 145.9908920  52.8596951  83.6973965 146.8284142  53.2693959  83.4807673
 146.1687188  51.9196393  83.6674159 146.0135091  50.1987666  84.3684698
 145.8159491  49.6057027  83.6435765 145.4581755  49.8939876  85.0860637
 142.5734922  51.8837861  86.5352444 143.2605962  51.5699591  85.9473459
 142.4183051  52.7879226  86.2619695 147.3769644  46.7728058  90.9637467
 147.2927833  46.1653728  90.2287877 146.5552351  47.2637076  90.9646964
 142.1502898  49.9638455  88.8069911 142.1886998  49.4302045  89.6007029
 141.6443191  49.4373660  88.1880888 145.7811476  48.6902557  81.8823842
 146.0764917  47.7813235  81.8290896 144.8799512  48.6690296  81.5604845
 145.9685294  51.3600453  91.0248676 145.4238762  52.1360261  91.1568950
 146.8464644  51.7071257  90.8667797 146.7551316  50.4870349  93.9178833
 146.0133052  50.6352984  94.5043463 146.4344060  50.7478614  93.0545582
 145.4016535  56.2922104  86.9078161 144.5648443  55.8644278  86.7262162
 145.3740180  56.4854547  87.8448952 144.7166031  49.3531452  86.6927093
 144.3968816  48.4996760  86.4001467 144.1699460  49.5680030  87.4485060
 144.5854291  52.9734364  88.6620215 143.8917763  52.5588316  88.1490169
 145.3327282  53.0154900  88.0653634 146.4991034  52.9052617  86.5386230
 146.4761722  53.0040305  85.5868113 146.8091670  53.7517768  86.8603396
 147.5128641  60.5048392  87.6703042 147.3783108  59.7448793  87.1041040
 147.0960703  61.2289292  87.2031831 145.0012708  47.8668022  93.9195839
 145.6471572  47.3566976  94.4083064 144.7929859  48.6036704  94.4939264
 141.4598484  23.3320910  70.3526236 141.3822513  24.2828736  70.4314717
 140.8560127  22.9866783  71.0101162 140.1192450  20.8422432  77.7292796
 140.6699875  20.7139495  76.9569790 139.2803926  21.1417321  77.3787689
 146.3333013  22.7637269  65.5087499 145.6594712  23.0668966  66.1172457
 146.7198835  23.5666350  65.1592956 144.5324228  22.9316942  67.7234578
 144.7075984  22.4604985  68.5380201 143.8457016  23.5582708  67.9515839
 139.0985313  26.0806304  74.4974438 139.3381912  26.7124829  75.1753457
 138.2554510  25.7294344  74.7839797 143.6113175  21.8885427  76.9015942
 143.5383347  22.6940398  77.4135247 143.1690568  22.0877393  76.0763964
 143.4002955  21.1257197  70.4118764 142.6170477  21.6678877  70.5056988
 144.0995700  21.6431177  70.8113005 146.0711859  21.7872261  79.0574101
 146.7839831  22.4219726  78.9850002 145.5801887  21.8836127  78.2414103
 139.5730146  22.1054307  71.8273217 138.9040521  22.5900434  71.3437257
 139.4343015  22.3523527  72.7416595 143.7135414  24.1398050  78.4255875
 144.2653722  24.3029672  79.1904960 144.0541608  24.7302488  77.7535900
 143.8601225  21.7056532  80.4404529 144.1688352  21.4605679  81.3127229
 144.6576707  21.9103170  79.9523400 143.8821837  23.8594442  72.6709906
 143.4426828  23.3670820  73.3642763 144.6329954  23.3167409  72.4301981
 136.3614176  20.0505982  72.6734534 137.1872196  19.7509754  72.2933178
 136.0108228  19.2813605  73.1224323 134.5622782  17.9692309  73.6323468
 133.7254690  17.5414483  73.4507469 134.5346427  18.1624752  74.5694259
 136.6734887  22.1818597  74.3948348 136.5389355  21.4218998  73.8286347
 136.2566950  22.9059497  73.9277137 139.8304013  23.0787914  74.6066791
 139.7136397  24.0233346  74.5045481 139.0096459  22.7761475  74.9952590
 140.8558527  23.7316176  77.8222720 141.7585774  23.7639786  78.1389215
 140.6295897  22.8016627  77.8369055 142.6112129  22.4847162  74.4832798
 141.6607760  22.4849024  74.3697170 142.9144615  21.7379897  73.9668833
 147.0762176  25.4637591  74.2986804 146.2861230  25.7195120  73.8226915
 147.5673424  26.2785929  74.4038845 145.3599879  25.7168082  76.7301795
 145.6107918  26.6015092  76.9959371 145.8959428  25.5372683  75.9576887
 145.9908921  29.8659073  70.4219272 146.8284143  30.2756082  70.2052979
 146.1687189  28.9258516  70.3919465 146.0135092  27.2049789  71.0930005
 145.8159492  26.6119149  70.3681072 145.4581756  26.9001999  71.8105944
 142.5734923  28.8899984  73.2597750 143.2605963  28.5761714  72.6718766
 142.4183052  29.7941349  72.9865002 147.3769646  23.7790181  77.6882774
 147.2927834  23.1715850  76.9533184 146.5552352  24.2699199  77.6892270
 142.1502900  26.9700577  75.5315217 142.1886999  26.4364168  76.3252336
 141.6443192  26.4435783  74.9126195 145.7811477  25.6964680  68.6069149
 146.0764918  24.7875358  68.5536203 144.8799513  25.6752419  68.2850151
 145.9685295  28.3662575  77.7493983 145.4238763  29.1422383  77.8814257
 146.8464645  28.7133380  77.5913104 146.7551317  27.4932471  80.6424139
 146.0133053  27.6415107  81.2288770 146.4344062  27.7540737  79.7790889
 145.4016536  33.2984227  73.6323468 144.5648444  32.8706401  73.4507469
 145.3740181  33.4916670  74.5694259 144.7166033  26.3593575  73.4172400
 144.3968817  25.5058883  73.1246774 144.1699461  26.5742153  74.1730367
 144.5854293  29.9796486  75.3865521 143.8917764  29.5650439  74.8735476
 145.3327284  30.0217023  74.7898940 146.4991035  29.9114740  73.2631536
 146.4761723  30.0102427  72.3113419 146.8091672  30.7579891  73.5848702
 147.5128642  37.5110514  74.3948348 147.3783110  36.7510915  73.8286347
 147.0960704  38.2351414  73.9277137 145.0012709  24.8730145  80.6441145
 145.6471573  24.3629099  81.1328371 144.7929860  25.6098827  81.2184571
  48.2003350  87.4463291 159.7134292  47.5491330  88.0317371 159.3268305
  48.9947713  87.9769486 159.7729329  54.4670074  83.9388227 160.9739128
  53.6899517  83.5999386 160.5294290  55.1461555  83.9440850 160.2994093
  45.8721135  83.0353398 155.5173663  44.9648197  82.8042651 155.7164812
  46.3692167  82.2391017 155.7047645  48.7789214  91.7450905 158.4370349
  48.1050912  92.0482602 159.0455307  49.1655036  92.5479985 158.0875806
  46.7485456  84.6774736 157.3785732  46.3104886  83.9610595 156.9191369
  47.4895897  84.9050851 156.8170823  46.9780429  91.9130577 160.6517428
  47.1532185  91.4418621 161.4663051  46.2913217  92.5396344 160.8798689
  50.8696684  83.5359118 156.9717789  50.2525854  82.8105946 156.8750842
  50.4013172  84.2968478 156.6284864  51.6934369  86.8598290 161.0910429
  51.9694213  86.7454885 162.0004303  50.8238868  86.4615775 161.0522602
  48.6630598  90.0352826 161.9958291  49.1918365  89.5245281 161.3828453
  48.9258818  89.7195356 162.8603824  51.7570782  90.0069624 162.6113274
  51.9307659  89.4416047 161.8587127  52.2499673  90.8070519 162.4292764
  52.7445954  89.3236389 159.7110172  53.4396859  89.9443081 159.9297487
  53.0869105  88.4731740 159.9862550  54.6437378  86.7736094 161.2397503
  55.1688702  87.1123367 160.5146823  54.5559730  85.8383109 161.0560638
  46.8360823  89.4298140 158.6185266  46.2634790  90.0488327 158.1655738
  47.4093617  89.9797502 159.1525188  50.0558083  89.7135290 159.7493848
  50.9888756  89.6480852 159.9526724  49.9681295  90.5491557 159.2908381
  52.6846099  89.0301161 156.7097796  52.6059731  88.6961024 157.6033554
  53.5055766  89.5222929 156.7089268  47.2207621  80.7658953 155.9601319
  48.1666726  80.6365161 156.0289737  46.8421866  80.0273615 156.4370747
  50.2550051  86.3469156 156.3307774  50.9585901  86.5519159 156.9465430
  49.5312700  86.9145918 156.5956858  52.1636748  86.7851685 158.3806234
  52.9982352  86.3532884 158.1983709  52.0021091  86.6133699 159.3083129
  51.8182641  83.2883799 159.7462574  51.7631444  83.1228070 158.8051018
  51.1928696  83.9959832 159.9024763  55.3019009  96.0237012 157.7439876
  55.5544530  95.5018533 156.9823339  54.3643568  95.8603157 157.8466559
  57.0052326  92.4165165 158.6472289  57.1726728  93.2845401 159.0142760
  56.8149495  92.5792446 157.7233578  53.6250604  93.2389233 158.8941187
  52.7887916  93.5763919 159.2150462  53.4855373  93.1038212 157.9568324
  55.6003684  88.0826020 163.6020371  54.9468097  87.7675038 162.9776986
  55.5584159  87.4601761 164.3280194  56.7114889  98.3645316 155.5173663
  55.8041951  98.1334569 155.7164812  57.2085921  97.5682935 155.7047645
  53.4988984  93.0836460 156.0939094  52.6218450  92.9625261 155.7301340
  53.9746737  92.2922538 155.8417982  49.9555519  92.3592413 161.6591324
  49.6268226  91.4789792 161.4766430  50.3094890  92.3040082 162.5467714
  55.0565490  91.1440004 160.2260095  55.7773852  91.5221257 159.7223812
  54.4330794  91.8628881 160.3295073  51.2007452  94.0235463 159.6520749
  50.5076697  94.0979818 158.9960785  50.9559204  93.2595806 160.1742266
  58.0601376  96.0950871 155.9601319  59.0060481  95.9657079 156.0289737
  57.6815621  95.3565533 156.4370747  56.2444293  94.0200847 155.8956204
  55.3375748  93.7233960 155.9718917  56.5220274  93.7230665 155.0290490
  57.8606359  88.5637737 162.0500445  57.0507087  88.2184822 162.4255691
  58.5490776  88.2545281 162.6388057  55.0143078  90.8787782 156.0368183
  55.8762242  91.2042681 156.2964000  55.1993422  90.0919278 155.5241249
  55.9672521  88.1183825 159.3247892  55.9551190  89.0625665 159.4816163
  56.8595943  87.9353971 159.0307353  48.2003351  64.4525414 146.4379598
  47.5491331  65.0379494 146.0513612  48.9947714  64.9831608 146.4974636
  54.4670075  60.9450349 147.6984435  53.6899518  60.6061509 147.2539597
  55.1461556  60.9502973 147.0239400  45.8721136  60.0415520 142.2418970
  44.9648198  59.8104774 142.4410119  46.3692168  59.2453140 142.4292951
  48.7789215  68.7513028 145.1615656  48.1050914  69.0544724 145.7700614
  49.1655037  69.5542108 144.8121113  46.7485457  61.6836859 144.1031038
  46.3104887  60.9672718 143.6436676  47.4895898  61.9112974 143.5416130
  46.9780430  68.9192700 147.3762735  47.1532186  68.4480743 148.1908358
  46.2913218  69.5458466 147.6043996  50.8696685  60.5421241 143.6963096
  50.2525856  59.8168069 143.5996149  50.4013173  61.3030601 143.3530170
  51.6934370  63.8660413 147.8155736  51.9694214  63.7517007 148.7249610
  50.8238869  63.4677897 147.7767909  48.6630600  67.0414949 148.7203598
  49.1918366  66.5307403 148.1073760  48.9258819  66.7257479 149.5849131
  51.7570783  67.0131747 149.3358581  51.9307661  66.4478169 148.5832433
  52.2499674  67.8132642 149.1538071  52.7445956  66.3298511 146.4355479
  53.4396860  66.9505204 146.6542794  53.0869106  65.4793862 146.7107857
  54.6437379  63.7798217 147.9642810  55.1688703  64.1185489 147.2392130
  54.5559731  62.8445232 147.7805945  46.8360824  66.4360263 145.3430573
  46.2634791  67.0550450 144.8901045  47.4093618  66.9859625 145.8770495
  50.0558084  66.7197413 146.4739155  50.9888757  66.6542975 146.6772031
  49.9681297  67.5553680 146.0153688  52.6846101  66.0363283 143.4343103
  52.6059732  65.7023147 144.3278860  53.5055767  66.5285051 143.4334575
  47.2207623  57.7721076 142.6846625  48.1666727  57.6427284 142.7535043
  46.8421868  57.0335737 143.1616053  50.2550052  63.3531279 143.0553081
  50.9585902  63.5581281 143.6710736  49.5312701  63.9208041 143.3202164
  52.1636750  63.7913808 145.1051541  52.9982354  63.3595006 144.9229016
  52.0021093  63.6195822 146.0328435  51.8182642  60.2945921 146.4707880
  51.7631446  60.1290193 145.5296324  51.1928697  61.0021954 146.6270070
  60.7921025  74.3083459 155.2006718  61.4299435  74.1890206 154.4970058
  60.6741868  75.2564303 155.2594670  57.6010731  74.2610887 155.1368242
  57.2629243  74.1451952 154.2488777  58.4700499  73.8602052 155.1169249
  53.4597547  76.1146364 151.1265133  52.8962412  76.0236300 150.3581421
  53.3449942  75.2946268 151.6067626  51.0061979  77.6097555 153.9649354
  51.7983271  77.2688380 153.5495653  51.2458629  77.7192530 154.8851507
  59.0397106  79.7817331 146.4379598  58.3885085  80.3671412 146.0513612
  59.8341468  80.3123526 146.4974636  52.9652733  76.8706468 146.8366733
  53.7383609  76.3235455 146.6979608  53.3178132  77.7350718 147.0481194
  55.7293982  75.5759699 156.6334992  56.3257554  75.3515722 155.9191954
  55.7868954  74.8344445 157.2360439  55.3019011  73.0299135 144.4685182
  55.5544531  72.5080656 143.7068645  54.3643570  72.8665280 144.5711866
  60.3462293  72.0334913 152.2759926  61.1325383  71.6154336 151.9250343
  60.6100998  72.9381005 152.4441574  60.5172371  77.4707763 146.9748583
  59.8818204  77.5442390 147.6869487  60.1869777  78.0601362 146.2967662
  65.7470720  71.9710146 153.1792904  66.4795892  71.4009363 153.4130734
  64.9910076  71.5831747 153.6199410  55.0215299  74.9327240 146.6709557
  54.9051557  74.2572144 147.3390642  55.1317559  74.4459614 145.8541710
  57.3646840  74.3937388 150.3756247  57.0005047  73.8668009 151.0869168
  58.2213956  74.0035857 150.2022732  57.0052327  69.4227287 145.3717595
  57.1726730  70.2907524 145.7388066  56.8149496  69.5854569 144.4478884
  59.7627660  77.8844266 157.0383426  59.4628383  78.7869305 156.9299233
  59.4178720  77.6176449 157.8904578  53.2140142  74.3358063 153.0720130
  52.2890638  74.2034277 153.2797822  53.4624555  75.1152282 153.5690072
  63.1624804  70.4026806 154.7180863  62.2541681  70.3342215 154.4239624
  63.1112400  70.8798751 155.5462688  56.9841548  71.8784945 146.3564262
  56.8641173  72.3241996 147.1949742  56.2894136  72.2270262 145.7977800
  50.5748953  73.9791337 153.9063919  50.7041334  74.2325815 154.8203331
  49.8946404  74.5719045 153.5868574  54.7448440  84.6488587 150.0054393
  54.6672470  85.5996412 150.0842874  54.1410084  84.3034459 150.6629320
  62.6826614  72.3506418 147.1844596  63.5944470  72.5833805 147.0092294
  62.1736261  72.9343462 146.6219675  61.2896197  77.3332236 154.5758178
  60.6605059  77.4977951 153.8734245  60.9021859  77.7473846 155.3469142
  65.1685428  78.2686674 151.9302541  64.4836467  78.6485576 151.3799575
  65.2529278  78.8782001 152.6634489  62.4236360  75.9146633 158.5297885
  62.6353255  76.5578393 157.8532266  62.3766108  75.0808950 158.0619815
  56.8424158  77.0706644 151.8408263  57.3062504  77.3494347 151.0512885
  56.5780956  76.1690089 151.6581353  53.7348239  76.6178126 154.7788026
  54.3049597  77.0465394 154.1405510  54.3256351  76.3360711 155.4772212
  55.7793044  73.1929797 148.6497828  56.4817088  73.6450841 149.1171754
  55.4473673  72.5513616 149.2777721  63.5382188  78.7918589 156.7020242
  64.3599632  78.3898776 156.4202924  63.5344591  78.6886823 157.6536358
  51.4733124  71.8157929 150.9098438  50.6764287  71.9276623 151.4281934
  51.2458716  72.1544581 150.0439329  57.3038791  78.3402632 158.8580953
  57.3683224  78.8023039 159.6939125  56.5949715  77.7099997 158.9863263
  71.6288181  75.1357337 153.0505214  70.8751889  74.5664735 152.8949218
  71.7635722  75.1020002 153.9975848  57.0186809  80.0070739 148.7259933
  56.8832484  80.8522275 149.1544781  57.5596622  80.2090017 147.9625867
  50.4716206  77.5246178 149.2987858  50.9840727  78.3189428 149.4493423
  51.1238919  76.8272468 149.2321460  52.2811091  80.6411934 151.3810611
  52.4577719  81.5629898 151.1931595  53.0767925  80.3270353 151.8104991
  53.4042407  82.1590108 157.3820954  53.9549832  82.0307171 156.6097948
  52.5653883  82.4584997 157.0315846  60.7436524  80.9097106 160.8841676
  60.7254999  81.7305987 160.3921946  61.6656444  80.7851181 161.1091818
  48.4365123  75.8534832 150.0747429  49.2740345  76.2631840 149.8581136
  48.6143391  74.9134274 150.0447622  60.3329555  73.5209912 145.7631262
  59.8176179  74.2914517 146.0019649  60.0606864  72.8475049 146.3864323
  57.9176666  68.3659613 150.8216500  57.0618263  67.9766464 150.6422139
  58.3303618  68.4451574 149.9616285  65.3063829  76.2742267 147.6984435
  64.5293272  75.9353427 147.2539597  65.9855310  76.2794890 147.0239400
  60.1215859  71.3937005 147.5891043  59.8165994  71.7083154 148.4401186
  61.0746301  71.4718424 147.6318376  58.5662290  77.5527228 149.2383997
  58.0383652  76.8179987 148.9257234  58.0649793  78.3301904 148.9923965
  63.5455136  75.7476248 154.3551043  62.8878811  76.4375510 154.4431172
  64.3495536  76.1372680 154.6985029  53.2981018  68.2146894 151.5990608
  53.8724770  67.9922076 150.8663801  53.8852000  68.2835589 152.3519210
  62.3560595  74.1020621 152.4054985  62.8692477  74.7350613 152.9076695
  63.0061819  73.5021817 152.0398345  53.6250605  70.2451355 145.6186494
  52.7887917  70.5826042 145.9395768  53.4855375  70.1100335 144.6813630
  55.6003686  65.0888143 150.3265678  54.9468098  64.7737160 149.7022292
  55.5584160  64.4663884 151.0525501  56.7114891  75.3707438 142.2418970
  55.8041952  75.1396692 142.4410119  57.2085923  74.5745057 142.4292951
  59.6182969  84.0804945 145.1615656  58.9444668  84.3836642 145.7700614
  60.0048791  84.8834026 144.8121113  58.8341426  71.5770077 154.6513325
  57.9163987  71.7985024 154.4935013  59.2501570  71.6516387 153.7925033
  59.6176474  72.9761492 149.7816006  60.3648293  73.4882889 149.4723128
  59.8868063  72.6545545 150.6420399  57.8903124  75.4720033 146.7642960
  56.9814343  75.1879066 146.8615430  57.9198208  75.8919112 145.9046267
  63.1222391  79.0826623 150.5334127  62.6684719  78.2417532 150.5899318
  62.4916358  79.7188021 150.8708908  62.0655311  70.0118609 151.7634795
  61.3278068  69.4995995 152.0945037  62.3182084  69.5718990 150.9518072
  61.5655331  80.9203119 151.4683946  61.8578305  81.4808176 150.7496311
  62.0753951  81.2131680 152.2237105  62.1666938  62.7894861 152.3576564
  62.4725815  61.9292224 152.0702479  62.8919543  63.3812481 152.1575558
  48.4591294  73.1925547 150.7458162  48.2615694  72.5994908 150.0209229
  47.9037958  72.8877757 151.4634101  56.4388018  73.0848654 152.8652755
  56.4936628  72.1322490 152.7895232  55.6279220  73.2408093 153.3494054
  57.5879212  77.0128777 144.1031038  57.1498642  76.2964636 143.6436676
  58.3289653  77.2404891 143.5416130  54.3780378  71.7025713 150.6243134
  53.5648243  72.0019884 151.0308326  54.8739372  71.3081402 151.3417616
  56.5288956  81.6983470 152.5577399  56.4865135  81.9244317 151.6285931
  57.4451655  81.4646845 152.7063200  65.7052327  75.2885974 150.1607357
  65.5670225  75.4787570 149.2328546  65.3488545  76.0505357 150.6175408
  65.7321706  77.3562501 155.1718628  66.1658213  77.2637790 156.0201683
  66.4453287  77.3320001 154.5338644  54.6454757  78.5746499 152.3539361
  55.4395355  78.0796819 152.1521936  53.9346449  78.0464362 151.9907067
  59.4649601  80.9564595 156.7051729  59.5186623  81.5255531 157.4729445
  58.5964382  81.1266480 156.3405766  50.9537520  72.7189581 148.4299114
  50.0235108  72.6574037 148.6469076  51.0494992  72.1965534 147.6335755
  50.8723069  69.2444394 151.0177356  51.1329886  70.1589727 150.9086516
  51.6940241  68.7768836 151.1673969  66.5937256  77.3986201 157.7051514
  66.7873146  78.3032012 157.9510789  66.4937874  76.9393620 158.5390099
  58.4237701  75.1224857 158.2638661  59.3529761  75.2736016 158.0907628
  58.0028731  75.2108878 157.4087307  57.2226033  79.1475521 156.0337199
  57.0837118  78.7794306 156.9063137  56.4340629  79.6623161 155.8621156
  57.8174185  84.2484618 147.3762735  57.9925940  83.7772661 148.1908358
  57.1306973  84.8750384 147.6043996  58.7731248  78.5257124 153.4226036
  58.4381080  78.4857894 154.3183686  58.2735193  77.8601840 152.9496447
  61.7090439  75.8713158 143.6963096  61.0919610  75.1459986 143.5996149
  61.2406928  76.6322519 143.3530170  63.3644571  80.5812067 161.3568876
  63.3057117  79.8971287 160.6899459  63.7664089  81.3231057 160.9049502
  52.3835270  87.3973981 154.1502595  52.6231868  88.0292505 154.8281614
  51.5404466  87.0462021 154.4367955  53.4988985  70.0898583 142.8184400
  52.6218452  69.9687383 142.4546647  53.9746738  69.2984661 142.5663289
  63.3661978  78.5451651 159.5882856  62.4788757  78.2077572 159.7109255
  63.9360529  77.8134682 159.8251621  56.8963132  83.2053103 156.5544099
  56.8233303  84.0108074 157.0663404  56.4540525  83.4045069 155.7292121
  56.6852911  82.4424873 150.0646921  55.9020433  82.9846553 150.1585145
  57.3845657  82.9598853 150.4641162  59.9949561  68.2519502 152.7081126
  60.4918261  67.4989465 152.3882196  59.2236543  68.2883819 152.1424336
  67.8479319  73.9559868 154.3499418  67.8369195  74.8384583 153.9793351
  66.9796698  73.6031419 154.1553955  59.3561815  83.1039937 158.7102258
  60.0689787  83.7387402 158.6378159  58.8651844  83.2003803 157.8942260
  61.0779342  77.0091190 150.2819550  60.1435621  77.1292652 150.1124254
  61.2556011  76.1063656 150.0179559  56.5784530  70.3936885 152.4352811
  56.2082318  69.8407926 153.1233716  57.0743623  69.7895019 151.8827811
  64.4651893  72.8508509 150.8169584  64.9312346  73.6836501 150.7429886
  64.9159394  72.3853491 151.5214842  54.4073729  80.8534380 159.5307829
  55.1083188  81.4870863 159.6837223  53.9368844  81.1949112 158.7703468
  62.5328125  79.1952330 147.8155736  62.8087969  79.0808925 148.7249610
  61.6632623  78.7969815 147.7767909  62.2075015  73.4078988 157.3560379
  61.5546465  73.6554895 156.7012832  62.5855395  72.5943126 157.0222856
  59.1682189  83.4438681 151.4588549  59.3504583  82.6260337 151.9216302
  59.9915175  83.6606373 151.0213439  59.5024354  82.3706866 148.7203598
  60.0312121  81.8599321 148.1073760  59.7652574  82.0549396 149.5849131
  50.0041447  80.3870735 156.4638931  50.5894884  79.6414423 156.5966836
  49.8066285  80.6974692 157.3475595  52.8580102  83.4221983 151.4801374
  52.1890477  83.9068111 150.9965414  52.7192972  83.6691203 152.3944752
  56.9985371  85.4565726 158.0784032  57.5503679  85.6197348 158.8433117
  57.3391564  86.0470164 157.4064057  48.2267679  71.6840438 148.2597306
  48.5221120  70.7751116 148.2064360  47.3255715  71.6628177 147.9378308
  60.1353758  83.4047702 155.0647714  60.0104897  82.6037442 154.5558660
  60.7932849  83.8993895 154.5761684  62.1988666  81.2056722 156.6927264
  61.2519002  81.0862073 156.6205591  62.5471439  80.3179220 156.7753526
  49.9555521  69.3654536 148.3836631  49.6268227  68.4851914 148.2011737
  50.3094891  69.3102204 149.2713020  59.2035100  81.0009438 152.8931617
  59.0560062  80.0726146 153.0739187  60.0288593  81.0229529 152.4088692
  53.0697344  69.6527505 148.7512109  53.4093416  70.1813427 148.0290717
  53.5169464  69.9907911 149.5270675  62.8069221  81.8237997 153.9796489
  63.7315769  81.6180858 153.8420941  62.6384525  81.5754398 154.8885831
  55.0565491  68.1502127 146.9505402  55.7773854  68.5283380 146.4469118
  54.4330795  68.8691004 147.0540379  59.1996614  68.8547276 147.8863734
  59.4160228  69.7371914 147.5852562  58.7190681  68.4633489 147.1569376
  62.5964538  82.3423664 149.3358581  62.7701415  81.7770087 148.5832433
  63.0893429  83.1424559 149.1538071  55.2029114  67.6849917 149.7802938
  55.3245025  66.7566564 149.9793826  54.9131156  67.6988603 148.8681254
  68.4503929  75.1060087 150.9548881  68.8935075  74.3567413 150.5568004
  67.5730439  75.0970224 150.5722613  63.5839710  81.6590429 146.4355479
  64.2790615  82.2797122 146.6542794  63.9262860  80.8085780 146.7107857
  65.4831133  79.1090134 147.9642810  66.0082457  79.4477407 147.2392130
  65.3953486  78.1737150 147.7805945  57.1451182  83.0224208 160.0932687
  57.4538308  82.7773355 160.9655386  57.9426664  83.2270846 159.6051557
  57.1671794  85.1762118 152.3238063  56.7276784  84.6838496 153.0170920
  57.9179911  84.6335085 152.0830138  49.6464133  81.3673658 152.3262691
  50.4722153  81.0677430 151.9461335  49.2958185  80.5981281 152.7752480
  54.6145666  80.7200127 154.3960365  53.9925675  80.0570832 154.0962593
  55.2850533  80.7461259 153.7134013  47.8472738  79.2859985 153.2851625
  47.0104646  78.8582159 153.1035626  47.8196383  79.4792428 154.2222416
  65.1725039  79.7423038 163.2694008  64.3820583  79.7247177 162.7298507
  64.9358394  80.2811332 164.0243044  65.2922914  76.5915504 160.5826736
  65.3420919  76.4265512 161.5242259  65.1836838  75.7242763 160.1924617
  54.1759173  79.2704050 147.8718825  54.3247293  79.9539514 147.2185498
  54.9825617  79.2509140 148.3868281  66.7941111  79.0112446 160.8268758
  66.5025920  79.3742426 161.6632219  66.1813242  78.2979454 160.6482090
  67.9936794  76.5765326 153.3471328  68.8283685  77.0155130 153.5108889
  68.1295922  76.1003979 152.5279574  65.0428299  74.1345061 159.2948816
  65.5182421  74.3272707 158.4867667  64.1193865  74.1904246 159.0492200
  51.9311806  75.2969228 148.8779894  51.6857848  74.3931558 149.0760104
  52.1007721  75.2986378 147.9359372  51.2007454  71.0297585 146.3766056
  50.5076699  71.1041940 145.7206092  50.9559205  70.2657929 146.8987573
  57.6754579  81.7652180 145.3430573  57.1028546  82.3842368 144.8901045
  58.2487372  82.3151542 145.8770495  60.8951838  82.0489331 146.4739155
  61.8282512  81.9834892 146.6772031  60.8075051  82.8845597 146.0153688
  63.5239855  81.3655201 143.4343103  63.4453487  81.0315065 144.3278860
  64.3449522  81.8576969 143.4334575  66.2218046  74.2316940 156.6419421
  66.1894366  73.2932941 156.8279105  66.8318670  74.3100977 155.9085246
  58.0601377  73.1012993 142.6846625  59.0060482  72.9719201 142.7535043
  57.6815622  72.3627655 143.1616053  66.3712535  71.0227984 156.6877704
  65.8551583  70.2386440 156.5007633  67.2552483  70.6946700 156.8524224
  64.0323262  64.7668999 152.6473517  63.8348083  64.4584087 153.5316849
  64.6422967  65.4930638 152.7771447  72.0394596  75.2932947 155.7825458
  72.7697985  75.0318235 156.3433161  71.4301542  74.5561669 155.8227526
  70.1209893  73.4340810 156.3799909  69.3943057  73.2996775 155.7716401
  69.7057180  73.7417638 157.1856627  56.2444294  71.0262970 142.6201510
  55.3375750  70.7296082 142.6964224  56.5220275  70.7292788 141.7535797
  57.8606360  65.5699859 148.7745752  57.0507088  65.2246944 149.1500998
  58.5490777  65.2607403 149.3633363  59.7896908  64.6477906 150.3970048
  60.3427947  65.0673360 151.0560071  60.0266995  63.7213654 150.4393004
  55.0143079  67.8849905 142.7613490  55.8762243  68.2104803 143.0209307
  55.1993423  67.0981401 142.2486555  63.1675715  66.7578431 149.9048713
  62.5874384  67.4163235 149.5226765  62.9011648  65.9355776 149.4936130
  61.6179282  66.1583489 152.1070033  62.1179060  66.2700024 151.2984352
  62.2614890  65.8544542 152.7470841  48.9447237  75.8990498 152.9159693
  48.9217925  75.9978186 151.9641576  49.2547874  76.7455649 153.2376859
  61.9500593  68.9178522 148.9605061  61.0626448  69.2028172 148.7425256
  62.3654582  68.7572285 148.1132338  65.3015130  68.9425043 152.6759400
  66.0775520  69.4321495 152.9484017  64.5763264  69.3683097 153.1331270
  67.7387688  69.6552662 153.7333341  68.3332179  69.4148398 153.0226649
  67.8114272  68.9359792 154.3606877  49.9584844  83.4986273 154.0476506
  49.8239312  82.7386674 153.4814504  49.5416906  84.2227173 153.5805294
  61.0943807  78.6823196 143.0553081  61.7979657  78.8873199 143.6710736
  60.3706456  79.2499958 143.3202164  61.9241617  74.4333058 149.1755351
  61.8676819  74.8901609 148.3362983  62.4769960  73.6723742 148.9978194
  65.7346423  70.2222790 150.0005471  65.4783357  69.8219425 150.8313678
  65.1099291  70.9366583 149.8755610  70.0458761  72.9618863 152.5076762
  69.4858319  73.0312052 153.2808324  69.4402264  72.7859847 151.7876258
  53.1153970  84.3955590 154.2594948  52.9986354  85.3401022 154.1573638
  52.2946416  84.0929151 154.6480747  63.0030504  79.1205726 145.1051541
  63.8376108  78.6886924 144.9229016  62.8414847  78.9487739 146.0328435
  62.6576396  75.6237839 146.4707880  62.6025200  75.4582110 145.5296324
  62.0322452  76.3313872 146.6270070  55.9672522  65.1245948 146.0493199
  55.9551192  66.0687788 146.2061469  56.8595944  64.9416093 145.7552660
  54.1408484  85.0483852 157.4750877  55.0435731  85.0807462 157.7917372
  53.9145854  84.1184303 157.4897212  55.8962086  83.8014838 154.1360955
  54.9457717  83.8016700 154.0225328  56.1994572  83.0547573 153.6196990
  59.7824641  61.7188725 150.3039135  59.0157037  61.1647211 150.4495818
  60.1935346  61.7910593 151.1653287  71.6314779  89.6375377 155.2006718
  72.2693189  89.5182124 154.4970058  71.5135622  90.5856221 155.2594670
  68.4404486  89.5902805 155.1368242  68.1022997  89.4743869 154.2488777
  69.3094254  89.1893970 155.1169249  64.2991301  91.4438281 151.1265133
  63.7356166  91.3528218 150.3581421  64.1843696  90.6238186 151.6067626
  61.8455733  92.9389473 153.9649354  62.6377025  92.5980297 153.5495653
  62.0852383  93.0484448 154.8851507  69.8790860  95.1109249 146.4379598
  69.2278840  95.6963329 146.0513612  70.6735223  95.6415444 146.4974636
  63.8046487  92.1998386 146.8366733  64.5777363  91.6527373 146.6979608
  64.1571886  93.0642635 147.0481194  66.5687737  90.9051617 156.6334992
  67.1651309  90.6807639 155.9191954  66.6262708  90.1636362 157.2360439
  66.1412765  88.3591052 144.4685182  66.3938286  87.8372573 143.7068645
  65.2037324  88.1957198 144.5711866  71.1856048  87.3626831 152.2759926
  71.9719137  86.9446254 151.9250343  71.4494752  88.2672923 152.4441574
  71.3566125  92.7999681 146.9748583  70.7211958  92.8734307 147.6869487
  71.0263532  93.3893280 146.2967662  76.5864475  87.3002064 153.1792904
  77.3189647  86.7301281 153.4130734  75.8303831  86.9123664 153.6199410
  65.8609054  90.2619158 146.6709557  65.7445312  89.5864062 147.3390642
  65.9711314  89.7751532 145.8541710  68.2040595  89.7229305 150.3756247
  67.8398802  89.1959926 151.0869168  69.0607711  89.3327774 150.2022732
  74.1089895  81.0123638 157.6387513  73.7773220  81.8819049 157.4148728
  73.5135509  80.6959922 158.3181543  67.8446082  84.7519205 145.3717595
  68.0120484  85.6199441 145.7388066  67.6543251  84.9146487 144.4478884
  64.0533896  89.6649981 153.0720130  63.1284393  89.5326195 153.2797822
  64.3018310  90.4444200 153.5690072  74.0018559  85.7318724 154.7180863
  73.0935436  85.6634132 154.4239624  73.9506154  86.2090669 155.5462688
  67.8235303  87.2076862 146.3564262  67.7034928  87.6533913 147.1949742
  67.1287891  87.5562180 145.7977800  61.4142707  89.3083254 153.9063919
  61.5435089  89.5617733 154.8203331  60.7340159  89.9010962 153.5868574
  65.5842195  99.9780504 150.0054393  65.5066224 100.9288329 150.0842874
  64.9803838  99.6326377 150.6629320  75.8680205  83.9335162 156.4958737
  75.2254585  84.2267696 155.8498531  75.3635134  83.8188083 157.3011933
  73.5220369  87.6798336 147.1844596  74.4338225  87.9125722 147.0092294
  73.0130016  88.2635380 146.6219675  68.1592206  87.0395570 158.1939446
  69.0053402  87.4634984 158.3374095  68.0990844  86.3829195 158.8878009
  70.8656343  83.8556372 155.4334457  70.0040822  84.1537625 155.7251195
  70.8918778  84.0726770 154.5015490  67.6817913  92.3998562 151.8408263
  68.1456258  92.6786265 151.0512885  67.4174711  91.4982007 151.6581353
  64.5741994  91.9470044 154.7788026  65.1443351  92.3757312 154.1405510
  65.1650106  91.6652628 155.4772212  66.6186799  88.5221715 148.6497828
  67.3210842  88.9742758 149.1171754  66.2867427  87.8805533 149.2777721
  60.3612133  86.7805267 153.9514961  59.5711187  87.0362796 153.4755072
  60.8523380  87.5953605 154.0567002  62.3126878  87.1449846 150.9098438
  61.5158042  87.2568541 151.4281934  62.0852470  87.4836499 150.0439329
  58.6449836  87.0335758 156.3829952  58.8957874  87.9182768 156.6487528
  59.1809384  86.8540359 155.6105044  67.8580564  95.3362657 148.7259933
  67.7226238  96.1814193 149.1544781  68.3990376  95.5381935 147.9625867
  61.3109961  92.8538095 149.2987858  61.8234482  93.6481345 149.4493423
  61.9632674  92.1564386 149.2321460  63.1204846  95.9703851 151.3810611
  63.2971474  96.8921816 151.1931595  63.9161679  95.6562271 151.8104991
  62.4057202  88.0168483 161.2572774  62.2910717  87.1153741 161.5579873
  61.5501720  88.2632180 160.9057591  71.2073027  78.8593219 157.2558826
  70.8637297  79.7494861 157.1797937  71.5751990  78.6694877 156.3928411
  59.2758878  91.1826749 150.0747429  60.1134100  91.5923758 149.8581136
  59.4537145  90.2426192 150.0447622  71.1723310  88.8501830 145.7631262
  70.6569933  89.6206435 146.0019649  70.9000618  88.1766966 146.3864323
  68.7570421  83.6951531 150.8216500  67.9012017  83.3058381 150.6422139
  69.1697373  83.7743492 149.9616285  70.2869568  81.2297874 155.2208060
  69.7834363  81.1928009 154.4075865  70.5800174  82.1390617 155.2804716
  66.5312453  81.3136604 154.2274241  67.3965450  81.1179413 153.8680131
  66.5989962  81.0846956 155.1543598  76.1457584  91.6034185 147.6984435
  75.3687027  91.2645344 147.2539597  76.8249065  91.6086808 147.0239400
  70.9609613  86.7228922 147.5891043  70.6559749  87.0375071 148.4401186
  71.9140055  86.8010342 147.6318376  69.4056045  92.8819146 149.2383997
  68.8777406  92.1471905 148.9257234  68.9043548  93.6593822 148.9923965
  64.1374772  83.5438812 151.5990608  64.7118524  83.3213993 150.8663801
  64.7245755  83.6127506 152.3519210  73.1954350  89.4312539 152.4054985
  73.7086231  90.0642531 152.9076695  73.8455574  88.8313734 152.0398345
  64.4644360  85.5743273 145.6186494  63.6281672  85.9117959 145.9395768
  64.3249129  85.4392253 144.6813630  66.4397440  80.4180061 150.3265678
  65.7861853  80.1029078 149.7022292  66.3977914  79.7955801 151.0525501
  67.5508645  90.6999356 142.2418970  66.6435707  90.4688609 142.4410119
  68.0479677  89.9036975 142.4292951  70.4576724  99.4096863 145.1615656
  69.7838423  99.7128560 145.7700614  70.8442546 100.2125943 144.8121113
  69.6735181  86.9061994 154.6513325  68.7557742  87.1276941 154.4935013
  70.0895324  86.9808305 153.7925033  70.4570228  88.3053410 149.7816006
  71.2042047  88.8174807 149.4723128  70.7261818  87.9837463 150.6420399
  68.7296878  90.8011951 146.7642960  67.8208098  90.5170983 146.8615430
  68.7591962  91.2211029 145.9046267  73.9616146  94.4118540 150.5334127
  73.5078473  93.5709450 150.5899318  73.3310113  95.0479939 150.8708908
  72.9049065  85.3410526 151.7634795  72.1671822  84.8287912 152.0945037
  73.1575839  84.9010908 150.9518072  72.4049085  96.2495037 151.4683946
  72.6972060  96.8100094 150.7496311  72.9147706  96.5423598 152.2237105
  73.0060693  78.1186778 152.3576564  73.3119570  77.2584142 152.0702479
  73.7313298  78.7104398 152.1575558  59.2985049  88.5217465 150.7458162
  59.1009449  87.9286826 150.0209229  58.7431713  88.2169675 151.4634101
  67.2781773  88.4140571 152.8652755  67.3330382  87.4614408 152.7895232
  66.4672975  88.5700010 153.3494054  68.4272966  92.3420694 144.1031038
  67.9892396  91.6256553 143.6436676  69.1683407  92.5696809 143.5416130
  65.2174132  87.0317631 150.6243134  64.4041998  87.3311802 151.0308326
  65.7133127  86.6373320 151.3417616  67.3682710  97.0275388 152.5577399
  67.3258889  97.2536234 151.6285931  68.2845409  96.7938763 152.7063200
  76.5446081  90.6177891 150.1607357  76.4063980  90.8079487 149.2328546
  76.1882300  91.3797274 150.6175408  64.7088207  84.6035987 156.2404369
  65.3487587  84.4624746 155.5427332  63.8765738  84.3170500 155.8642971
  65.4848511  93.9038417 152.3539361  66.2789110  93.4088737 152.1521936
  64.7740203  93.3756280 151.9907067  61.7931275  88.0481499 148.4299114
  60.8628863  87.9865954 148.6469076  61.8888747  87.5257451 147.6335755
  61.7116824  84.5736312 151.0177356  61.9723641  85.4881645 150.9086516
  62.5333996  84.1060754 151.1673969  63.1841749  85.9874069 158.1876180
  63.8564802  85.7791431 157.5388829  62.3571535  85.7896155 157.7481413
  69.0867321  82.6136010 160.2041841  68.4395236  83.3125959 160.1106318
  69.8568336  83.0472154 160.5718089  68.6567939  99.5776535 147.3762735
  68.8319695  99.1064579 148.1908358  67.9700727 100.2042302 147.6043996
  69.6125002  93.8549042 153.4226036  69.2774835  93.8149812 154.3183686
  69.1128948  93.1893758 152.9496447  63.5869246  89.2616672 158.9478618
  63.4489044  88.5296911 159.5490157  64.4974170  89.1725572 158.6662805
  72.5484194  91.2005076 143.6963096  71.9313365  90.4751904 143.5996149
  72.0800682  91.9614436 143.3530170  64.9280481  85.9601849 160.2557937
  64.3917838  85.5092587 160.9079533  64.3397189  86.0947758 159.5128401
  64.3382740  85.4190500 142.8184400  63.4612206  85.2979301 142.4546647
  64.8140493  84.6276579 142.5663289  55.8584880  90.2067660 152.9125907
  56.5455920  89.8929390 152.3246923  55.7033009  91.1109025 152.6393159
  60.6619602  85.0957857 157.3410931  60.5777791  84.4883526 156.6061341
  59.8402308  85.5866875 157.3420427  67.5246666  97.7716791 150.0646921
  66.7414188  98.3138471 150.1585145  68.2239411  98.2890770 150.4641162
  70.8343316  83.5811420 152.7081126  71.3312015  82.8281382 152.3882196
  70.0630297  83.6175737 152.1424336  71.9173097  92.3383107 150.2819550
  70.9829375  92.4584570 150.1124254  72.0949765  91.4355574 150.0179559
  67.4178285  85.7228803 152.4352811  67.0476072  85.1699843 153.1233716
  67.9137377  85.1186937 151.8827811  75.3045648  88.1800427 150.8169584
  75.7706100  89.0128418 150.7429886  75.7553148  87.7145408 151.5214842
  73.3721879  94.5244248 147.8155736  73.6481723  94.4100842 148.7249610
  72.5026378  94.1261733 147.7767909  73.2762311  80.5481014 154.8560485
  72.3625391  80.7785240 155.0242692  73.7055412  80.6319458 155.7074517
  70.0075943  98.7730599 151.4588549  70.1898338  97.9552255 151.9216302
  70.8308929  98.9898291 151.0213439  70.3418109  97.6998784 148.7203598
  70.8705875  97.1891238 148.1073760  70.6046328  97.3841314 149.5849131
  60.8435201  95.7162653 156.4638931  61.4288638  94.9706341 156.5966836
  60.6460040  96.0266610 157.3475595  63.6973857  98.7513901 151.4801374
  63.0284232  99.2360028 150.9965414  63.5586726  98.9983121 152.3944752
  55.4352856  88.2868253 155.1843375  55.4736956  87.7531844 155.9780493
  54.9293149  87.7603459 154.5654352  62.8143618  83.1332794 158.6805917
  62.8784945  83.9947625 158.2683315  62.7510739  82.5206796 157.9478275
  62.2895891  85.2055926 162.3278951  62.9167930  84.8233004 162.9416475
  61.4323810  84.9870128 162.6934644  59.0661434  87.0132356 148.2597306
  59.3614875  86.1043034 148.2064360  58.1649469  86.9920095 147.9378308
  62.5955681  85.0888352 154.2424855  61.8742266  85.7024320 154.1032328
  63.3848936  85.6246117 154.1641500  65.3981994  82.4242779 160.5165506
  65.9216396  82.6705075 161.2791816  65.1794327  83.2562813 160.0968644
  60.7949275  84.6946453 148.3836631  60.4661981  83.8143832 148.2011737
  61.1488646  84.6394122 149.2713020  70.0428854  96.3301356 152.8931617
  69.8953817  95.4018063 153.0739187  70.8682348  96.3521447 152.4088692
  63.9091098  84.9819423 148.7512109  64.2487171  85.5105344 148.0290717
  64.3563219  85.3199829 149.5270675  66.6034539  83.3656474 158.2015177
  66.2631360  82.5664287 158.6035857  65.8973545  83.6658185 157.6292010
  67.2551011  80.4505786 156.6542500  68.0777080  79.9766264 156.5321390
  67.4989075  81.2296270 157.1541186  65.8959246  83.4794045 146.9505402
  66.6167608  83.8575297 146.4469118  65.2724550  84.1982921 147.0540379
  70.0390368  84.1839194 147.8863734  70.2553983  85.0663831 147.5852562
  69.5584436  83.7925407 147.1569376  64.7789590  87.1424907 154.4634478
  64.6334171  87.4565210 155.3558760  64.3014793  87.7609807 153.9105377
  66.6385973  84.1327455 154.5115368  66.6247541  83.2368548 154.1747666
  67.3558401  84.1398119 155.1453654  68.4912103  84.5664795 156.5568495
  68.2329881  85.4881866 156.5552826  67.9597144  84.1695230 157.2468960
  73.4358292  97.6715582 149.3358581  73.6095170  97.1062005 148.5832433
  73.9287183  98.4716477 149.1538071  59.2535252  89.6830251 157.4022140
  58.7088720  90.4590059 157.5342414  60.1314602  90.0301056 157.2441261
  66.0422869  83.0141835 149.7802938  66.1638780  82.0858481 149.9793826
  65.7524911  83.0280521 148.8681254  68.9114059  80.6996745 152.9169658
  68.9335756  80.7636079 151.9621638  69.3282118  79.8601254 153.1110164
  79.2897683  90.4352005 150.9548881  79.7328829  89.6859330 150.5568004
  78.4124194  90.4262141 150.5722613  74.4233465  96.9882347 146.4355479
  75.1184369  97.6089039 146.6542794  74.7656615  96.1377698 146.7107857
  60.0401274  88.8100147 160.2952297  59.2983010  88.9582783 160.8816927
  59.7194018  89.0708413 159.4319046  76.3224888  94.4382052 147.9642810
  76.8476212  94.7769325 147.2392130  76.2347240  93.5029067 147.7805945
  60.4857887  96.6965576 152.3262691  61.3115907  96.3969348 151.9461335
  60.1351939  95.9273199 152.7752480  65.4539421  96.0492044 154.3960365
  64.8319430  95.3862749 154.0962593  66.1244288  96.0753176 153.7134013
  58.6866493  94.6151903 153.2851625  57.8498401  94.1874077 153.1035626
  58.6590138  94.8084346 154.2222416  65.0152928  94.5995968 147.8718825
  65.1641048  95.2831432 147.2185498  65.8219371  94.5801058 148.3868281
  62.7705561  90.6261145 148.8779894  62.5251602  89.7223475 149.0760104
  62.9401475  90.6278296 147.9359372  70.4602270  81.4984822 158.2604650
  70.9784214  82.2345849 157.9351138  70.1057403  81.8048815 159.0951409
  62.0401208  86.3589503 146.3766056  61.3470453  86.4333858 145.7206092
  61.7952960  85.5949847 146.8987573  70.7114865  77.9185104 153.7805546
  70.9916618  77.2508293 154.4065973  71.4965472  78.1114200 153.2680210
  68.5148333  97.0944098 145.3430573  67.9422300  97.7134285 144.8901045
  69.0881127  97.6443460 145.8770495  72.6038102  83.4258321 157.7136522
  72.0088035  83.7063334 157.0183011  72.3187799  83.9152222 158.4853264
  71.7345593  97.3781248 146.4739155  72.6676266  97.3126810 146.6772031
  71.6468806  98.2137515 146.0153688  74.3633610  96.6947119 143.4343103
  74.2847241  96.3606982 144.3278860  75.1843276  97.1868887 143.4334575
  68.8995132  88.4304911 142.6846625  69.8454236  88.3011119 142.7535043
  68.5209377  87.6919573 143.1616053  74.8717016  80.0960917 152.6473517
  74.6741837  79.7876005 153.5316849  75.4816722  80.8222556 152.7771447
  67.0838049  86.3554887 142.6201510  66.1769504  86.0588000 142.6964224
  67.3614030  86.0584705 141.7535797  58.0015989  87.6761251 153.0700557
  57.6818773  86.8226559 152.7774931  57.4549417  87.8909829 153.8258524
  61.7795897  90.3923692 156.7870063  61.9981906  91.3240800 156.8058097
  62.1921670  90.0331666 157.5724867  68.7000114  80.8991777 148.7745752
  67.8900843  80.5538862 149.1500998  69.3884531  80.5899321 149.3633363
  70.6290663  79.9769824 150.3970048  71.1821701  80.3965277 151.0560071
  70.8660749  79.0505572 150.4393004  65.8536833  83.2141823 142.7613490
  66.7155997  83.5396721 143.0209307  66.0387178  82.4273318 142.2486555
  57.8704249  91.2964162 155.0393678  57.1767721  90.8818115 154.5263633
  58.6177240  91.3384699 154.4427097  74.0069470  82.0870349 149.9048713
  73.4268139  82.7455153 149.5226765  73.7405403  81.2647694 149.4936130
  72.4573036  81.4875407 152.1070033  72.9572815  81.5991941 151.2984352
  73.1008644  81.1836460 152.7470841  59.7840992  91.2282416 152.9159693
  59.7611680  91.3270103 151.9641576  60.0941628  92.0747567 153.2376859
  62.4428370  93.2858571 157.0306308  63.3971623  93.2542513 156.9636239
  62.2440893  92.8249195 157.8456534  72.7894348  84.2470439 148.9605061
  71.9020203  84.5320090 148.7425256  73.2048337  84.0864203 148.1132338
  76.1408884  84.2716960 152.6759400  76.9169274  84.7613413 152.9484017
  75.4157018  84.6975015 153.1331270  78.5781443  84.9844580 153.7333341
  79.1725933  84.7440316 153.0226649  78.6508026  84.2651710 154.3606877
  60.7978598  98.8278191 154.0476506  60.6633066  98.0678591 153.4814504
  60.3810661  99.5519090 153.5805294  71.9337561  94.0115114 143.0553081
  72.6373411  94.2165117 143.6710736  71.2100210  94.5791876 143.3202164
  72.7635372  89.7624975 149.1755351  72.7070573  90.2193527 148.3362983
  73.3163714  89.0015660 148.9978194  76.5740178  85.5514707 150.0005471
  76.3177112  85.1511343 150.8313678  75.9493046  86.2658501 149.8755610
  80.8852515  88.2910780 152.5076762  80.3252073  88.3603970 153.2808324
  80.2796019  88.1151765 151.7876258  73.8424259  94.4497643 145.1051541
  74.6769863  94.0178842 144.9229016  73.6808602  94.2779657 146.0328435
  73.4970151  90.9529757 146.4707880  73.4418955  90.7874028 145.5296324
  72.8716206  91.6605789 146.6270070  58.2862666  86.1897821 160.2969302
  58.9321530  85.6796775 160.7856528  58.0779817  86.9266503 160.8712728
  66.8066276  80.4537866 146.0493199  66.7944946  81.3979705 146.2061469
  67.6989698  80.2708011 145.7552660  70.6218396  77.0480642 150.3039135
  69.8550792  76.4939129 150.4495818  71.0329101  77.1202511 151.1653287
  76.9806520 103.6882970 144.4685182  77.2332040 103.1664491 143.7068645
  76.0431079 103.5249115 144.5711866  78.6839836 100.0811123 145.3717595
  78.8514238 100.9491359 145.7388066  78.4937005 100.2438404 144.4478884
  75.3038114 100.9035191 145.6186494  74.4675426 101.2409877 145.9395768
  75.1642884 100.7684170 144.6813630  77.2791195  95.7471978 150.3265678
  76.6255607  95.4320996 149.7022292  77.2371669  95.1247719 151.0525501
  78.3902400 106.0291273 142.2418970  77.4829461 105.7980527 142.4410119
  78.8873432 105.2328893 142.4292951  75.1776494 100.7482418 142.8184400
  74.3005961 100.6271219 142.4546647  75.6534247  99.9568496 142.5663289
  69.9055188 102.3424273 148.2597306  70.2008629 101.4334952 148.2064360
  69.0043224 102.3212013 147.9378308  71.6343030 100.0238371 148.3836631
  71.3055736  99.1435750 148.2011737  71.9882400  99.9686040 149.2713020
  76.7353000  98.8085962 146.9505402  77.4561363  99.1867215 146.4469118
  76.1118304  99.5274839 147.0540379  72.8794963 101.6881421 146.3766056
  72.1864208 101.7625776 145.7206092  72.6346714 100.9241764 146.8987573
  79.7388886 103.7596829 142.6846625  80.6847991 103.6303037 142.7535043
  79.3603131 103.0211491 143.1616053  77.9231803 101.6846805 142.6201510
  77.0163259 101.3879918 142.6964224  78.2007784 101.3876623 141.7535797
  79.5393869  96.2283695 148.7745752  78.7294597  95.8830780 149.1500998
  80.2278286  95.9191238 149.3633363  76.6930588  98.5433740 142.7613490
  77.5549752  98.8688639 143.0209307  76.8780932  97.7565236 142.2486555
  77.6460031  95.7829783 146.0493199  77.6338701  96.7271623 146.2061469
  78.5383453  95.5999929 145.7552660  48.2003352  41.4587536 133.1624905
  47.5491332  42.0441617 132.7758919  48.9947715  41.9893731 133.2219942
  54.4670076  37.9512472 134.4229742  53.6899519  37.6123632 133.9784904
  55.1461557  37.9565095 133.7484707  45.8721137  37.0477643 128.9664276
  44.9648199  36.8166897 129.1655425  46.3692169  36.2515262 129.1538258
  48.7789216  45.7575150 131.8860963  48.1050915  46.0606847 132.4945920
  49.1655038  46.5604231 131.5366420  46.7485459  38.6898982 130.8276345
  46.3104888  37.9734841 130.3681982  47.4895899  38.9175096 130.2661436
  46.9780431  45.9254823 134.1008042  47.1532187  45.4542866 134.9153664
  46.2913219  46.5520589 134.3289302  50.8696686  37.5483363 130.4208403
  50.2525857  36.8230191 130.3241455  50.4013175  38.3092724 130.0775477
  51.6934371  40.8722535 134.5401042  51.9694215  40.7579130 135.4494916
  50.8238870  40.4740020 134.5013215  48.6630601  44.0477071 135.4448904
  49.1918367  43.5369526 134.8319067  48.9258820  43.7319601 136.3094438
  51.7570784  44.0193869 136.0603887  51.9307662  43.4540292 135.3077740
  52.2499676  44.8194764 135.8783377  52.7445957  43.3360634 133.1600786
  53.4396862  43.9567326 133.3788100  53.0869107  42.4855985 133.4353164
  54.6437380  40.7860339 134.6888117  55.1688704  41.1247612 133.9637437
  54.5559733  39.8507355 134.5051251  46.8360825  43.4422385 132.0675879
  46.2634792  44.0612573 131.6146351  47.4093619  43.9921747 132.6015801
  50.0558085  43.7259536 133.1984462  50.9888758  43.6605097 133.4017337
  49.9681298  44.5615802 132.7398994  52.6846102  43.0425406 130.1588409
  52.6059733  42.7085270 131.0524167  53.5055769  43.5347174 130.1579882
  47.2207624  34.7783198 129.4091932  48.1666729  34.6489406 129.4780350
  46.8421869  34.0397860 129.8861360  50.2550054  40.3593401 129.7798388
  50.9585904  40.5643404 130.3956043  49.5312702  40.9270163 130.0447471
  52.1636751  40.7975931 131.8296848  52.9982355  40.3657129 131.6474322
  52.0021094  40.6257944 132.7573742  51.8182643  37.3008044 133.1953187
  51.7631447  37.1352315 132.2541631  51.1928698  38.0084077 133.3515377
  60.7921026  51.3145582 141.9252024  61.4299436  51.1952329 141.2215364
  60.6741869  52.2626426 141.9839976  57.6010732  51.2673010 141.8613549
  57.2629244  51.1514074 140.9734084  58.4700501  50.8664175 141.8414555
  53.4597548  53.1208486 137.8510440  52.8962413  53.0298423 137.0826728
  53.3449943  52.3008391 138.3312932  51.0061980  54.6159678 140.6894660
  51.7983272  54.2750502 140.2740960  51.2458630  54.7254653 141.6096814
  59.0397107  56.7879454 133.1624905  58.3885087  57.3733534 132.7758919
  59.8341470  57.3185649 133.2219942  52.9652734  53.8768591 133.5612039
  53.7383610  53.3297578 133.4224915  53.3178133  54.7412840 133.7726501
  55.7293983  52.5821822 143.3580298  56.3257556  52.3577844 142.6437261
  55.7868955  51.8406567 143.9605746  55.3019012  50.0361257 131.1930489
  55.5544532  49.5142778 130.4313952  54.3643571  49.8727403 131.2957173
  60.3462295  49.0397035 139.0005232  61.1325384  48.6216459 138.6495649
  60.6100999  49.9443128 139.1686881  60.5172372  54.4769886 133.6993889
  59.8818205  54.5504512 134.4114794  60.1869778  55.0663485 133.0212968
  65.7470722  48.9772269 139.9038211  66.4795894  48.4071485 140.1376040
  64.9910077  48.5893869 140.3444716  55.0215301  51.9389363 133.3954864
  54.9051559  51.2634266 134.0635948  55.1317560  51.4521737 132.5787017
  57.3646841  51.3999510 137.1001553  57.0005049  50.8730131 137.8114475
  58.2213957  51.0097979 136.9268039  57.0052328  46.4289410 132.0962902
  57.1726731  47.2969646 132.4633373  56.8149497  46.5916692 131.1724191
  59.7627662  54.8906389 143.7628732  59.4628385  55.7931428 143.6544539
  59.4178721  54.6238572 144.6149885  53.2140143  51.3420186 139.7965437
  52.2890640  51.2096400 140.0043128  53.4624556  52.1214405 140.2935379
  63.1624805  47.4088929 141.4426170  62.2541683  47.3404337 141.1484930
  63.1112401  47.8860874 142.2707995  56.9841549  48.8847067 133.0809569
  56.8641174  49.3304118 133.9195049  56.2894138  49.2332385 132.5223107
  50.5748954  50.9853459 140.6309226  50.7041335  51.2387938 141.5448637
  49.8946405  51.5781167 140.3113881  54.7448441  61.6550709 136.7299700
  54.6672471  62.6058534 136.8088180  54.1410085  61.3096582 137.3874626
  62.6826615  49.3568541 133.9089903  63.5944472  49.5895927 133.7337600
  62.1736263  49.9405585 133.3464981  61.2896198  54.3394359 141.3003484
  60.6605060  54.5040073 140.5979552  60.9021860  54.7535969 142.0714448
  65.1685430  55.2748797 138.6547848  64.4836468  55.6547698 138.1044881
  65.2529279  55.8844123 139.3879796  62.4236361  52.9208756 145.2543191
  62.6353257  53.5640516 144.5777573  62.3766110  52.0871072 144.7865122
  56.8424160  54.0768767 138.5653569  57.3062505  54.3556470 137.7758192
  56.5780958  53.1752212 138.3826660  53.7348241  53.6240249 141.5033333
  54.3049598  54.0527517 140.8650817  54.3256353  53.3422833 142.2017518
  55.7793046  50.1991919 135.3743134  56.4817089  50.6512963 135.8417061
  55.4473674  49.5575738 136.0023028  63.5382189  55.7980711 143.4265549
  64.3599633  55.3960899 143.1448230  63.5344592  55.6948945 144.3781665
  51.4733125  48.8220051 137.6343745  50.6764288  48.9338746 138.1527240
  51.2458717  49.1606704 136.7684635  57.3038793  55.3464755 145.5826259
  57.3683225  55.8085162 146.4184431  56.5949717  54.7162119 145.7108569
  71.6288182  52.1419460 139.7750520  70.8751891  51.5726858 139.6194525
  71.7635723  52.1082124 140.7221155  57.0186810  57.0132862 135.4505240
  56.8832485  57.8584398 135.8790087  57.5596623  57.2152140 134.6871173
  50.4716208  54.5308300 136.0233165  50.9840728  55.3251550 136.1738729
  51.1238921  53.8334591 135.9566766  52.2811092  57.6474056 138.1055918
  52.4577721  58.5692021 137.9176902  53.0767926  57.3332476 138.5350298
  53.4042408  59.1652230 144.1066260  53.9549833  59.0369294 143.3343254
  52.5653884  59.4647119 143.7561153  60.7436525  57.9159229 147.6086983
  60.7255000  58.7368110 147.1167252  61.6656445  57.7913304 147.8337124
  48.4365124  52.8596954 136.7992735  49.2740346  53.2693963 136.5826443
  48.6143392  51.9196397 136.7692929  60.3329557  50.5272035 132.4876568
  59.8176180  51.2976640 132.7264956  60.0606865  49.8537171 133.1109630
  57.9176668  45.3721736 137.5461807  57.0618264  44.9828586 137.3667445
  58.3303619  45.4513697 136.6861592  65.3063831  53.2804390 134.4229742
  64.5293274  52.9415549 133.9784904  65.9855312  53.2857013 133.7484707
  60.1215860  48.3999127 134.3136349  59.8165995  48.7145276 135.1646493
  61.0746302  48.4780547 134.3563682  58.5662292  54.5589350 135.9629303
  58.0383653  53.8242110 135.6502541  58.0649794  55.3364027 135.7169272
  63.5455138  52.7538371 141.0796350  62.8878812  53.4437632 141.1676478
  64.3495537  53.1434803 141.4230336  53.2981019  45.2209017 138.3235915
  53.8724771  44.9984198 137.5909108  53.8852002  45.2897711 139.0764516
  62.3560596  51.1082744 139.1300291  62.8692478  51.7412735 139.6322001
  63.0061820  50.5083939 138.7643651  53.6250606  47.2513478 132.3431800
  52.7887919  47.5888164 132.6641075  53.4855376  47.1162458 131.4058937
  55.6003687  42.0950266 137.0510984  54.9468099  41.7799283 136.4267599
  55.5584161  41.4726006 137.7770807  56.7114892  52.3769561 128.9664276
  55.8041954  52.1458814 129.1655425  57.2085924  51.5807180 129.1538258
  59.6182971  61.0867068 131.8860963  58.9444669  61.3898765 132.4945920
  60.0048793  61.8896148 131.5366420  58.8341427  48.5832199 141.3758632
  57.9163989  48.8047146 141.2180320  59.2501571  48.6578510 140.5170339
  59.6176475  49.9823615 136.5061312  60.3648294  50.4945012 136.1968434
  59.8868065  49.6607668 137.3665706  57.8903125  52.4782156 133.4888266
  56.9814345  52.1941188 133.5860736  57.9198209  52.8981234 132.6291573
  63.1222393  56.0888745 137.2579434  62.6684720  55.2479655 137.3144625
  62.4916359  56.7250143 137.5954214  62.0655312  47.0180731 138.4880101
  61.3278069  46.5058117 138.8190344  62.3182086  46.5781113 137.6763378
  61.5655332  57.9265242 138.1929252  61.8578306  58.4870299 137.4741618
  62.0753952  58.2193803 138.9482411  62.1666940  39.7956983 139.0821871
  62.4725816  38.9354347 138.7947786  62.8919544  40.3874603 138.8820865
  48.4591296  50.1987670 137.4703469  48.2615695  49.6057030 136.7454535
  47.9037960  49.8939880 138.1879407  56.4388019  50.0910776 139.5898062
  56.4936629  49.1384613 139.5140538  55.6279221  50.2470215 140.0739360
  57.5879213  54.0190899 130.8276345  57.1498643  53.3026758 130.3681982
  58.3289654  54.2467014 130.2661436  54.3780379  48.7087836 137.3488441
  53.5648245  49.0082007 137.7553633  54.8739373  48.3143525 138.0662923
  56.5288957  58.7045593 139.2822705  56.4865136  58.9306439 138.3531237
  57.4451656  58.4708967 139.4308507  65.7052328  52.2948096 136.8852664
  65.5670226  52.4849692 135.9573853  65.3488547  53.0567479 137.3420715
  65.7321707  54.3624623 141.8963935  66.1658214  54.2699912 142.7446989
  66.4453288  54.3382124 141.2583951  54.6454758  55.5808622 139.0784668
  55.4395356  55.0858942 138.8767243  53.9346450  55.0526485 138.7152374
  59.4649602  57.9626717 143.4297036  59.5186625  58.5317654 144.1974752
  58.5964384  58.1328602 143.0651073  50.9537521  49.7251704 135.1544421
  50.0235109  49.6636159 135.3714383  51.0494993  49.2027656 134.3581062
  50.8723070  46.2506516 137.7422662  51.1329888  47.1651850 137.6331823
  51.6940243  45.7830959 137.8919275  66.5937257  54.4048324 144.4296821
  66.7873147  55.3094134 144.6756095  66.4937875  53.9455743 145.2635406
  58.4237702  52.1286979 144.9883968  59.3529762  52.2798139 144.8152935
  58.0028732  52.2171000 144.1332614  57.2226034  56.1537644 142.7582505
  57.0837120  55.7856428 143.6308443  56.4340630  56.6685283 142.5866463
  57.8174186  61.2546740 134.1008042  57.9925942  60.7834784 134.9153664
  57.1306974  61.8812507 134.3289302  58.7731249  55.5319247 140.1471343
  58.4381082  55.4920017 141.0428993  58.2735195  54.8663962 139.6741753
  61.7090441  52.8775281 130.4208403  61.0919611  52.1522109 130.3241455
  61.2406929  53.6384641 130.0775477  63.3644572  57.5874189 148.0814183
  63.3057118  56.9033409 147.4144766  63.7664091  58.3293179 147.6294809
  52.3835271  64.4036103 140.8747902  52.6231869  65.0354627 141.5526920
  51.5404468  64.0524143 141.1613261  53.4988987  47.0960705 129.5429707
  52.6218453  46.9749506 129.1791954  53.9746740  46.3046784 129.2908596
  63.3661980  55.5513773 146.3128163  62.4788758  55.2139695 146.4354562
  63.9360531  54.8196804 146.5496928  56.8963133  60.2115226 143.2789406
  56.8233304  61.0170197 143.7908710  56.4540526  60.4107191 142.4537427
  56.6852913  59.4486996 136.7892227  55.9020434  59.9908676 136.8830452
  57.3845658  59.9660975 137.1886469  59.9949563  45.2581625 139.4326433
  60.4918262  44.5051587 139.1127503  59.2236544  45.2945942 138.8669642
  67.8479320  50.9621991 141.0744724  67.8369196  51.8446706 140.7038657
  66.9796700  50.6093541 140.8799261  59.3561817  60.1102060 145.4347565
  60.0689789  60.7449524 145.3623466  58.8651845  60.2065926 144.6187566
  61.0779343  54.0153312 137.0064856  60.1435622  54.1354775 136.8369561
  61.2556012  53.1125779 136.7424866  56.5784531  47.3999008 139.1598117
  56.2082319  46.8470048 139.8479023  57.0743624  46.7957142 138.6073117
  64.4651895  49.8570632 137.5414890  64.9312347  50.6898623 137.4675193
  64.9159395  49.3915613 138.2460149  54.4073730  57.8596503 146.2553135
  55.1083190  58.4932986 146.4082530  53.9368845  58.2011235 145.4948775
  62.5328126  56.2014453 134.5401042  62.8087970  56.0871047 135.4494916
  61.6632625  55.8031938 134.5013215  62.2075016  50.4141110 144.0805686
  61.5546466  50.6617018 143.4258138  62.5855396  49.6005249 143.7468163
  59.1682190  60.4500804 138.1833856  59.3504584  59.6322460 138.6461608
  59.9915176  60.6668496 137.7458746  59.5024355  59.3768989 135.4448904
  60.0312122  58.8661443 134.8319067  59.7652575  59.0611519 136.3094438
  50.0041448  57.3932858 143.1884238  50.5894885  56.6476546 143.3212142
  49.8066287  57.7036815 144.0720902  52.8580103  60.4284105 138.2046680
  52.1890479  60.9130233 137.7210720  52.7192973  60.6753326 139.1190059
  56.9985372  62.4627849 144.8029339  57.5503680  62.6259471 145.5678424
  57.3391565  63.0532287 144.1309364  48.2267680  48.6902560 134.9842613
  48.5221121  47.7813239 134.9309666  47.3255716  48.6690300 134.6623615
  60.1353759  60.4109825 141.7893021  60.0104899  59.6099564 141.2803966
  60.7932850  60.9056018 141.3006991  62.1988668  58.2118845 143.4172571
  61.2519003  58.0924196 143.3450898  62.5471441  57.3241343 143.4998832
  49.9555522  46.3716658 135.1081938  49.6268228  45.4914037 134.9257044
  50.3094893  46.3164327 135.9958327  59.2035101  58.0071561 139.6176923
  59.0560063  57.0788268 139.7984493  60.0288594  58.0291652 139.1333999
  53.0697345  46.6589628 135.4757415  53.4093418  47.1875549 134.7536024
  53.5169466  46.9970034 136.2515982  62.8069223  58.8300120 140.7041796
  63.7315770  58.6242981 140.5666247  62.6384526  58.5816521 141.6131138
  55.0565492  45.1564250 133.6750708  55.7773855  45.5345502 133.1714425
  54.4330796  45.8753126 133.7785686  59.1996615  45.8609398 134.6109041
  59.4160230  46.7434036 134.3097869  58.7190682  45.4695612 133.8814682
  62.5964539  59.3485787 136.0603887  62.7701416  58.7832209 135.3077740
  63.0893430  60.1486682 135.8783377  55.2029115  44.6912040 136.5048245
  55.3245027  43.7628686 136.7039132  54.9131158  44.7050726 135.5926560
  68.4503930  52.1122210 137.6794187  68.8935076  51.3629535 137.2813310
  67.5730440  52.1032346 137.2967919  63.5839711  58.6652551 133.1600786
  64.2790616  59.2859244 133.3788100  63.9262862  57.8147903 133.4353164
  65.4831135  56.1152257 134.6888117  66.0082459  56.4539530 133.9637437
  65.3953487  55.1799272 134.5051251  57.1451183  60.0286331 146.8177993
  57.4538310  59.7835477 147.6900693  57.9426665  60.2332969 146.3296863
  57.1671795  62.1824240 139.0483370  56.7276786  61.6900619 139.7416226
  57.9179912  61.6397208 138.8075445  49.6464134  58.3735781 139.0507998
  50.4722154  58.0739553 138.6706641  49.2958186  57.6043404 139.4997786
  54.6145667  57.7262249 141.1205671  53.9925677  57.0632954 140.8207899
  55.2850534  57.7523381 140.4379319  47.8472739  56.2922108 140.0096931
  47.0104648  55.8644282 139.8280933  47.8196385  56.4854551 140.9467723
  65.1725041  56.7485161 149.9939314  64.3820584  56.7309299 149.4543814
  64.9358395  57.2873454 150.7488351  65.2922916  53.5977627 147.3072043
  65.3420921  53.4327634 148.2487566  65.1836839  52.7304886 146.9169924
  54.1759174  56.2766173 134.5964132  54.3247295  56.9601637 133.9430805
  54.9825618  56.2571263 135.1113588  66.7941112  56.0174568 147.5514065
  66.5025921  56.3804549 148.3877526  66.1813244  55.3041577 147.3727397
  67.9936795  53.5827448 140.0716635  68.8283686  54.0217252 140.2354195
  68.1295924  53.1066101 139.2524881  65.0428301  51.1407183 146.0194123
  65.5182422  51.3334829 145.2112974  64.1193866  51.1966369 145.7737506
  51.9311807  52.3031350 135.6025201  51.6857849  51.3993680 135.8005411
  52.1007722  52.3048501 134.6604679  51.2007455  48.0359708 133.1011362
  50.5076700  48.1104063 132.4451398  50.9559207  47.2720052 133.6232879
  57.6754580  58.7714303 132.0675879  57.1028547  59.3904490 131.6146351
  58.2487374  59.3213665 132.6015801  60.8951840  59.0551453 133.1984462
  61.8282513  58.9897015 133.4017337  60.8075052  59.8907720 132.7398994
  63.5239856  58.3717324 130.1588409  63.4453488  58.0377187 131.0524167
  64.3449523  58.8639091 130.1579882  66.2218047  51.2379063 143.3664728
  66.1894368  50.2995064 143.5524412  66.8318671  51.3163100 142.6330553
  58.0601378  50.1075116 129.4091932  59.0060483  49.9781324 129.4780350
  57.6815623  49.3689778 129.8861360  66.3712536  48.0290106 143.4123011
  65.8551585  47.2448563 143.2252940  67.2552485  47.7008823 143.5769530
  64.0323263  41.7731122 139.3718824  63.8348084  41.4646210 140.2562156
  64.6422968  42.4992761 139.5016754  72.0394597  52.2995070 142.5070765
  72.7697986  52.0380358 143.0678468  71.4301543  51.5623792 142.5472833
  70.1209894  50.4402932 143.1045216  69.3943058  50.3058897 142.4961707
  69.7057181  50.7479761 143.9101934  56.2444296  48.0325092 129.3446817
  55.3375751  47.7358205 129.4209531  56.5220277  47.7354910 128.4781103
  57.8606361  42.5761982 135.4991058  57.0507090  42.2309067 135.8746304
  58.5490778  42.2669526 136.0878670  59.7896910  41.6540029 137.1215355
  60.3427948  42.0735482 137.7805378  60.0266996  40.7275777 137.1638311
  55.0143080  44.8912027 129.4858796  55.8762244  45.2166926 129.7454614
  55.1993424  44.1043523 128.9731862  63.1675717  43.7640554 136.6294019
  62.5874386  44.4225358 136.2472072  62.9011649  42.9417899 136.2181437
  61.6179283  43.1645612 138.8315340  62.1179061  43.2762146 138.0229658
  62.2614891  42.8606664 139.4716148  48.9447238  52.9052621 139.6405000
  48.9217927  53.0040308 138.6886883  49.2547875  53.7517772 139.9622166
  61.9500595  45.9240644 135.6850368  61.0626450  46.2090295 135.4670562
  62.3654584  45.7634408 134.8377644  65.3015131  45.9487165 139.4004707
  66.0775521  46.4383618 139.6729324  64.5763265  46.3745219 139.8576576
  67.7387689  46.6614785 140.4578647  68.3332180  46.4210520 139.7471956
  67.8114273  45.9421915 141.0852184  49.9584845  60.5048395 140.7721812
  49.8239313  59.7448796 140.2059810  49.5416907  61.2289295 140.3050601
  61.0943808  55.6885319 129.7798388  61.7979658  55.8935321 130.3956043
  60.3706457  56.2562081 130.0447471  61.9241618  51.4395180 135.9000658
  61.8676820  51.8963732 135.0608290  62.4769961  50.6785865 135.7223500
  65.7346424  47.2284912 136.7250777  65.4783359  46.8281548 137.5558985
  65.1099292  47.9428706 136.6000916  70.0458762  49.9680985 139.2322069
  69.4858320  50.0374175 140.0053631  69.4402266  49.7921970 138.5121565
  53.1153971  61.4017712 140.9840255  52.9986355  62.3463145 140.8818945
  52.2946417  61.0991274 141.3726054  63.0030506  56.1267848 131.8296848
  63.8376109  55.6949047 131.6474322  62.8414848  55.9549862 132.7573742
  62.6576398  52.6299961 133.1953187  62.6025201  52.4644233 132.2541631
  62.0322453  53.3375994 133.3515377  55.9672523  42.1308070 132.7738505
  55.9551193  43.0749910 132.9306776  56.8595945  41.9478216 132.4797966
  54.1408485  62.0545974 144.1996183  55.0435732  62.0869585 144.5162678
  53.9145855  61.1246425 144.2142519  55.8962087  60.8076961 140.8606262
  54.9457718  60.8078823 140.7470634  56.1994573  60.0609695 140.3442297
  59.7824643  38.7250847 137.0284442  59.0157038  38.1709334 137.1741124
  60.1935348  38.7972716 137.8898594  71.6314781  66.6437499 141.9252024
  72.2693191  66.5244247 141.2215364  71.5135623  67.5918343 141.9839976
  68.4404487  66.5964927 141.8613549  68.1022998  66.4805992 140.9734084
  69.3094255  66.1956092 141.8414555  64.2991303  68.4500404 137.8510440
  63.7356168  68.3590341 137.0826728  64.1843698  67.6300308 138.3312932
  68.9224270  67.7499779 147.8199755  68.9112911  67.3552577 146.9480258
  69.0844909  67.0165852 148.4133526  61.8455735  69.9451595 140.6894660
  62.6377026  69.6042420 140.2740960  62.0852385  70.0546570 141.6096814
  69.8790861  72.1171372 133.1624905  69.2278841  72.7025452 132.7758919
  70.6735224  72.6477566 133.2219942  63.8046488  69.2060509 133.5612039
  64.5777364  68.6589496 133.4224915  64.1571887  70.0704758 133.7726501
  65.6431531  70.5336891 146.7678939  65.3521397  71.4382522 146.6525605
  66.2788515  70.5753419 147.4823008  66.5687738  67.9113739 143.3580298
  67.1651310  67.6869762 142.6437261  66.6262709  67.1698485 143.9605746
  66.1412766  65.3653175 131.1930489  66.3938287  64.8434696 130.4313952
  65.2037325  65.2019320 131.2957173  71.1856049  64.3688953 139.0005232
  71.9719138  63.9508376 138.6495649  71.4494753  65.2735045 139.1686881
  71.3566126  69.8061803 133.6993889  70.7211959  69.8796430 134.4114794
  71.0263533  70.3955402 133.0212968  76.5864476  64.3064186 139.9038211
  77.3189648  63.7363403 140.1376040  75.8303832  63.9185787 140.3444716
  65.8609055  67.2681281 133.3954864  65.7445313  66.5926184 134.0635948
  65.9711315  66.7813655 132.5787017  68.2040596  66.7291428 137.1001553
  67.8398803  66.2022049 137.8114475  69.0607712  66.3389897 136.9268039
  74.1089897  58.0185760 144.3632819  73.7773221  58.8881171 144.1394034
  73.5135510  57.7022044 145.0426850  67.8446083  61.7581328 132.0962902
  68.0120485  62.6261564 132.4633373  67.6543252  61.9208609 131.1724191
  70.6021416  70.2198306 143.7628732  70.3022139  71.1223345 143.6544539
  70.2572476  69.9530490 144.6149885  64.0533898  66.6712103 139.7965437
  63.1284394  66.5388317 140.0043128  64.3018311  67.4506323 140.2935379
  74.0018560  62.7380847 141.4426170  73.0935437  62.6696255 141.1484930
  73.9506156  63.2152792 142.2707995  67.8235304  64.2138985 133.0809569
  67.7034929  64.6596036 133.9195049  67.1287892  64.5624303 132.5223107
  61.4142709  66.3145377 140.6309226  61.5435090  66.5679856 141.5448637
  60.7340160  66.9073085 140.3113881  65.5842196  76.9842627 136.7299700
  65.5066226  77.9350452 136.8088180  64.9803839  76.6388499 137.3874626
  68.0759426  64.1570492 149.3861067  67.2992760  64.7164412 149.3763931
  68.7149989  64.6427275 149.9075937  75.8680206  60.9397285 143.2204043
  75.2254587  61.2329818 142.5743838  75.3635135  60.8250205 144.0257240
  73.5220370  64.6860458 133.9089903  74.4338226  64.9187845 133.7337600
  73.0130017  65.2697502 133.3464981  66.3305798  66.9655946 148.9479034
  67.0720482  67.5040990 148.6713857  65.6242783  67.5922234 149.1050586
  71.8061138  69.1085086 147.5451195  72.2144494  68.6667497 146.8005828
  71.0838399  68.5337714 147.7985388  68.1592208  64.0457693 144.9184752
  69.0053403  64.4697106 145.0619401  68.0990845  63.3891317 145.6123315
  72.1289952  69.6686277 141.3003484  71.4998815  69.8331991 140.5979552
  71.7415614  70.0827886 142.0714448  76.0079184  70.6040715 138.6547848
  75.3230222  70.9839616 138.1044881  76.0923033  71.2136041 139.3879796
  71.3091653  61.7062061 146.5765926  71.0652585  62.4604122 146.0400202
  71.5851583  62.0847409 147.4113173  73.2630116  68.2500674 145.2543191
  73.4747011  68.8932433 144.5777573  73.2159864  67.4162990 144.7865122
  70.8656345  60.8618494 142.1579764  70.0040824  61.1599748 142.4496501
  70.8918779  61.0788893 141.2260796  67.6817914  69.4060685 138.5653569
  68.1456260  69.6848388 137.7758192  67.4174712  68.5044129 138.3826660
  64.5741995  68.9532166 141.5033333  65.1443352  69.3819435 140.8650817
  65.1650107  68.6714751 142.2017518  66.6186800  65.5283837 135.3743134
  67.3210844  65.9804881 135.8417061  66.2867429  64.8867656 136.0023028
  65.0667162  64.1195594 149.7494344  64.4365822  64.8011875 149.9829741
  64.9603250  64.0078675 148.8047482  60.3612134  63.7867390 140.6760268
  59.5711188  64.0424918 140.2000379  60.8523382  64.6015728 140.7812309
  74.3775944  71.1272629 143.4265549  75.1993387  70.7252816 143.1448230
  74.3738347  71.0240863 144.3781665  62.3126880  64.1511969 137.6343745
  61.5158043  64.2630663 138.1527240  62.0852472  64.4898621 136.7684635
  68.1432547  70.6756672 145.5826259  68.2076980  71.1377079 146.4184431
  67.4343471  70.0454037 145.7108569  58.6449837  64.0397880 143.1075259
  58.8957876  64.9244890 143.3732835  59.1809386  63.8602482 142.3350351
  82.4681937  67.4711377 139.7750520  81.7145645  66.9018776 139.6194525
  82.6029478  67.4374042 140.7221155  67.8580565  72.3424780 135.4505240
  67.7226240  73.1876315 135.8790087  68.3990377  72.5444057 134.6871173
  61.3109962  69.8600218 136.0233165  61.8234483  70.6543468 136.1738729
  61.9632675  69.1626508 135.9566766  63.1204847  72.9765974 138.1055918
  63.2971475  73.8983939 137.9176902  63.9161680  72.6624393 138.5350298
  67.2615865  59.8374239 149.7039851  68.0025579  60.4381392 149.6244314
  67.4933788  59.0951876 149.1457894  62.4057203  65.0230606 147.9818081
  62.2910719  64.1215863 148.2825180  61.5501721  65.2694303 147.6302898
  69.4849041  72.9648346 149.5805582  69.0412895  72.1784725 149.2626486
  70.1466255  73.1527497 148.9149472  64.2436162  74.4944148 144.1066260
  64.7943587  74.3661211 143.3343254  63.4047638  74.7939037 143.7561153
  71.5830279  73.2451146 147.6086983  71.5648755  74.0660027 147.1167252
  72.5050199  73.1205221 147.8337124  68.0403333  70.7595276 148.4510491
  68.5731670  69.9983564 148.2209799  67.5117415  70.4668927 149.1934646
  71.2073028  55.8655342 143.9804133  70.8637298  56.7556983 143.9043244
  71.5751991  55.6756999 143.1173718  59.2758879  68.1888872 136.7992735
  60.1134101  68.5985880 136.5826443  59.4537147  67.2488314 136.7692929
  71.1723311  65.8563953 132.4876568  70.6569935  66.6268557 132.7264956
  70.9000620  65.1829089 133.1109630  68.7570422  60.7013654 137.5461807
  67.9012018  60.3120504 137.3667445  69.1697374  60.7805614 136.6861592
  70.2869569  58.2359997 141.9453366  69.7834364  58.1990132 141.1321172
  70.5800176  59.1452739 142.0050023  66.5312455  58.3198727 140.9519548
  67.3965451  58.1241535 140.5925438  66.5989964  58.0909078 141.8788905
  76.1457585  68.6096307 134.4229742  75.3687028  68.2707467 133.9784904
  76.8249066  68.6148931 133.7484707  70.9609614  63.7291045 134.3136349
  70.6559750  64.0437194 135.1646493  71.9140056  63.8072465 134.3563682
  69.4056046  69.8881268 135.9629303  68.8777408  69.1534028 135.6502541
  68.9043549  70.6655944 135.7169272  74.3848892  68.0830289 141.0796350
  73.7272567  68.7729550 141.1676478  75.1889291  68.4726721 141.4230336
  64.1374774  60.5500934 138.3235915  64.7118526  60.3276116 137.5909108
  64.7245756  60.6189629 139.0764516  73.1954351  66.4374661 139.1300291
  73.7086233  67.0704653 139.6322001  73.8455575  65.8375857 138.7643651
  64.4644361  62.5805395 132.3431800  63.6281673  62.9180082 132.6641075
  64.3249130  62.4454375 131.4058937  66.4397441  57.4242183 137.0510984
  65.7861854  57.1091201 136.4267599  66.3977916  56.8017924 137.7770807
  67.5508646  67.7061478 128.9664276  66.6435708  67.4750732 129.1655425
  68.0479678  66.9099098 129.1538258  70.4576725  76.4158986 131.8860963
  69.7838424  76.7190682 132.4945920  70.8442547  77.2188066 131.5366420
  69.6735182  63.9124117 141.3758632  68.7557743  64.1339064 141.2180320
  70.0895325  63.9870427 140.5170339  70.4570230  65.3115533 136.5061312
  71.2042049  65.8236930 136.1968434  70.7261819  64.9899585 137.3665706
  68.7296880  67.8074073 133.4888266  67.8208099  67.5233106 133.5860736
  68.7591964  68.2273152 132.6291573  73.9616147  71.4180663 137.2579434
  73.5078474  70.5771573 137.3144625  73.3310114  72.0542061 137.5954214
  72.9049067  62.3472649 138.4880101  72.1671824  61.8350035 138.8190344
  73.1575840  61.9073030 137.6763378  72.4049086  73.2557159 138.1929252
  72.6972061  73.8162217 137.4741618  72.9147707  73.5485720 138.9482411
  73.0060694  55.1248901 139.0821871  73.3119571  54.2646264 138.7947786
  73.7313299  55.7166521 138.8820865  59.2985050  65.5279587 137.4703469
  59.1009450  64.9348948 136.7454535  58.7431714  65.2231798 138.1879407
  67.2781774  65.4202694 139.5898062  67.3330384  64.4676530 139.5140538
  66.4672976  65.5762133 140.0739360  68.4272968  69.3482817 130.8276345
  67.9892397  68.6318676 130.3681982  69.1683408  69.5758932 130.2661436
  65.2174134  64.0379754 137.3488441  64.4041999  64.3373924 137.7553633
  65.7133128  63.6435442 138.0662923  67.3682712  74.0337511 139.2822705
  67.3258890  74.2598357 138.3531237  68.2845410  73.8000885 139.4308507
  70.8148345  64.5021578 146.1803335  71.1697733  64.7293051 147.0397800
  71.4620477  64.8339955 145.5580590  76.5446082  67.6240014 136.8852664
  76.4063981  67.8141610 135.9573853  76.1882301  68.3859397 137.3420715
  64.7088208  61.6098109 142.9649676  65.3487588  61.4686868 142.2672639
  63.8765739  61.3232623 142.5888278  76.5715462  69.6916541 141.8963935
  77.0051969  69.5991830 142.7446989  77.2847043  69.6674041 141.2583951
  65.4848512  70.9100540 139.0784668  66.2789111  70.4150860 138.8767243
  64.7740205  70.3818403 138.7152374  70.3043357  73.2918635 143.4297036
  70.3580379  73.8609571 144.1974752  69.4358138  73.4620520 143.0651073
  61.7931276  65.0543621 135.1544421  60.8628864  64.9928077 135.3714383
  61.8888748  64.5319574 134.3581062  61.7116825  61.5798434 137.7422662
  61.9723642  62.4943767 137.6331823  62.5333997  61.1122877 137.8919275
  63.1841750  62.9936191 144.9121487  63.8564804  62.7853553 144.2634136
  62.3571537  62.7958277 144.4726719  77.4331011  69.7340242 144.4296821
  77.6266902  70.6386052 144.6756095  77.3331630  69.2747661 145.2635406
  69.0867322  59.6198132 146.9287148  68.4395237  60.3188082 146.8351624
  69.8568338  60.0534276 147.2963396  72.4946120  69.8846984 150.0037701
  72.3431627  69.6557536 149.0867785  72.4850800  70.8417586 150.0169046
  69.2631457  67.4578897 144.9883968  70.1923517  67.6090057 144.8152935
  68.8422487  67.5462918 144.1332614  68.0619788  71.4829562 142.7582505
  67.9230874  71.1148346 143.6308443  67.2734385  71.9977201 142.5866463
  68.6567940  76.5838658 134.1008042  68.8319696  76.1126701 134.9153664
  67.9700728  77.2104424 134.3289302  69.6125004  70.8611164 140.1471343
  69.2774836  70.8211934 141.0428993  69.1128949  70.1955880 139.6741753
  63.5869247  66.2678794 145.6723924  63.4489045  65.5359033 146.2735463
  64.4974171  66.1787694 145.3908112  72.5484195  68.2067199 130.4208403
  71.9313366  67.4814027 130.3241455  72.0800684  68.9676559 130.0775477
  66.2151548  65.9798754 145.1607604  66.9251167  65.3391946 145.1194222
  66.1720856  66.2311648 146.0833785  74.2038327  72.9166107 148.0814183
  74.1450873  72.2325327 147.4144766  74.6057845  73.6585097 147.6294809
  64.9280482  62.9663971 146.9803243  64.3917839  62.5154710 147.6324840
  64.3397191  63.1009880 146.2373708  63.2229026  79.7328021 140.8747902
  63.4625624  80.3646545 141.5526920  62.3798222  79.3816061 141.1613261
  64.3382741  62.4252623 129.5429707  63.4612207  62.3041424 129.1791954
  64.8140494  61.6338701 129.2908596  74.2055734  70.8805691 146.3128163
  73.3182513  70.5431613 146.4354562  74.7754285  70.1488722 146.5496928
  55.8584881  67.2129783 139.6371214  56.5455921  66.8991513 139.0492229
  55.7033010  68.1171147 139.3638465  60.6619603  62.1019979 144.0656238
  60.5777792  61.4945649 143.3306648  59.8402310  62.5928997 144.0665734
  67.7356887  75.5407143 143.2789406  67.6627059  76.3462115 143.7908710
  67.2934281  75.7399109 142.4537427  67.5246667  74.7778913 136.7892227
  66.7414189  75.3200593 136.8830452  68.2239412  75.2952893 137.1886469
  70.8343317  60.5873543 139.4326433  71.3312017  59.8343505 139.1127503
  70.0630299  60.6237859 138.8669642  78.6873075  66.2913908 141.0744724
  78.6762951  67.1738624 140.7038657  77.8190454  65.9385459 140.8799261
  70.1955571  75.4393977 145.4347565  70.9083543  76.0741442 145.3623466
  69.7045600  75.5357843 144.6187566  71.9173098  69.3445230 137.0064856
  70.9829377  69.4646692 136.8369561  72.0949766  68.4417697 136.7424866
  67.4178286  62.7290926 139.1598117  67.0476073  62.1761966 139.8479023
  67.9137378  62.1249059 138.6073117  75.3045649  65.1862549 137.5414890
  75.7706101  66.0190541 137.4675193  75.7553150  64.7207531 138.2460149
  65.2467485  73.1888421 146.2553135  65.9476944  73.8224904 146.4082530
  64.7762600  73.5303152 145.4948775  73.3721880  71.5306371 134.5401042
  73.6481724  71.4162965 135.4494916  72.5026379  71.1323855 134.5013215
  73.2762312  57.5543136 141.5805792  72.3625392  57.7847363 141.7487999
  73.7055413  57.6381580 142.4319824  73.0468770  65.7433028 144.0805686
  72.3940221  65.9908936 143.4258138  73.4249150  64.9297166 143.7468163
  70.0075944  75.7792721 138.1833856  70.1898339  74.9614377 138.6461608
  70.8308930  75.9960414 137.7458746  70.3418110  74.7060906 135.4448904
  70.8705876  74.1953361 134.8319067  70.6046329  74.3903437 136.3094438
  69.0956344  66.4852839 150.5671723  68.4196981  66.3846969 151.2374098
  69.9183977  66.3292053 151.0307720  60.8435203  72.7224776 143.1884238
  61.4288639  71.9768464 143.3212142  60.6460041  73.0328732 144.0720902
  63.6973858  75.7576023 138.2046680  63.0284233  76.2422151 137.7210720
  63.5586728  76.0045244 139.1190059  55.4352857  65.2930376 141.9088681
  55.4736957  64.7593967 142.7025799  54.9293150  64.7665581 141.2899658
  67.8379126  77.7919767 144.8029339  68.3897434  77.9551388 145.5678424
  68.1785320  78.3824205 144.1309364  62.8143620  60.1394916 145.4051223
  62.8784946  61.0009747 144.9928621  62.7510740  59.5268918 144.6723582
  62.2895892  62.2118049 149.0524258  62.9167931  61.8295126 149.6661782
  61.4323811  61.9932251 149.4179950  72.6890001  72.6181024 150.6577993
  73.2329905  73.2310982 150.1632948  72.1076846  73.1760603 151.1745006
  59.0661435  64.0194478 134.9842613  59.3614876  63.1105157 134.9309666
  58.1649471  63.9982218 134.6623615  70.9747514  75.7401742 141.7893021
  70.8498653  74.9391482 141.2803966  71.6326605  76.2347936 141.3006991
  62.5955682  62.0950475 140.9670161  61.8742268  62.7086442 140.8277634
  63.3848938  62.6308240 140.8886807  73.0382422  73.5410762 143.4172571
  72.0912758  73.4216113 143.3450898  73.3865195  72.6533260 143.4998832
  65.3981995  59.4304901 147.2410813  65.9216397  59.6767198 148.0037122
  65.1794329  60.2624936 146.8213950  60.7949276  61.7008576 135.1081938
  60.4661983  60.8205955 134.9257044  61.1488647  61.6456244 135.9958327
  70.0428855  73.3363479 139.6176923  69.8953818  72.4080186 139.7984493
  70.8682349  73.3583569 139.1333999  63.9091100  61.9881546 135.4757415
  64.2487172  62.5167467 134.7536024  64.3563220  62.3261952 136.2515982
  73.6462977  74.1592037 140.7041796  74.5709525  73.9534899 140.5666247
  73.4778281  73.9108438 141.6131138  66.6034540  60.3718596 144.9260483
  66.2631361  59.5726409 145.3281163  65.8973547  60.6720307 144.3537317
  67.2551012  57.4567909 143.3787806  68.0777082  56.9828387 143.2566697
  67.4989076  58.2358392 143.8786493  65.8959247  60.4856167 133.6750708
  66.6167609  60.8637420 133.1714425  65.2724551  61.2045044 133.7785686
  70.0390370  61.1901316 134.6109041  70.2553984  62.0725954 134.3097869
  69.5584437  60.7987530 133.8814682  64.7789591  64.1487029 141.1879785
  64.6334172  64.4627332 142.0804067  64.3014795  64.7671930 140.6350684
  66.6385974  61.1389577 141.2360675  66.6247543  60.2430671 140.8992973
  67.3558402  61.1460241 141.8698961  68.4912105  61.5726918 143.2813802
  68.2329882  62.4943988 143.2798133  67.9597145  61.1757352 143.9714266
  73.4358293  74.6777705 136.0603887  73.6095171  74.1124127 135.3077740
  73.9287185  75.4778600 135.8783377  59.2535253  66.6892374 144.1267446
  58.7088721  67.4652182 144.2587721  60.1314603  67.0363178 143.9686568
  66.0422870  60.0203958 136.5048245  66.1638781  59.0920604 136.7039132
  65.7524912  60.0342644 135.5926560  68.9114060  57.7058868 139.6414965
  68.9335757  57.7698201 138.6866944  69.3282119  56.8663377 139.8355471
  79.2897685  67.4414128 137.6794187  79.7328831  66.6921453 137.2813310
  78.4124195  67.4324264 137.2967919  74.4233466  73.9944469 133.1600786
  75.1184371  74.6151162 133.3788100  74.7656616  73.1439820 133.4353164
  60.0401275  65.8162270 147.0197603  59.2983011  65.9644905 147.6062234
  59.7194019  66.0770536 146.1564353  76.3224889  71.4444175 134.6888117
  76.8476213  71.7831447 133.9637437  76.2347242  70.5091190 134.5051251
  67.9844938  75.3578248 146.8177993  68.2932064  75.1127395 147.6900693
  68.7820420  75.5624887 146.3296863  68.0065550  77.5116158 139.0483370
  67.5670540  77.0192537 139.7416226  68.7573667  76.9689126 138.8075445
  60.4857889  73.7027699 139.0507998  61.3115909  73.4031471 138.6706641
  60.1351941  72.9335321 139.4997786  65.4539422  73.0554167 141.1205671
  64.8319431  72.3924872 140.8207899  66.1244289  73.0815299 140.4379319
  58.6866494  71.6214025 140.0096931  57.8498402  71.1936200 139.8280933
  58.6590139  71.8146469 140.9467723  65.5263949  61.5335955 150.7138177
  65.5752105  62.4098078 150.3315947  66.0686464  60.9913348 150.1409821
  76.0118795  72.0777078 149.9939314  75.2214339  72.0601217 149.4543814
  75.7752150  72.6165372 150.7488351  76.1316670  68.9269545 147.3072043
  76.1814675  68.7619552 148.2487566  76.0230593  68.0596804 146.9169924
  65.0152929  71.6058090 134.5964132  65.1641049  72.2893555 133.9430805
  65.8219372  71.5863180 135.1113588  73.4220433  64.9100473 148.6231350
  74.3230295  64.7706938 148.3315348  73.4968407  65.0754928 149.5629527
  67.7563238  62.2867327 147.4684536  66.8866547  62.5800893 147.1967125
  67.9922718  62.8707772 148.1891800  77.6334867  71.3466486 147.5514065
  77.3419675  71.7096467 148.3877526  77.0206998  70.6333494 147.3727397
  78.8330549  68.9119366 140.0716635  79.6677441  69.3509170 140.2354195
  78.9689678  68.4358019 139.2524881  75.8822055  66.4699101 146.0194123
  76.3576177  66.6626747 145.2112974  74.9587621  66.5258287 145.7737506
  62.7705562  67.6323268 135.6025201  62.5251604  66.7285598 135.8005411
  62.9401476  67.6340418 134.6604679  70.4602272  58.5046944 144.9849956
  70.9784216  59.2407971 144.6596445  70.1057404  58.8110938 145.8196716
  62.0401209  63.3651626 133.1011362  61.3470454  63.4395981 132.4451398
  61.7952961  62.6011969 133.6232879  70.7114866  54.9247227 140.5050853
  70.9916620  54.2570416 141.1311280  71.4965473  55.1176322 139.9925517
  68.5148334  74.1006221 132.0675879  67.9422301  74.7196408 131.6146351
  69.0881128  74.6505582 132.6015801  74.5823724  63.3464861 144.2522428
  75.5341147  63.4462959 144.2734652  74.4127175  62.5543129 144.7620513
  72.6038104  60.4320444 144.4381829  72.0088036  60.7125457 143.7428318
  72.3187800  60.9214345 145.2098570  71.7345594  74.3843371 133.1984462
  72.6676267  74.3188933 133.4017337  71.6468807  75.2199638 132.7398994
  74.3633611  73.7009241 130.1588409  74.2847242  73.3669105 131.0524167
  75.1843278  74.1931009 130.1579882  77.0611802  66.5670981 143.3664728
  77.0288122  65.6286981 143.5524412  77.6712426  66.6455017 142.6330553
  68.8995133  65.4367034 129.4091932  69.8454238  65.3073242 129.4780350
  68.5209378  64.6981695 129.8861360  77.2106290  63.3582024 143.4123011
  76.6945339  62.5740481 143.2252940  78.0946239  63.0300741 143.5769530
  74.8717017  57.1023040 139.3718824  74.6741839  56.7938128 140.2562156
  75.4816723  57.8284678 139.5016754  82.8788352  67.6286987 142.5070765
  83.6091740  67.3672276 143.0678468  82.2695297  66.8915709 142.5472833
  80.9603649  65.7694850 143.1045216  80.2336813  65.6350815 142.4961707
  80.5450936  66.0771679 143.9101934  68.7833825  69.4884780 150.8692589
  69.7036835  69.6663379 151.0632635  68.7483408  68.5440825 150.7172288
  67.0838050  63.3617010 129.3446817  66.1769505  63.0650123 129.4209531
  67.3614031  63.0646828 128.4781103  58.0015990  64.6823373 139.7945863
  57.6818775  63.8288682 139.5020237  57.4549419  64.8971951 140.5503831
  61.7795898  67.3985814 143.5115370  61.9981908  68.3302922 143.5303404
  62.1921672  67.0393789 144.2970174  68.7000116  57.9053900 135.4991058
  67.8900844  57.5600985 135.8746304  69.3884533  57.5961443 136.0878670
  70.6290664  56.9831946 137.1215355  71.1821703  57.4027400 137.7805378
  70.8660750  56.0567695 137.1638311  66.6523763  62.9719020 152.9018119
  66.5520490  63.9213377 152.8330210  66.4345305  62.6437259 152.0294189
  65.8536835  60.2203945 129.4858796  66.7155999  60.5458843 129.7454614
  66.0387179  59.4335441 128.9731862  57.8704250  68.3026285 141.7638985
  57.1767722  67.8880238 141.2508939  58.6177241  68.3446821 141.1672404
  74.0069471  59.0932472 136.6294019  73.4268140  59.7517276 136.2472072
  73.7405404  58.2709816 136.2181437  72.4573037  58.4937529 138.8315340
  72.9572816  58.6054064 138.0229658  73.1008645  58.1898582 139.4716148
  66.5155033  66.4016159 151.7183181  66.0322115  67.2016519 151.9247070
  66.6015972  66.4124104 150.7650625  59.7840993  68.2344539 139.6405000
  59.7611681  68.3332226 138.6886883  60.0941629  69.0809689 139.9622166
  62.4428371  70.2920694 143.7551614  63.3971624  70.2604636 143.6881546
  62.2440894  69.8311317 144.5701840  63.0327753  68.8621810 146.3222412
  63.8520642  69.3565888 146.3457249  63.3064561  67.9453778 146.2939980
  72.7894349  61.2532562 135.6850368  71.9020204  61.5382213 135.4670562
  73.2048338  61.0926325 134.8377644  76.1408885  61.2779083 139.4004707
  76.9169275  61.7675535 139.6729324  75.4157019  61.7037137 139.8576576
  78.5781444  61.9906702 140.4578647  79.1725935  61.7502438 139.7471956
  78.6508028  61.2713833 141.0852184  60.7978600  75.8340313 140.7721812
  60.6633068  75.0740714 140.2059810  60.3810662  76.5581213 140.3050601
  71.9337563  71.0177237 129.7798388  72.6373413  71.2227239 130.3956043
  71.2100211  71.5853999 130.0447471  72.7635373  66.7687098 135.9000658
  72.7070574  67.2255649 135.0608290  73.3163715  66.0077783 135.7223500
  76.5740179  62.5576830 136.7250777  76.3177113  62.1573465 137.5558985
  75.9493047  63.2720624 136.6000916  80.8852517  65.2972903 139.2322069
  80.3252075  65.3666092 140.0053631  80.2796020  65.1213888 138.5121565
  63.9547725  76.7309630 140.9840255  63.8380110  77.6755063 140.8818945
  63.1340172  76.4283192 141.3726054  73.8424260  71.4559766 131.8296848
  74.6769864  71.0240964 131.6474322  73.6808603  71.2841780 132.7573742
  73.4970152  67.9591879 133.1953187  73.4418956  67.7936151 132.2541631
  72.8716207  68.6667912 133.3515377  58.2862667  63.1959944 147.0214609
  58.9321531  62.6858898 147.5101834  58.0779818  63.9328625 147.5958034
  70.8116059  70.2640791 152.5206750  71.6807219  70.4381443 152.1593385
  70.3322811  71.0835208 152.3982479  66.8066278  57.4599988 132.7738505
  66.7944947  58.4041828 132.9306776  67.6989700  57.2770134 132.4797966
  64.9802240  77.3837892 144.1996183  65.8829486  77.4161502 144.5162678
  64.7539610  76.4538343 144.2142519  66.7355842  76.1368879 140.8606262
  65.7851473  76.1370740 140.7470634  67.0388328  75.3901613 140.3442297
  70.6218397  54.0542765 137.0284442  69.8550793  53.5001252 137.1741124
  71.0329102  54.1264634 137.8898594  82.4708535  81.9729417 141.9252024
  83.1086945  81.8536164 141.2215364  82.3529378  82.9210261 141.9839976
  79.2798241  81.9256845 141.8613549  78.9416753  81.8097910 140.9734084
  80.1488010  81.5248010 141.8414555  75.1385057  83.7792321 137.8510440
  74.5749922  83.6882258 137.0826728  75.0237452  82.9592226 138.3312932
  79.7618024  83.0791697 147.8199755  79.7506665  82.6844495 146.9480258
  79.9238664  82.3457769 148.4133526  72.6849489  85.2743513 140.6894660
  73.4770781  84.9334338 140.2740960  72.9246139  85.3838488 141.6096814
  80.7184616  87.4463289 133.1624905  80.0672596  88.0317370 132.7758919
  81.5128979  87.9769484 133.2219942  74.6440243  84.5352426 133.5612039
  75.4171119  83.9881413 133.4224915  74.9965642  85.3996676 133.7726501
  76.4825286  85.8628809 146.7678939  76.1915151  86.7674439 146.6525605
  77.1182270  85.9045336 147.4823008  77.4081492  83.2405657 143.3580298
  78.0045065  83.0161680 142.6437261  77.4656464  82.4990403 143.9605746
  76.9806521  80.6945092 131.1930489  77.2332041  80.1726614 130.4313952
  76.0431080  80.5311238 131.2957173  82.0249804  79.6980871 139.0005232
  82.8112893  79.2800294 138.6495649  82.2888508  80.6026963 139.1686881
  82.1959881  85.1353721 133.6993889  81.5605714  85.2088348 134.4114794
  81.8657287  85.7247320 133.0212968  87.4258231  79.6356104 139.9038211
  88.1583403  79.0655321 140.1376040  86.6697586  79.2477704 140.3444716
  76.7002809  82.5973198 133.3954864  76.5839068  81.9218102 134.0635948
  76.8105069  82.1105572 132.5787017  79.0434350  82.0583346 137.1001553
  78.6792558  81.5313966 137.8114475  79.9001466  81.6681815 136.9268039
  84.9483651  73.3477678 144.3632819  84.6166976  74.2173089 144.1394034
  84.3529264  73.0313962 145.0426850  78.6839837  77.0873245 132.0962902
  78.8514240  77.9553482 132.4633373  78.4937006  77.2500527 131.1724191
  81.4415171  85.5490224 143.7628732  81.1415894  86.4515263 143.6544539
  81.0966230  85.2822407 144.6149885  74.8927652  82.0004021 139.7965437
  73.9678149  81.8680235 140.0043128  75.1412065  82.7798240 140.2935379
  84.8412314  78.0672764 141.4426170  83.9329192  77.9988173 141.1484930
  84.7899910  78.5444709 142.2707995  78.6629058  79.5430903 133.0809569
  78.5428683  79.9887953 133.9195049  77.9681647  79.8916220 132.5223107
  72.2536463  81.6437295 140.6309226  72.3828844  81.8971773 141.5448637
  71.5733914  82.2365003 140.3113881  76.4235950  92.3134544 136.7299700
  76.3459980  93.2642370 136.8088180  75.8197594  91.9680417 137.3874626
  78.9153180  79.4862410 149.3861067  78.1386514  80.0456330 149.3763931
  79.5543743  79.9719193 149.9075937  86.7073961  76.2689203 143.2204043
  86.0648341  76.5621736 142.5743838  86.2028889  76.1542123 144.0257240
  84.3614124  80.0152376 133.9089903  85.2731981  80.2479763 133.7337600
  83.8523772  80.5989420 133.3464981  77.1699552  82.2947863 148.9479034
  77.9114237  82.8332907 148.6713857  76.4636538  82.9214152 149.1050586
  82.6454892  84.4377004 147.5451195  83.0538248  83.9959414 146.8005828
  81.9232154  83.8629631 147.7985388  78.9985962  79.3749610 144.9184752
  79.8447157  79.7989024 145.0619401  78.9384600  78.7183235 145.6123315
  82.9683707  84.9978194 141.3003484  82.3392569  85.1623908 140.5979552
  82.5809369  85.4119804 142.0714448  86.8472939  85.9332632 138.6547848
  86.1623977  86.3131534 138.1044881  86.9316788  86.5427959 139.3879796
  82.1485407  77.0353979 146.5765926  81.9046339  77.7896039 146.0400202
  82.4245338  77.4139326 147.4113173  84.1023870  83.5792591 145.2543191
  84.3140765  84.2224351 144.5777573  84.0553618  82.7454908 144.7865122
  81.7050099  76.1910412 142.1579764  80.8434578  76.4891665 142.4496501
  81.7312534  76.4080811 141.2260796  78.5211669  84.7352602 138.5653569
  78.9850014  85.0140305 137.7758192  78.2568467  83.8336047 138.3826660
  75.4135750  84.2824084 141.5033333  75.9837107  84.7111352 140.8650817
  76.0043862  84.0006669 142.2017518  77.4580555  80.8575755 135.3743134
  78.1604598  81.3096798 135.8417061  77.1261183  80.2159574 136.0023028
  75.9060916  79.4487511 149.7494344  75.2759577  80.1303792 149.9829741
  75.7997004  79.3370593 148.8047482  71.2005889  79.1159307 140.6760268
  70.4104943  79.3716836 140.2000379  71.6917136  79.9307645 140.7812309
  85.2169698  86.4564547 143.4265549  86.0387142  86.0544734 143.1448230
  85.2132101  86.3532781 144.3781665  73.1520634  79.4803887 137.6343745
  72.3551797  79.5922581 138.1527240  72.9246226  79.8190539 136.7684635
  78.9826302  86.0048590 145.5826259  79.0470734  86.4668997 146.4184431
  78.2737226  85.3745955 145.7108569  69.4843592  79.3689798 143.1075259
  69.7351630  80.2536808 143.3732835  70.0203140  79.1894399 142.3350351
  93.3075691  82.8003295 139.7750520  92.5539400  82.2310693 139.6194525
  93.4423232  82.7665960 140.7221155  78.6974319  87.6716697 135.4505240
  78.5619994  88.5168233 135.8790087  79.2384132  87.8735975 134.6871173
  75.1841659  73.7508277 152.1119595  74.7908605  73.1974476 152.7867239
  76.0007799  74.0618856 152.5026112  72.1503717  85.1892135 136.0233165
  72.6628237  85.9835386 136.1738729  72.8026430  84.4918426 135.9566766
  73.9598601  88.3057892 138.1055918  74.1365230  89.2275856 137.9176902
  74.7555435  87.9916311 138.5350298  78.1009620  75.1666156 149.7039851
  78.8419333  75.7673309 149.6244314  78.3327543  74.4243794 149.1457894
  73.2450958  80.3522524 147.9818081  73.1304473  79.4507781 148.2825180
  72.3895476  80.5986220 147.6302898  80.3242796  88.2940264 149.5805582
  79.8806650  87.5076642 149.2626486  80.9860009  88.4819414 148.9149472
  75.0829917  89.8236066 144.1066260  75.6337342  89.6953129 143.3343254
  74.2441393  90.1230955 143.7561153  82.4224034  88.5743064 147.6086983
  82.4042509  89.3951945 147.1167252  83.3443954  88.4497139 147.8337124
  78.8797088  86.0887193 148.4510491  79.4125425  85.3275482 148.2209799
  78.3511169  85.7960845 149.1934646  82.0466783  71.1947259 143.9804133
  81.7031052  72.0848901 143.9043244  82.4145745  71.0048917 143.1173718
  70.1152633  83.5180790 136.7992735  70.9527855  83.9277798 136.5826443
  70.2930901  82.5780232 136.7692929  82.0117066  81.1855870 132.4876568
  81.4963689  81.9560475 132.7264956  81.7394374  80.5121007 133.1109630
  79.5964177  76.0305571 137.5461807  78.7405773  75.6412422 137.3667445
  80.0091128  76.1097532 136.6861592  81.1263323  73.5651914 141.9453366
  80.6228119  73.5282050 141.1321172  81.4193930  74.4744657 142.0050023
  77.3706209  73.6490644 140.9519548  78.2359206  73.4533453 140.5925438
  77.4383718  73.4200996 141.8788905  86.9851340  83.9388225 134.4229742
  86.2080782  83.5999385 133.9784904  87.6642821  83.9440848 133.7484707
  81.8003369  79.0582963 134.3136349  81.4953504  79.3729112 135.1646493
  82.7533811  79.1364382 134.3563682  80.2449801  85.2173186 135.9629303
  79.7171162  84.4825945 135.6502541  79.7437303  85.9947862 135.7169272
  85.2242647  83.4122206 141.0796350  84.5666321  84.1021468 141.1676478
  86.0283046  83.8018638 141.4230336  74.9768528  75.8792852 138.3235915
  75.5512280  75.6568034 137.5909108  75.5639511  75.9481547 139.0764516
  84.0348105  81.7666579 139.1300291  84.5479987  82.3996571 139.6322001
  84.6849329  81.1667775 138.7643651  75.3038115  77.9097313 132.3431800
  74.4675428  78.2472000 132.6641075  75.1642885  77.7746293 131.4058937
  77.2791196  72.7534101 137.0510984  76.6255608  72.4383118 136.4267599
  77.2371670  72.1309841 137.7770807  78.3902401  83.0353396 128.9664276
  77.4829463  82.8042650 129.1655425  78.8873433  82.2391015 129.1538258
  81.2970480  91.7450903 131.8860963  80.6232178  92.0482600 132.4945920
  81.6836302  92.5479984 131.5366420  80.5128936  79.2416035 141.3758632
  79.5951498  79.4630982 141.2180320  80.9289080  79.3162345 140.5170339
  81.2963984  80.6407450 136.5061312  82.0435803  81.1528847 136.1968434
  81.5655574  80.3191503 137.3665706  79.5690634  83.1365991 133.4888266
  78.6601853  82.8525024 133.5860736  79.5985718  83.5565070 132.6291573
  84.8009902  86.7472580 137.2579434  84.3472229  85.9063490 137.3144625
  84.1703868  87.3833979 137.5954214  83.7442821  77.6764566 138.4880101
  83.0065578  77.1641953 138.8190344  83.9969595  77.2364948 137.6763378
  83.2442841  88.5849077 138.1929252  83.5365815  89.1454134 137.4741618
  83.7541461  88.8777638 138.9482411  83.8454449  70.4540818 139.0821871
  84.1513325  69.5938182 138.7947786  84.5707053  71.0458439 138.8820865
  70.1378805  80.8571505 137.4703469  69.9403204  80.2640866 136.7454535
  69.5825469  80.5523715 138.1879407  78.1175528  80.7494612 139.5898062
  78.1724138  79.7968448 139.5140538  77.3066730  80.9054051 140.0739360
  79.2666722  84.6774735 130.8276345  78.8286152  83.9610594 130.3681982
  80.0077163  84.9050849 130.2661436  76.0567888  79.3671671 137.3488441
  75.2435754  79.6665842 137.7553633  76.5526882  78.9727360 138.0662923
  78.2076466  89.3629428 139.2822705  78.1652645  89.5890275 138.3531237
  79.1239165  89.1292803 139.4308507  81.6542100  79.8313496 146.1803335
  82.0091488  80.0584969 147.0397800  82.3014231  80.1631873 145.5580590
  87.3839837  82.9531932 136.8852664  87.2457735  83.1433528 135.9573853
  87.0276056  83.7151314 137.3420715  75.5481963  76.9390027 142.9649676
  76.1881342  76.7978786 142.2672639  74.7159493  76.6524540 142.5888278
  87.4109216  85.0208459 141.8963935  87.8445723  84.9283748 142.7446989
  88.1240797  84.9965959 141.2583951  76.3242267  86.2392457 139.0784668
  77.1182865  85.7442777 138.8767243  75.6133959  85.7110320 138.7152374
  81.1437111  88.6210553 143.4297036  81.1974134  89.1901489 144.1974752
  80.2751893  88.7912438 143.0651073  72.6325030  80.3835539 135.1544421
  71.7022618  80.3219994 135.3714383  72.7282502  79.8611492 134.3581062
  72.5510579  76.9090352 137.7422662  72.8117397  77.8235685 137.6331823
  73.3727752  76.4414794 137.8919275  74.0235505  78.3228109 144.9121487
  74.6958558  78.1145471 144.2634136  73.1965291  78.1250195 144.4726719
  88.2724766  85.0632159 144.4296821  88.4660656  85.9677970 144.6756095
  88.1725384  84.6039578 145.2635406  79.9261077  74.9490050 146.9287148
  79.2788992  75.6480000 146.8351624  80.6962092  75.3826194 147.2963396
  83.3339875  85.2138902 150.0037701  83.1825381  84.9849454 149.0867785
  83.3244554  86.1709503 150.0169046  80.1025211  82.7870815 144.9883968
  81.0317271  82.9381974 144.8152935  79.6816241  82.8754836 144.1332614
  78.9013543  86.8121479 142.7582505  78.7624629  86.4440264 143.6308443
  78.1128139  87.3269119 142.5866463  79.4961695  91.9130576 134.1008042
  79.6713451  91.4418619 134.9153664  78.8094483  92.5396342 134.3289302
  80.4518758  86.1903082 140.1471343  80.1168591  86.1503852 141.0428993
  79.9522704  85.5247798 139.6741753  74.4263002  81.5970712 145.6723924
  74.2882800  80.8650951 146.2735463  75.3367925  81.5079612 145.3908112
  83.3877950  83.5359116 130.4208403  82.7707120  82.8105944 130.3241455
  82.9194438  84.2968477 130.0775477  77.0545303  81.3090671 145.1607604
  77.7644921  80.6683863 145.1194222  77.0114611  81.5603566 146.0833785
  85.0432081  88.2458025 148.0814183  84.9844627  87.5617245 147.4144766
  85.4451600  88.9877015 147.6294809  75.7674237  78.2955889 146.9803243
  75.2311594  77.8446628 147.6324840  75.1790945  78.4301798 146.2373708
  74.0622780  95.0619938 140.8747902  74.3019378  95.6938463 141.5526920
  73.2191977  94.7107978 141.1613261  75.1776496  77.7544541 129.5429707
  74.3005962  77.6333341 129.1791954  75.6534249  76.9630619 129.2908596
  85.0449489  86.2097609 146.3128163  84.1576267  85.8723530 146.4354562
  85.6148040  85.4780640 146.5496928  66.6978636  82.5421700 139.6371214
  67.3849676  82.2283430 139.0492229  66.5426764  83.4463065 139.3638465
  71.5013358  77.4311897 144.0656238  71.4171547  76.8237566 143.3306648
  70.6796064  77.9220915 144.0665734  78.5750642  90.8699061 143.2789406
  78.5020813  91.6754032 143.7908710  78.1328035  91.0691027 142.4537427
  78.3640422  90.1070831 136.7892227  77.5807943  90.6492511 136.8830452
  79.0633167  90.6244811 137.1886469  81.6737072  75.9165460 139.4326433
  82.1705771  75.1635423 139.1127503  80.9024053  75.9529777 138.8669642
  89.5266829  81.6205826 141.0744724  89.5156705  82.5030541 140.7038657
  88.6584209  81.2677377 140.8799261  81.0349325  90.7685895 145.4347565
  81.7477298  91.4033360 145.3623466  80.5439354  90.8649761 144.6187566
  82.7566852  84.6737148 137.0064856  81.8223131  84.7938610 136.8369561
  82.9343521  83.7709614 136.7424866  78.2572040  78.0582843 139.1598117
  77.8869828  77.5053884 139.8479023  78.7531133  77.4540977 138.6073117
  86.1439404  80.5154467 137.5414890  86.6099856  81.3482458 137.4675193
  86.5946904  80.0499448 138.2460149  76.0861239  88.5180338 146.2553135
  76.7870699  89.1516821 146.4082530  75.6156354  88.8595070 145.4948775
  84.2115635  86.8598288 134.5401042  84.4875479  86.7454883 135.4494916
  83.3420134  86.4615773 134.5013215  84.1156066  72.8835054 141.5805792
  83.2019146  73.1139281 141.7487999  84.5449168  72.9673498 142.4319824
  83.8862525  81.0724946 144.0805686  83.2333975  81.3200853 143.4258138
  84.2642905  80.2589084 143.7468163  80.8469699  91.1084639 138.1833856
  81.0292093  90.2906295 138.6461608  81.6702685  91.3252331 137.7458746
  81.1811864  90.0352824 135.4448904  81.7099631  89.5245279 134.8319067
  81.4440084  89.7195354 136.3094438  79.9350098  81.8144757 150.5671723
  79.2590735  81.7138886 151.2374098  80.7577732  81.6583971 151.0307720
  71.6828957  88.0516693 143.1884238  72.2682394  87.3060381 143.3212142
  71.4853796  88.3620650 144.0720902  74.5367612  91.0867941 138.2046680
  73.8677988  91.5714068 137.7210720  74.3980482  91.3337161 139.1190059
  66.2746612  80.6222294 141.9088681  66.3130711  80.0885884 142.7025799
  65.7686905  80.0957499 141.2899658  78.6772881  93.1211684 144.8029339
  79.2291189  93.2843306 145.5678424  79.0179074  93.7116122 144.1309364
  73.6537374  75.4686834 145.4051223  73.7178701  76.3301665 144.9928621
  73.5904494  74.8560836 144.6723582  73.1289647  77.5409967 149.0524258
  73.7561685  77.1587044 149.6661782  72.2717565  77.3224169 149.4179950
  83.5283755  87.9472942 150.6577993  84.0723659  88.5602900 150.1632948
  82.9470600  88.5052520 151.1745006  69.9055189  79.3486396 134.9842613
  70.2008630  78.4397074 134.9309666  69.0043225  79.3274135 134.6623615
  81.8141268  91.0693660 141.7893021  81.6892408  90.2683400 141.2803966
  82.4720359  91.5639853 141.3006991  73.4349436  77.4242392 140.9670161
  72.7136022  78.0378360 140.8277634  74.2242692  77.9600157 140.8886807
  83.8776177  88.8702680 143.4172571  82.9306512  88.7508031 143.3450898
  84.2258950  87.9825178 143.4998832  76.2375750  74.7596819 147.2410813
  76.7610152  75.0059115 148.0037122  76.0188083  75.5916854 146.8213950
  71.6343031  77.0300493 135.1081938  71.3055737  76.1497872 134.9257044
  71.9882402  76.9748162 135.9958327  80.8822610  88.6655396 139.6176923
  80.7347572  87.7372104 139.7984493  81.7076103  88.6875487 139.1333999
  74.7484854  77.3173463 135.4757415  75.0880927  77.8459385 134.7536024
  75.1956975  77.6553869 136.2515982  84.4856732  89.4883955 140.7041796
  85.4103279  89.2826816 140.5666247  84.3172035  89.2400356 141.6131138
  77.4428295  75.7010514 144.9260483  77.1025115  74.9018327 145.3281163
  76.7367301  76.0012225 144.3537317  78.0944767  72.7859826 143.3787806
  78.9170836  72.3120305 143.2566697  78.3382830  73.5650310 143.8786493
  76.7353001  75.8148085 133.6750708  77.4561364  76.1929338 133.1714425
  76.1118305  76.5336962 133.7785686  80.8784124  76.5193234 134.6109041
  81.0947739  77.4017872 134.3097869  80.3978191  76.1279447 133.8814682
  75.6183346  79.4778947 141.1879785  75.4727926  79.7919250 142.0804067
  75.1408549  80.0963847 140.6350684  77.4779728  76.4681495 141.2360675
  77.4641297  75.5722588 140.8992973  78.1952157  76.4752159 141.8698961
  79.3305859  76.9018835 143.2813802  79.0723637  77.8235906 143.2798133
  78.7990900  76.5049270 143.9714266  84.2752048  90.0069622 136.0603887
  84.4488925  89.4416045 135.3077740  84.7680939  90.8070517 135.8783377
  70.0929008  82.0184291 144.1267446  69.5482476  82.7944099 144.2587721
  70.9708358  82.3655096 143.9686568  76.8816624  75.3495875 136.5048245
  77.0032536  74.4212522 136.7039132  76.5918667  75.3634561 135.5926560
  79.7507815  73.0350786 139.6414965  79.7729512  73.0990119 138.6866944
  80.1675874  72.1955294 139.8355471  90.1291439  82.7706045 137.6794187
  90.5722585  82.0213371 137.2813310  89.2517949  82.7616182 137.2967919
  85.2627220  89.3236387 133.1600786  85.9578125  89.9443079 133.3788100
  85.6050371  88.4731738 133.4353164  70.8795030  81.1454188 147.0197603
  70.1376766  81.2936823 147.6062234  70.5587774  81.4062453 146.1564353
  87.1618644  86.7736092 134.6888117  87.6869968  87.1123365 133.9637437
  87.0740996  85.8383108 134.5051251  78.8238692  90.6870166 146.8177993
  79.1325819  90.4419313 147.6900693  79.6214174  90.8916804 146.3296863
  78.8459304  92.8408076 139.0483370  78.4064295  92.3484454 139.7416226
  79.5967421  92.2981043 138.8075445  71.3251643  89.0319616 139.0507998
  72.1509663  88.7323388 138.6706641  70.9745695  88.2627239 139.4997786
  76.2933176  88.3846085 141.1205671  75.6713186  87.7216790 140.8207899
  76.9638043  88.4107217 140.4379319  69.5260248  86.9505943 140.0096931
  68.6892157  86.5228117 139.8280933  69.4983894  87.1438386 140.9467723
  76.3657704  76.8627873 150.7138177  76.4145859  77.7389995 150.3315947
  76.9080218  76.3205266 150.1409821  86.8512550  87.4068996 149.9939314
  86.0608093  87.3893135 149.4543814  86.6145904  87.9457290 150.7488351
  86.9710425  84.2561462 147.3072043  87.0208430  84.0911470 148.2487566
  86.8624348  83.3888721 146.9169924  75.8546683  86.9350008 134.5964132
  76.0034804  87.6185472 133.9430805  76.6613127  86.9155098 135.1113588
  84.2614187  80.2392390 148.6231350  85.1624050  80.0998855 148.3315348
  84.3362162  80.4046845 149.5629527  78.5956992  77.6159245 147.4684536
  77.7260302  77.9092811 147.1967125  78.8316473  78.1999690 148.1891800
  88.4728621  86.6758404 147.5514065  88.1813430  87.0388384 148.3877526
  87.8600753  85.9625412 147.3727397  89.6724304  84.2411284 140.0716635
  90.5071195  84.6801088 140.2354195  89.8083433  83.7649937 139.2524881
  86.7215810  81.7991018 146.0194123  87.1969931  81.9918665 145.2112974
  85.7981375  81.8550204 145.7737506  73.6099316  82.9615186 135.6025201
  73.3645358  82.0577516 135.8005411  73.7795231  82.9632336 134.6604679
  81.2996026  73.8338862 144.9849956  81.8177970  74.5699889 144.6596445
  80.9451159  74.1402855 145.8196716  72.8794964  78.6943543 133.1011362
  72.1864209  78.7687898 132.4451398  72.6346716  77.9303887 133.6232879
  81.5508620  70.2539145 140.5050853  81.8310374  69.5862334 141.1311280
  82.3359227  70.4468240 139.9925517  79.3542089  89.4298138 132.0675879
  78.7816056  90.0488326 131.6146351  79.9274883  89.9797500 132.6015801
  85.4217479  78.6756779 144.2522428  86.3734902  78.7754876 144.2734652
  85.2520929  77.8835047 144.7620513  83.4431858  75.7612362 144.4381829
  82.8481790  76.0417374 143.7428318  83.1581555  76.2506263 145.2098570
  82.5739349  89.7135289 133.1984462  83.5070022  89.6480850 133.4017337
  82.4862561  90.5491555 132.7398994  85.2027365  89.0301159 130.1588409
  85.1240997  88.6961023 131.0524167  86.0237032  89.5222927 130.1579882
  87.9005556  81.8962898 143.3664728  87.8681877  80.9578899 143.5524412
  88.5106180  81.9746935 142.6330553  79.7388887  80.7658951 129.4091932
  80.6847992  80.6365159 129.4780350  79.3603132  80.0273613 129.8861360
  88.0500045  78.6873942 143.4123011  87.5339094  77.9032398 143.2252940
  88.9339993  78.3592658 143.5769530  85.7110772  72.4314957 139.3718824
  85.5135593  72.1230045 140.2562156  86.3210477  73.1576596 139.5016754
  93.7182106  82.9578905 142.5070765  94.4485495  82.6964193 143.0678468
  93.1089052  82.2207627 142.5472833  91.7997403  81.0986768 143.1045216
  91.0730567  80.9642733 142.4961707  91.3844690  81.4063596 143.9101934
  79.6227580  84.8176697 150.8692589  80.5430589  84.9955296 151.0632635
  79.5877163  83.8732743 150.7172288  77.9231804  78.6908928 129.3446817
  77.0163260  78.3942040 129.4209531  78.2007786  78.3938746 128.4781103
  68.8409745  80.0115291 139.7945863  68.5212529  79.1580599 139.5020237
  68.2943173  80.2263869 140.5503831  72.6189652  82.7277732 143.5115370
  72.8375662  83.6594840 143.5303404  73.0315426  82.3685706 144.2970174
  79.5393870  73.2345817 135.4991058  78.7294599  72.8892902 135.8746304
  80.2278287  72.9253361 136.0878670  81.4684419  72.3123864 137.1215355
  82.0215457  72.7319318 137.7805378  81.7054505  71.3859612 137.1638311
  77.4917518  78.3010938 152.9018119  77.3914245  79.2505295 152.8330210
  77.2739060  77.9729177 152.0294189  76.6930589  75.5495863 129.4858796
  77.5549753  75.8750761 129.7454614  76.8780933  74.7627359 128.9731862
  68.7098005  83.6318202 141.7638985  68.0161476  83.2172155 141.2508939
  69.4570996  83.6738739 141.1672404  84.8463226  74.4224389 136.6294019
  84.2661895  75.0809193 136.2472072  84.5799158  73.6001734 136.2181437
  83.2966792  73.8229447 138.8315340  83.7966570  73.9345982 138.0229658
  83.9402400  73.5190500 139.4716148  77.3548788  81.7308077 151.7183181
  76.8715869  82.5308437 151.9247070  77.4409727  81.7416021 150.7650625
  70.6234747  83.5636456 139.6405000  70.6005436  83.6624144 138.6886883
  70.9335384  84.4101607 139.9622166  73.2822125  85.6212611 143.7551614
  74.2365379  85.5896554 143.6881546  73.0834649  85.1603235 144.5701840
  73.8721507  84.1913727 146.3222412  74.6914396  84.6857806 146.3457249
  74.1458315  83.2745695 146.2939980  83.6288104  76.5824480 135.6850368
  82.7413959  76.8674130 135.4670562  84.0442093  76.4218243 134.8377644
  86.9802640  76.6071001 139.4004707  87.7563030  77.0967453 139.6729324
  86.2550774  77.0329055 139.8576576  89.4175198  77.3198620 140.4578647
  90.0119689  77.0794356 139.7471956  89.4901782  76.6005750 141.0852184
  71.6372354  91.1632231 140.7721812  71.5026822  90.4032632 140.2059810
  71.2204416  91.8873131 140.3050601  82.7731317  86.3469154 129.7798388
  83.4767167  86.5519157 130.3956043  82.0493966  86.9145916 130.0447471
  83.6029127  82.0979016 135.9000658  83.5464329  82.5547567 135.0608290
  84.1557470  81.3369700 135.7223500  87.4133933  77.8868747 136.7250777
  87.1570868  77.4865383 137.5558985  86.7886801  78.6012541 136.6000916
  91.7246271  80.6264821 139.2322069  91.1645829  80.6958010 140.0053631
  91.1189774  80.4505805 138.5121565  74.7941480  92.0601548 140.9840255
  74.6773864  93.0046980 140.8818945  73.9733926  91.7575109 141.3726054
  84.6818014  86.7851684 131.8296848  85.5163618  86.3532882 131.6474322
  84.5202357  86.6133697 132.7573742  84.3363907  83.2883797 133.1953187
  84.2812710  83.1228068 132.2541631  83.7109962  83.9959830 133.3515377
  69.1256422  78.5251861 147.0214609  69.7715285  78.0150815 147.5101834
  68.9173573  79.2620543 147.5958034  81.6509814  85.5932709 152.5206750
  82.5200973  85.7673361 152.1593385  81.1716565  86.4127126 152.3982479
  77.6460032  72.7891906 132.7738505  77.6338702  73.7333746 132.9306776
  78.5383454  72.6062051 132.4797966  75.8195994  92.7129810 144.1996183
  76.7223241  92.7453420 144.5162678  75.5933364  91.7830261 144.2142519
  77.5749596  91.4660796 140.8606262  76.6245227  91.4662658 140.7470634
  77.8782082  90.7193531 140.3442297  81.4612152  69.3834682 137.0284442
  80.6944547  68.8293169 137.1741124  81.8722857  69.4556551 137.8898594
  73.4653913  75.6719478 151.1189623  74.3285374  75.3156283 151.3292948
  72.8919323  75.3333373 151.8065028  93.3102290  97.3021335 141.9252024
  93.9480700  97.1828082 141.2215364  93.1923132  98.2502179 141.9839976
  90.1191996  97.2548763 141.8613549  89.7810507  97.1389827 140.9734084
  90.9881764  96.8539928 141.8414555  85.9778812  99.1084239 137.8510440
  85.4143677  99.0174176 137.0826728  85.8631207  98.2884144 138.3312932
  83.5243243 100.6035431 140.6894660  84.3164535 100.2626255 140.2740960
  83.7639894 100.7130406 141.6096814  91.5578370 102.7755207 133.1624905
  90.9066350 103.3609287 132.7758919  92.3522733 103.3061402 133.2219942
  85.4833997  99.8644344 133.5612039  86.2564873  99.3173331 133.4224915
  85.8359396 100.7288593 133.7726501  88.2475247  98.5697575 143.3580298
  88.8438819  98.3453597 142.6437261  88.3050218  97.8282320 143.9605746
  87.8200275  96.0237010 131.1930489  88.0725796  95.5018531 130.4313952
  86.8824834  95.8603156 131.2957173  92.8643558  95.0272788 139.0005232
  93.6506647  94.6092212 138.6495649  93.1282262  95.9318881 139.1686881
  93.0353635 100.4645639 133.6993889  92.3999468 100.5380265 134.4114794
  92.7051042 101.0539238 133.0212968  98.2651985  94.9648022 139.9038211
  98.9977157  94.3947239 140.1376040  97.5091341  94.5769622 140.3444716
  87.5396564  97.9265116 133.3954864  87.4232822  97.2510019 134.0635948
  87.6498824  97.4397490 132.5787017  89.8828105  97.3875263 137.1001553
  89.5186312  96.8605884 137.8114475  90.7395221  96.9973732 136.9268039
  95.7877406  88.6769596 144.3632819  95.4560730  89.5465007 144.1394034
  95.1923019  88.3605880 145.0426850  89.5233592  92.4165163 132.0962902
  89.6907994  93.2845399 132.4633373  89.3330761  92.5792445 131.1724191
  85.7321407  97.3295939 139.7965437  84.8071903  97.1972153 140.0043128
  85.9805820  98.1090158 140.2935379  95.6806069  93.3964682 141.4426170
  94.7722946  93.3280090 141.1484930  95.6293665  93.8736627 142.2707995
  89.5022813  94.8722820 133.0809569  89.3822438  95.3179871 133.9195049
  88.8075401  95.2208138 132.5223107  83.0930218  96.9729212 140.6309226
  83.2222599  97.2263691 141.5448637  82.4127669  97.5656920 140.3113881
  87.2629705 107.6426462 136.7299700  87.1853735 108.5934287 136.8088180
  86.6591348 107.2972335 137.3874626  97.5467715  91.5981120 143.2204043
  96.9042096  91.8913654 142.5743838  97.0422644  91.4834041 144.0257240
  95.2007879  95.3444294 133.9089903  96.1125735  95.5771680 133.7337600
  94.6917526  95.9281338 133.3464981  89.8379717  94.7041528 144.9184752
  90.6840912  95.1280942 145.0619401  89.7778354  94.0475152 145.6123315
  92.5443854  91.5202330 142.1579764  91.6828333  91.8183583 142.4496501
  92.5706288  91.7372728 141.2260796  89.3605423 100.0644520 138.5653569
  89.8243769 100.3432223 137.7758192  89.0962221  99.1627965 138.3826660
  86.2529504  99.6116002 141.5033333  86.8230861 100.0403270 140.8650817
  86.8437616  99.3298586 142.2017518  88.2974309  96.1867672 135.3743134
  88.9998353  96.6388716 135.8417061  87.9654938  95.5451491 136.0023028
  82.0399643  94.4451225 140.6760268  81.2498697  94.7008754 140.2000379
  82.5310890  95.2599563 140.7812309  83.9914389  94.8095804 137.6343745
  83.1945552  94.9214499 138.1527240  83.7639981  95.1482457 136.7684635
  80.3237346  94.6981716 143.1075259  80.5745385  95.5828725 143.3732835
  80.8596895  94.5186317 142.3350351  89.5368074 103.0008615 135.4505240
  89.4013749 103.8460151 135.8790087  90.0777886 103.2027893 134.6871173
  82.9897471 100.5184053 136.0233165  83.5021992 101.3127303 136.1738729
  83.6420184  99.8210344 135.9566766  84.7992356 103.6349809 138.1055918
  84.9758984 104.5567774 137.9176902  85.5949189 103.3208229 138.5350298
  84.0844712  95.6814441 147.9818081  83.9698228  94.7799699 148.2825180
  83.2289230  95.9278138 147.6302898  92.8860537  86.5239177 143.9804133
  92.5424807  87.4140819 143.9043244  93.2539500  86.3340835 143.1173718
  80.9546388  98.8472707 136.7992735  81.7921610  99.2569716 136.5826443
  81.1324656  97.9072150 136.7692929  92.8510820  96.5147788 132.4876568
  92.3357444  97.2852393 132.7264956  92.5788129  95.8412924 133.1109630
  90.4357931  91.3597489 137.5461807  89.5799527  90.9704339 137.3667445
  90.8484883  91.4389450 136.6861592  91.9657078  88.8943832 141.9453366
  91.4621873  88.8573967 141.1321172  92.2587685  89.8036575 142.0050023
  88.2099964  88.9782562 140.9519548  89.0752960  88.7825371 140.5925438
  88.2777473  88.7492914 141.8788905  97.8245094  99.2680143 134.4229742
  97.0474537  98.9291302 133.9784904  98.5036575  99.2732766 133.7484707
  92.6397123  94.3874880 134.3136349  92.3347259  94.7021029 135.1646493
  93.5927565  94.4656300 134.3563682  91.0843555 100.5465104 135.9629303
  90.5564917  99.8117863 135.6502541  90.5831058 101.3239780 135.7169272
  85.8162283  91.2084770 138.3235915  86.3906035  90.9859951 137.5909108
  86.4033265  91.2773464 139.0764516  94.8741860  97.0958497 139.1300291
  95.3873742  97.7288489 139.6322001  95.5243084  96.4959692 138.7643651
  86.1431870  93.2389231 132.3431800  85.3069182  93.5763917 132.6641075
  86.0036639  93.1038211 131.4058937  88.1184950  88.0826019 137.0510984
  87.4649363  87.7675036 136.4267599  88.0765425  87.4601759 137.7770807
  89.2296155  98.3645314 128.9664276  88.3223217  98.1334567 129.1655425
  89.7267187  97.5682933 129.1538258  92.1364234 107.0742821 131.8860963
  91.4625933 107.3774518 132.4945920  92.5230056 107.8771901 131.5366420
  91.3522691  94.5707952 141.3758632  90.4345252  94.7922899 141.2180320
  91.7682834  94.6454263 140.5170339  92.1357739  95.9699368 136.5061312
  92.8829557  96.4820765 136.1968434  92.4049328  95.6483421 137.3665706
  90.4084389  98.4657909 133.4888266  89.4995608  98.1816941 133.5860736
  90.4379473  98.8856987 132.6291573  95.6403656 102.0764498 137.2579434
  95.1865983 101.2355408 137.3144625  95.0097623 102.7125896 137.5954214
  94.5836576  93.0056484 138.4880101  93.8459332  92.4933870 138.8190344
  94.8363349  92.5656866 137.6763378  94.0836595 103.9140995 138.1929252
  94.3759570 104.4746052 137.4741618  94.5935216 104.2069556 138.9482411
  94.6848203  85.7832736 139.0821871  94.9907080  84.9230100 138.7947786
  95.4100808  86.3750356 138.8820865  80.9772559  96.1863423 137.4703469
  80.7796959  95.5932783 136.7454535  80.4219223  95.8815633 138.1879407
  88.9569283  96.0786529 139.5898062  89.0117893  95.1260366 139.5140538
  88.1460485  96.2345968 140.0739360  90.1060477 100.0066652 130.8276345
  89.6679906  99.2902511 130.3681982  90.8470917 100.2342767 130.2661436
  86.8961643  94.6963589 137.3488441  86.0829508  94.9957760 137.7553633
  87.3920637  94.3019278 138.0662923  89.0470221 104.6921346 139.2822705
  89.0046399 104.9182192 138.3531237  89.9632919 104.4584720 139.4308507
  98.2233591  98.2823849 136.8852664  98.0851490  98.4725445 135.9573853
  97.8669810  99.0443232 137.3420715  86.3875717  92.2681944 142.9649676
  87.0275097  92.1270704 142.2672639  85.5553248  91.9816458 142.5888278
  87.1636021 101.5684375 139.0784668  87.9576620 101.0734695 138.8767243
  86.4527714 101.0402238 138.7152374  83.4718785  95.7127457 135.1544421
  82.5416373  95.6511912 135.3714383  83.5676257  95.1903409 134.3581062
  83.3904334  92.2382269 137.7422662  83.6511151  93.1527603 137.6331823
  84.2121506  91.7706712 137.8919275  84.8629259  93.6520027 144.9121487
  85.5352313  93.4437389 144.2634136  84.0359046  93.4542113 144.4726719
  90.7654831  90.2781968 146.9287148  90.1182746  90.9771917 146.8351624
  91.5355847  90.7118112 147.2963396  90.3355449 107.2422493 134.1008042
  90.5107205 106.7710537 134.9153664  89.6488237 107.8688260 134.3289302
  91.2912512 101.5195000 140.1471343  90.9562345 101.4795770 141.0428993
  90.7916458 100.8539716 139.6741753  85.2656756  96.9262630 145.6723924
  85.1276554  96.1942868 146.2735463  86.1761680  96.8371530 145.3908112
  94.2271704  98.8651034 130.4208403  93.6100875  98.1397862 130.3241455
  93.7588193  99.6260394 130.0775477  86.6067991  93.6247807 146.9803243
  86.0705348  93.1738545 147.6324840  86.0184700  93.7593716 146.2373708
  86.0170250  93.0836458 129.5429707  85.1399716  92.9625259 129.1791954
  86.4928003  92.2922537 129.2908596  77.5372390  97.8713618 139.6371214
  78.2243430  97.5575348 139.0492229  77.3820519  98.7754983 139.3638465
  82.3407112  92.7603815 144.0656238  82.2565301  92.1529484 143.3306648
  81.5189819  93.2512833 144.0665734  89.2034176 105.4362749 136.7892227
  88.4201698 105.9784429 136.8830452  89.9026921 105.9536728 137.1886469
  92.5130826  91.2457378 139.4326433  93.0099526  90.4927340 139.1127503
  91.7417808  91.2821695 138.8669642  93.5960607 100.0029065 137.0064856
  92.6616886 100.1230528 136.8369561  93.7737275  99.1001532 136.7424866
  89.0965795  93.3874761 139.1598117  88.7263582  92.8345801 139.8479023
  89.5924887  92.7832895 138.6073117  96.9833158  95.8446385 137.5414890
  97.4493610  96.6774376 137.4675193  97.4340659  95.3791366 138.2460149
  95.0509389 102.1890206 134.5401042  95.3269233 102.0746800 135.4494916
  94.1813888 101.7907691 134.5013215  94.9549821  88.2126972 141.5805792
  94.0412901  88.4431198 141.7487999  95.3842922  88.2965416 142.4319824
  91.6863453 106.4376557 138.1833856  91.8685848 105.6198213 138.6461608
  92.5096439 106.6544249 137.7458746  92.0205619 105.3644742 135.4448904
  92.5493385 104.8537196 134.8319067  92.2833838 105.0487272 136.3094438
  82.5222712 103.3808611 143.1884238  83.1076148 102.6352299 143.3212142
  82.3247550 103.6912568 144.0720902  85.3761367 106.4159859 138.2046680
  84.7071742 106.9005986 137.7210720  85.2374236 106.6629079 139.1190059
  77.1140366  95.9514211 141.9088681  77.1524466  95.4177802 142.7025799
  76.6080659  95.4249417 141.2899658  84.4931129  90.7978752 145.4051223
  84.5572455  91.6593583 144.9928621  84.4298249  90.1852753 144.6723582
  83.9683401  92.8701884 149.0524258  84.5955440  92.4878962 149.6661782
  83.1111320  92.6516086 149.4179950  80.7448944  94.6778313 134.9842613
  81.0402385  93.7688992 134.9309666  79.8436980  94.6566053 134.6623615
  84.2743191  92.7534310 140.9670161  83.5529777  93.3670278 140.8277634
  85.0636447  93.2892075 140.8886807  87.0769504  90.0888737 147.2410813
  87.6003906  90.3351033 148.0037122  86.8581838  90.9208771 146.8213950
  82.4736785  92.3592411 135.1081938  82.1449492  91.4789790 134.9257044
  82.8276156  92.3040080 135.9958327  91.7216364 103.9947314 139.6176923
  91.5741327 103.0664021 139.7984493  92.5469858 104.0167405 139.1333999
  85.5878609  92.6465381 135.4757415  85.9274681  93.1751302 134.7536024
  86.0350729  92.9845787 136.2515982  88.2822049  91.0302432 144.9260483
  87.9418870  90.2310245 145.3281163  87.5761056  91.3304143 144.3537317
  88.9338521  88.1151744 143.3787806  89.7564591  87.6412222 143.2566697
  89.1776585  88.8942228 143.8786493  87.5746756  91.1440003 133.6750708
  88.2955118  91.5221255 133.1714425  86.9512060  91.8628879 133.7785686
  91.7177879  91.8485152 134.6109041  91.9341493  92.7309789 134.3097869
  91.2371946  91.4571365 133.8814682  86.4577100  94.8070865 141.1879785
  86.3121681  95.1211168 142.0804067  85.9802304  95.4255765 140.6350684
  88.3173483  91.7973413 141.2360675  88.3035052  90.9014506 140.8992973
  89.0345911  91.8044076 141.8698961  90.1699614  92.2310753 143.2813802
  89.9117391  93.1527824 143.2798133  89.6384654  91.8341187 143.9714266
  95.1145802 105.3361540 136.0603887  95.2882680 104.7707963 135.3077740
  95.6074694 106.1362435 135.8783377  80.9322762  97.3476209 144.1267446
  80.3876230  98.1236017 144.2587721  81.8102112  97.6947014 143.9686568
  87.7210379  90.6787793 136.5048245  87.8426290  89.7504439 136.7039132
  87.4312421  90.6926479 135.5926560  90.5901569  88.3642703 139.6414965
  90.6123266  88.4282037 138.6866944  91.0069628  87.5247212 139.8355471
 100.9685194  98.0997963 137.6794187 101.4116340  97.3505288 137.2813310
 100.0911704  98.0908099 137.2967919  96.1020975 104.6528304 133.1600786
  96.7971880 105.2734997 133.3788100  96.4444125 103.8023656 133.4353164
  81.7188784  96.4746105 147.0197603  80.9770520  96.6228741 147.6062234
  81.3981528  96.7354371 146.1564353  98.0012398 102.1028010 134.6888117
  98.5263722 102.4415283 133.9637437  97.9134751 101.1675025 134.5051251
  82.1645398 104.3611534 139.0507998  82.9903418 104.0615306 138.6706641
  81.8139450 103.5919157 139.4997786  87.1326931 103.7138002 141.1205671
  86.5106940 103.0508707 140.8207899  87.8031798 103.7399134 140.4379319
  80.3654003 102.2797861 140.0096931  79.5285911 101.8520035 139.8280933
  80.3377648 102.4730304 140.9467723  86.6940438 102.2641926 134.5964132
  86.8428558 102.9477390 133.9430805  87.5006881 102.2447016 135.1113588
  84.4493071  98.2907103 135.6025201  84.2039113  97.3869433 135.8005411
  84.6188985  98.2924254 134.6604679  92.1389781  89.1630780 144.9849956
  92.6571725  89.8991807 144.6596445  91.7844913  89.4694773 145.8196716
  83.7188718  94.0235461 133.1011362  83.0257963  94.0979816 132.4451398
  83.4740470  93.2595805 133.6232879  92.3902375  85.5831062 140.5050853
  92.6704129  84.9154251 141.1311280  93.1752982  85.7760158 139.9925517
  90.1935843 104.7590056 132.0675879  89.6209810 105.3780243 131.6146351
  90.7668637 105.3089418 132.6015801  94.2825613  91.0904279 144.4381829
  93.6875545  91.3709292 143.7428318  93.9975309  91.5798180 145.2098570
  93.4133103 105.0427206 133.1984462  94.3463776 104.9772768 133.4017337
  93.3256316 105.8783473 132.7398994  96.0421120 104.3593077 130.1588409
  95.9634751 104.0252940 131.0524167  96.8630787 104.8514845 130.1579882
  90.5782642  96.0950869 129.4091932  91.5241747  95.9657077 129.4780350
  90.1996887  95.3565531 129.8861360  96.5504526  87.7606875 139.3718824
  96.3529348  87.4521963 140.2562156  97.1604232  88.4868514 139.5016754
  88.7625559  94.0200845 129.3446817  87.8557014  93.7233958 129.4209531
  89.0401540  93.7230663 128.4781103  79.6803499  95.3407209 139.7945863
  79.3606284  94.4872517 139.5020237  79.1336928  95.5555787 140.5503831
  83.4583407  98.0569650 143.5115370  83.6769417  98.9886757 143.5303404
  83.8709181  97.6977624 144.2970174  90.3787625  88.5637735 135.4991058
  89.5688353  88.2184820 135.8746304  91.0672042  88.2545279 136.0878670
  92.3078173  87.6415782 137.1215355  92.8609212  88.0611235 137.7805378
  92.5448259  86.7151530 137.1638311  87.5324344  90.8787780 129.4858796
  88.3943508  91.2042679 129.7454614  87.7174688  90.0919276 128.9731862
  79.5491759  98.9610120 141.7638985  78.8555231  98.5464073 141.2508939
  80.2964750  99.0030657 141.1672404  95.6856980  89.7516307 136.6294019
  95.1055649  90.4101111 136.2472072  95.4192913  88.9293652 136.2181437
  94.1360546  89.1521365 138.8315340  94.6360325  89.2637899 138.0229658
  94.7796154  88.8482418 139.4716148  81.4628502  98.8928374 139.6405000
  81.4399190  98.9916061 138.6886883  81.7729138  99.7393525 139.9622166
  84.1215880 100.9504529 143.7551614  85.0759133 100.9188471 143.6881546
  83.9228403 100.4895153 144.5701840  94.4681858  91.9116397 135.6850368
  93.5807713  92.1966048 135.4670562  94.8835847  91.7510161 134.8377644
  97.8196394  91.9362918 139.4004707  98.5956784  92.4259371 139.6729324
  97.0944528  92.3620973 139.8576576 100.2568953  92.6490538 140.4578647
 100.8513444  92.4086273 139.7471956 100.3295537  91.9297668 141.0852184
  82.4766109 106.4924148 140.7721812  82.3420576 105.7324549 140.2059810
  82.0598171 107.2165048 140.3050601  93.6125072 101.6761072 129.7798388
  94.3160922 101.8811075 130.3956043  92.8887720 102.2437834 130.0447471
  94.4422882  97.4270933 135.9000658  94.3858083  97.8839485 135.0608290
  94.9951224  96.6661618 135.7223500  98.2527688  93.2160665 136.7250777
  97.9964622  92.8157301 137.5558985  97.6280556  93.9304459 136.6000916
 102.5640026  95.9556738 139.2322069 102.0039584  96.0249928 140.0053631
 101.9583529  95.7797723 138.5121565  95.5211769 102.1143601 131.8296848
  96.3557373 101.6824800 131.6474322  95.3596112 101.9425615 132.7573742
  95.1757661  98.6175715 133.1953187  95.1206465  98.4519986 132.2541631
  94.5503716  99.3251747 133.3515377  79.9650176  93.8543779 147.0214609
  80.6109040  93.3442733 147.5101834  79.7567327  94.5912461 147.5958034
  88.4853787  88.1183824 132.7738505  88.4732456  89.0625663 132.9306776
  89.3777208  87.9353969 132.4797966  92.3005906  84.7126600 137.0284442
  91.5338302  84.1585087 137.1741124  92.7116611  84.7848469 137.8898594
  98.6594030 111.3528928 131.1930489  98.9119550 110.8310449 130.4313952
  97.7218589 111.1895073 131.2957173 100.3627346 107.7457081 132.0962902
 100.5301749 108.6137317 132.4633373 100.1724515 107.9084362 131.1724191
  96.9825624 108.5681148 132.3431800  96.1462937 108.9055835 132.6641075
  96.8430394 108.4330128 131.4058937  98.9578705 103.4117936 137.0510984
  98.3043117 103.0966954 136.4267599  98.9159179 102.7893677 137.7770807
 100.0689910 113.6937231 128.9664276  99.1616972 113.4626485 129.1655425
 100.5660942 112.8974851 129.1538258  96.8564005 108.4128376 129.5429707
  95.9793471 108.2917177 129.1791954  97.3321758 107.6214454 129.2908596
  91.5842698 110.0070231 134.9842613  91.8796139 109.0980910 134.9309666
  90.6830734 109.9857971 134.6623615  93.3130540 107.6884329 135.1081938
  92.9843246 106.8081708 134.9257044  93.6669911 107.6331998 135.9958327
  98.4140510 106.4731920 133.6750708  99.1348873 106.8513173 133.1714425
  97.7905814 107.1920797 133.7785686  94.5582473 109.3527379 133.1011362
  93.8651718 109.4271734 132.4451398  94.3134225 108.5887722 133.6232879
 101.4176396 111.4242787 129.4091932 102.3635501 111.2948995 129.4780350
 101.0390641 110.6857448 129.8861360  99.6019313 109.3492763 129.3446817
  98.6950769 109.0525876 129.4209531  99.8795294 109.0522581 128.4781103
 101.2181379 103.8929653 135.4991058 100.4082108 103.5476738 135.8746304
 101.9065796 103.5837196 136.0878670  98.3718098 106.2079698 129.4858796
  99.2337262 106.5334596 129.7454614  98.5568442 105.4211194 128.9731862
  99.3247541 103.4475741 132.7738505  99.3126211 104.3917581 132.9306776
 100.2170963 103.2645887 132.4797966  48.2003354  18.4649659 119.8870212
  47.5491333  19.0503739 119.5004225  48.9947716  18.9955854 119.9465249
  54.4670078  14.9574595 121.1475048  53.6899520  14.6185754 120.7030210
  55.1461558  14.9627218 120.4730013  45.8721139  14.0539766 115.6909583
  44.9648200  13.8229019 115.8900732  46.3692171  13.2577385 115.8783565
  48.7789217  22.7637273 118.6106269  48.1050916  23.0668970 119.2191227
  49.1655039  23.5666353 118.2611726  46.7485460  15.6961104 117.5521652
  46.3104890  14.9796963 117.0927289  47.4895901  15.9237219 116.9906743
  46.9780433  22.9316945 120.8253348  47.1532188  22.4604988 121.6398971
  46.2913221  23.5582711 121.0534609  50.8696687  14.5545486 117.1453709
  50.2525858  13.8292314 117.0486762  50.4013176  15.3154846 116.8020784
  51.6934373  17.8784658 121.2646349  51.9694217  17.7641252 122.1740223
  50.8238871  17.4802143 121.2258522  48.6630602  21.0539194 122.1694211
  49.1918369  20.5431648 121.5564373  48.9258822  20.7381724 123.0339744
  51.7570786  21.0255992 122.7849194  51.9307663  20.4602414 122.0323047
  52.2499677  21.8256887 122.6028684  52.7445958  20.3422756 119.8846092
  53.4396863  20.9629449 120.1033407  53.0869108  19.4918108 120.1598470
  54.6437381  17.7922462 121.4133423  55.1688705  18.1309735 120.6882743
  54.5559734  16.8569477 121.2296558  46.8360827  20.4484508 118.7921186
  46.2634794  21.0674695 118.3391658  47.4093620  20.9983870 119.3261108
  50.0558086  20.7321658 119.9229768  50.9888760  20.6667220 120.1262644
  49.9681299  21.5677925 119.4644301  52.6846103  20.0487529 116.8833716
  52.6059735  19.7147392 117.7769474  53.5055770  20.5409296 116.8825188
  47.2207625  11.7845321 116.1337238  48.1666730  11.6551529 116.2025657
  46.8421870  11.0459983 116.6106667  50.2550055  17.3655524 116.5043694
  50.9585905  17.5705526 117.1201350  49.5312704  17.9332286 116.7692778
  52.1636752  17.8038053 118.5542154  52.9982356  17.3719252 118.3719629
  52.0021095  17.6320067 119.4819049  51.8182644  14.3070166 119.9198494
  51.7631448  14.1414438 118.9786938  51.1928700  15.0146199 120.0760683
  60.7921027  28.3207704 128.6497331  61.4299437  28.2014452 127.9460671
  60.6741870  29.2688548 128.7085283  57.6010734  28.2735132 128.5858856
  57.2629245  28.1576197 127.6979391  58.4700502  27.8726297 128.5659862
  53.4597549  30.1270609 124.5755747  52.8962414  30.0360546 123.8072034
  53.3449944  29.3070513 125.0558239  51.0061981  31.6221800 127.4139967
  51.7983273  31.2812625 126.9986266  51.2458631  31.7316775 128.3342120
  59.0397108  33.7941576 119.8870212  58.3885088  34.3795657 119.5004225
  59.8341471  34.3247771 119.9465249  52.9652735  30.8830714 120.2857346
  53.7383611  30.3359701 120.1470222  53.3178134  31.7474963 120.4971807
  55.7293985  29.5883944 130.0825605  56.3257557  29.3639967 129.3682568
  55.7868956  28.8468690 130.6851053  55.3019013  27.0423380 117.9175796
  55.5544534  26.5204901 117.1559259  54.3643572  26.8789525 118.0202479
  60.3462296  26.0459158 125.7250539  61.1325385  25.6278581 125.3740956
  60.6101000  26.9505250 125.8932187  60.5172373  31.4832008 120.4239196
  59.8818206  31.5566635 121.1360100  60.1869780  32.0725607 119.7458275
  65.7470723  25.9834391 126.6283518  66.4795895  25.4133608 126.8621347
  64.9910079  25.5955992 127.0690023  55.0215302  28.9451486 120.1200171
  54.9051560  28.2696389 120.7881255  55.1317562  28.4583860 119.3032324
  57.3646843  28.4061633 123.8246860  57.0005050  27.8792254 124.5359781
  58.2213959  28.0160102 123.6513345  57.0052330  23.4351532 118.8208208
  57.1726732  24.3031769 119.1878680  56.8149499  23.5978814 117.8969498
  59.7627663  31.8968511 130.4874039  59.4628386  32.7993550 130.3789846
  59.4178722  31.6300695 131.3395192  53.2140144  28.3482308 126.5210743
  52.2890641  28.2158522 126.7288435  53.4624558  29.1276527 127.0180686
  63.1624807  24.4151052 128.1671476  62.2541684  24.3466460 127.8730237
  63.1112402  24.8922996 128.9953302  56.9841551  25.8909190 119.8054875
  56.8641176  26.3366241 120.6440356  56.2894139  26.2394508 119.2468413
  50.5748955  27.9915582 127.3554532  50.7041337  28.2450061 128.2693944
  49.8946407  28.5843290 127.0359187  54.7448443  38.6612832 123.4545007
  54.6672472  39.6120657 123.5333487  54.1410086  38.3158704 124.1119933
  62.6826617  26.3630663 120.6335209  63.5944473  26.5958050 120.4582907
  62.1736264  26.9467707 120.0710288  61.2896199  31.3456482 128.0248791
  60.6605061  31.5102196 127.3224859  60.9021861  31.7598091 128.7959755
  65.1685431  32.2810919 125.3793155  64.4836469  32.6609821 124.8290188
  65.2529280  32.8906246 126.1125102  62.4236363  29.9270878 131.9788498
  62.6353258  30.5702638 131.3022879  62.3766111  29.0933195 131.5110428
  56.8424161  31.0830890 125.2898876  57.3062506  31.3618593 124.5003498
  56.5780959  30.1814334 125.1071967  53.7348242  30.6302371 128.2278639
  54.3049599  31.0589640 127.5896124  54.3256354  30.3484956 128.9262825
  55.7793047  27.2054042 122.0988441  56.4817090  27.6575086 122.5662367
  55.4473675  26.5637861 122.7268334  63.5382190  32.8042834 130.1510855
  64.3599634  32.4023021 129.8693537  63.5344593  32.7011068 131.1026971
  51.4733126  25.8282174 124.3589051  50.6764290  25.9400868 124.8772547
  51.2458718  26.1668826 123.4929942  57.3038794  32.3526877 132.3071566
  57.3683226  32.8147284 133.1429738  56.5949718  31.7224242 132.4353876
  71.6288184  29.1481582 126.4995827  70.8751892  28.5788980 126.3439831
  71.7635725  29.1144247 127.4466462  57.0186812  34.0194985 122.1750546
  56.8832486  34.8646520 122.6035394  57.5596624  34.2214262 121.4116480
  50.4716209  31.5370423 122.7478471  50.9840730  32.3313673 122.8984036
  51.1238922  30.8396713 122.6812073  52.2811094  34.6536179 124.8301225
  52.4577722  35.5754144 124.6422208  53.0767927  34.3394598 125.2595604
  53.4042409  36.1714353 130.8311567  53.9549834  36.0431416 130.0588561
  52.5653885  36.4709242 130.4806460  60.7436526  34.9221351 134.3332290
  60.7255001  35.7430232 133.8412559  61.6656446  34.7975426 134.5582431
  48.4365126  29.8659077 123.5238042  49.2740348  30.2756085 123.3071750
  48.6143393  28.9258519 123.4938236  60.3329558  27.5334158 119.2121875
  59.8176181  28.3038762 119.4510262  60.0606866  26.8599294 119.8354936
  57.9176669  22.3783858 124.2707113  57.0618265  21.9890709 124.0912752
  58.3303621  22.4575819 123.4106899  65.3063832  30.2866512 121.1475048
  64.5293275  29.9477672 120.7030210  65.9855313  30.2919135 120.4730013
  60.1215861  25.4061250 121.0381656  59.8165997  25.7207399 121.8891799
  61.0746303  25.4842670 121.0808989  58.5662293  31.5651473 122.6874610
  58.0383654  30.8304233 122.3747847  58.0649796  32.3426149 122.4414578
  63.5455139  29.7600494 127.8041656  62.8878813  30.4499755 127.8921785
  64.3495538  30.1496925 128.1475643  53.2981020  22.2271139 125.0481222
  53.8724772  22.0046321 124.3154414  53.8852003  22.2959834 125.8009823
  62.3560598  28.1144866 125.8545598  62.8692479  28.7474858 126.3567308
  63.0061822  27.5146062 125.4888958  53.6250608  24.2575600 119.0677107
  52.7887920  24.5950287 119.3886382  53.4855377  24.1224580 118.1304244
  55.6003688  19.1012388 123.7756291  54.9468101  18.7861405 123.1512906
  55.5584162  18.4788129 124.5016114  56.7114893  29.3831683 115.6909583
  55.8041955  29.1520937 115.8900732  57.2085925  28.5869303 115.8783565
  59.6182972  38.0929191 118.6106269  58.9444671  38.3960887 119.2191227
  60.0048794  38.8958271 118.2611726  58.8341429  25.5894322 128.1003939
  57.9163990  25.8109269 127.9425627  59.2501572  25.6640632 127.2415646
  59.6176476  26.9885737 123.2306619  60.3648295  27.5007135 122.9213741
  59.8868066  26.6669790 124.0911012  57.8903126  29.4844278 120.2133573
  56.9814346  29.2003311 120.3106043  57.9198210  29.9043357 119.3536880
  63.1222394  33.0950868 123.9824741  62.6684721  32.2541778 124.0389931
  62.4916361  33.7312266 124.3199521  62.0655313  24.0242854 125.2125408
  61.3278070  23.5120240 125.5435651  62.3182087  23.5843235 124.4008685
  61.5655333  34.9327364 124.9174559  61.8578308  35.4932421 124.1986924
  62.0753954  35.2255925 125.6727718  62.1666941  16.8019106 125.8067177
  62.4725818  15.9416469 125.5193092  62.8919546  17.3936726 125.6066171
  48.4591297  27.2049792 124.1948775  48.2615697  26.6119153 123.4699842
  47.9037961  26.9002003 124.9124714  56.4388021  27.0972899 126.3143368
  56.4936630  26.1446735 126.2385845  55.6279223  27.2532338 126.7984667
  57.5879214  31.0253022 117.5521652  57.1498644  30.3088881 117.0927289
  58.3289655  31.2529137 116.9906743  54.3780380  25.7149959 124.0733747
  53.5648246  26.0144129 124.4798939  54.8739375  25.3205647 124.7908230
  56.5288958  35.7107715 126.0068012  56.4865137  35.9368562 125.0776544
  57.4451657  35.4771090 126.1553813  65.7052329  29.3010219 123.6097970
  65.5670228  29.4911815 122.6819159  65.3488548  30.0629602 124.0666021
  65.7321709  31.3686746 128.6209242  66.1658215  31.2762035 129.4692296
  66.4453289  31.3444246 127.9829258  54.6454759  32.5870744 125.8029975
  55.4395358  32.0921065 125.6012550  53.9346452  32.0588608 125.4397680
  59.4649604  34.9688840 130.1542342  59.5186626  35.5379776 130.9220058
  58.5964385  35.1390725 129.7896380  50.9537523  26.7313826 121.8789727
  50.0235111  26.6698282 122.0959690  51.0494995  26.2089779 121.0826369
  50.8723072  23.2568639 124.4667969  51.1329889  24.1713972 124.3577130
  51.6940244  22.7893082 124.6164582  66.5937258  31.4110447 131.1542127
  66.7873148  32.3156257 131.4001402  66.4937876  30.9517866 131.9880712
  58.4237703  29.1349102 131.7129274  59.3529763  29.2860262 131.5398242
  58.0028733  29.2233123 130.8577921  57.2226035  33.1599766 129.4827812
  57.0837121  32.7918551 130.3553750  56.4340631  33.6747406 129.3111770
  57.8174187  38.2608863 120.8253348  57.9925943  37.7896906 121.6398971
  57.1306975  38.8874629 121.0534609  58.7731250  32.5381369 126.8716650
  58.4381083  32.4982139 127.7674300  58.2735196  31.8726085 126.3987060
  61.7090442  29.8837404 117.1453709  61.0919613  29.1584232 117.0486762
  61.2406930  30.6446764 116.8020784  63.3644574  34.5936312 134.8059490
  63.3057120  33.9095532 134.1390073  63.7664092  35.3355302 134.3540116
  52.3835272  41.4098226 127.5993209  52.6231871  42.0416750 128.2772227
  51.5404469  41.0586266 127.8858568  53.4988988  24.1022828 116.2675014
  52.6218454  23.9811629 115.9037260  53.9746741  23.3108906 116.0153902
  63.3661981  32.5575896 133.0373469  62.4788760  32.2201818 133.1599868
  63.9360532  31.8258927 133.2742235  56.8963134  37.2177348 130.0034713
  56.8233306  38.0232320 130.5154017  56.4540527  37.4169314 129.1782734
  56.6852914  36.4549118 123.5137534  55.9020436  36.9970798 123.6075759
  57.3845659  36.9723098 123.9131775  59.9949564  22.2643748 126.1571739
  60.4918264  21.5113710 125.8372810  59.2236545  22.3008064 125.5914949
  67.8479321  27.9684113 127.7990031  67.8369198  28.8508829 127.4283964
  66.9796701  27.6155664 127.6044568  59.3561818  37.1164182 132.1592871
  60.0689790  37.7511647 132.0868773  58.8651846  37.2128048 131.3432873
  61.0779345  31.0215435 123.7310163  60.1435623  31.1416897 123.5614867
  61.2556013  30.1187902 123.4670173  56.5784533  24.4061131 125.8843424
  56.2082320  23.8532171 126.5724330  57.0743625  23.8019264 125.3318424
  64.4651896  26.8632754 124.2660197  64.9312348  27.6960746 124.1920500
  64.9159397  26.3977736 124.9705455  54.4073731  34.8658626 132.9798442
  55.1083191  35.4995109 133.1327836  53.9368846  35.2073357 132.2194081
  62.5328127  33.2076575 121.2646349  62.8087971  33.0933170 122.1740223
  61.6632626  32.8094060 121.2258522  62.2075017  27.4203233 130.8050992
  61.5546467  27.6679141 130.1503445  62.5855397  26.6067371 130.4713470
  59.1682191  37.4562926 124.9079163  59.3504586  36.6384582 125.3706915
  59.9915177  37.6730619 124.4704053  59.5024357  36.3831111 122.1694211
  60.0312123  35.8723566 121.5564373  59.7652576  36.0673642 123.0339744
  50.0041449  34.3994981 129.9129545  50.5894886  33.6538669 130.0457449
  49.8066288  34.7098937 130.7966209  52.8580105  37.4346228 124.9291987
  52.1890480  37.9192356 124.4456027  52.7192974  37.6815449 125.8435366
  56.9985373  39.4689972 131.5274645  57.5503681  39.6321593 132.2923731
  57.3391567  40.0594409 130.8554670  48.2267682  25.6964683 121.7087919
  48.5221123  24.7875361 121.6554973  47.3255717  25.6752423 121.3868922
  60.1353760  37.4171947 128.5138328  60.0104900  36.6161687 128.0049273
  60.7932852  37.9118140 128.0252298  62.1988669  35.2180967 130.1417878
  61.2519004  35.0986318 130.0696204  62.5471442  34.3303465 130.2244139
  49.9555523  23.3778781 121.8327244  49.6268229  22.4976160 121.6502350
  50.3094894  23.3226449 122.7203634  59.2035102  35.0133683 126.3422230
  59.0560065  34.0850391 126.5229800  60.0288596  35.0353774 125.8579305
  53.0697346  23.6651751 122.2002722  53.4093419  24.1937672 121.4781330
  53.5169467  24.0032157 122.9761289  62.8069224  35.8362242 127.4287103
  63.7315771  35.6305104 127.2911554  62.6384527  35.5878643 128.3376444
  55.0565494  22.1626372 120.3996015  55.7773856  22.5407625 119.8959732
  54.4330798  22.8815249 120.5030993  59.1996616  22.8671521 121.3354347
  59.4160231  23.7496159 121.0343175  58.7190684  22.4757734 120.6059989
  62.5964540  36.3547910 122.7849194  62.7701418  35.7894332 122.0323047
  63.0893431  37.1548804 122.6028684  55.2029117  21.6974163 123.2293551
  55.3245028  20.7690809 123.4284439  54.9131159  21.7112849 122.3171867
  68.4503931  29.1184333 124.4039494  68.8935077  28.3691658 124.0058617
  67.5730442  29.1094469 124.0213226  63.5839713  35.6714674 119.8846092
  64.2790617  36.2921367 120.1033407  63.9262863  34.8210025 120.1598470
  65.4831136  33.1214380 121.4133423  66.0082460  33.4601652 120.6882743
  65.3953488  32.1861395 121.2296558  57.1451184  37.0348453 133.5423300
  57.4538311  36.7897600 134.4145999  57.9426667  37.2395092 133.0542170
  57.1671797  39.1886363 125.7728676  56.7276787  38.6962742 126.4661533
  57.9179913  38.6459330 125.5320752  49.6464136  35.3797904 125.7753304
  50.4722155  35.0801676 125.3951948  49.2958188  34.6105526 126.2243093
  54.6145669  34.7324372 127.8450978  53.9925678  34.0695077 127.5453206
  55.2850536  34.7585504 127.1624626  47.8472741  33.2984230 126.7342238
  47.0104649  32.8706404 126.5526239  47.8196386  33.4916673 127.6713029
  65.1725042  33.7547283 136.7184621  64.3820586  33.7371422 136.1789121
  64.9358396  34.2935577 137.4733658  65.2922917  30.6039750 134.0317350
  65.3420922  30.4389757 134.9732872  65.1836840  29.7367009 133.6415230
  54.1759176  33.2828295 121.3209439  54.3247296  33.9663760 120.6676111
  54.9825619  33.2633385 121.8358894  66.7941114  33.0236691 134.2759371
  66.5025922  33.3866672 135.1122832  66.1813245  32.3103699 134.0972703
  67.9936796  30.5889571 126.7961941  68.8283687  31.0279375 126.9599502
  68.1295925  30.1128224 125.9770187  65.0428302  28.1469306 132.7439429
  65.5182424  28.3396952 131.9358281  64.1193867  28.2028492 132.4982813
  51.9311809  29.3093473 122.3270507  51.6857851  28.4055803 122.5250718
  52.1007723  29.3110623 121.3849985  51.2007456  25.0421830 119.8256669
  50.5076701  25.1166185 119.1696705  50.9559208  24.2782174 120.3478186
  57.6754581  35.7776426 118.7921186  57.1028548  36.3966613 118.3391658
  58.2487375  36.3275787 119.3261108  60.8951841  36.0613576 119.9229768
  61.8282514  35.9959138 120.1262644  60.8075054  36.8969843 119.4644301
  63.5239858  35.3779446 116.8833716  63.4453489  35.0439310 117.7769474
  64.3449524  35.8701214 116.8825188  66.2218049  28.2441185 130.0910034
  66.1894369  27.3057186 130.2769718  66.8318672  28.3225222 129.3575859
  58.0601380  27.1137238 116.1337238  59.0060484  26.9843447 116.2025657
  57.6815625  26.3751900 116.6106667  66.3712537  25.0352229 130.1368318
  65.8551586  24.2510686 129.9498246  67.2552486  24.7070946 130.3014837
  64.0323264  18.7793244 126.0964130  63.8348085  18.4708333 126.9807462
  64.6422970  19.5054883 126.2262060  72.0394599  29.3057192 129.2316071
  72.7697987  29.0442480 129.7923775  71.4301544  28.5685914 129.2718139
  70.1209896  27.4465055 129.8290522  69.3943059  27.3121020 129.2207014
  69.7057183  27.7541884 130.6347240  56.2444297  25.0387215 116.0692124
  55.3375752  24.7420328 116.1454837  56.5220278  24.7417033 115.2026410
  57.8606362  19.5824105 122.2236365  57.0507091  19.2371190 122.5991611
  58.5490779  19.2731648 122.8123977  59.7896911  18.6602151 123.8460662
  60.3427949  19.0797605 124.5050685  60.0266997  17.7337899 123.8883618
  55.0143081  21.8974150 116.2104103  55.8762245  22.2229048 116.4699920
  55.1993426  21.1105646 115.6977169  63.1675718  20.7702677 123.3539326
  62.5874387  21.4287481 122.9717378  62.9011651  19.9480021 122.9426743
  61.6179284  20.1707734 125.5560646  62.1179063  20.2824269 124.7474965
  62.2614892  19.8668787 126.1961455  48.9447240  29.9114744 126.3650307
  48.9217928  30.0102431 125.4132190  49.2547876  30.7579894 126.6867473
  61.9500596  22.9302767 122.4095674  61.0626451  23.2152418 122.1915869
  62.3654585  22.7696530 121.5622951  65.3015132  22.9549288 126.1250013
  66.0775522  23.4445740 126.3974630  64.5763266  23.3807342 126.5821883
  67.7387691  23.6676907 127.1823954  68.3332181  23.4272643 126.4717262
  67.8114274  22.9484038 127.8097490  49.9584846  37.5110518 127.4967119
  49.8239314  36.7510919 126.9305117  49.5416909  38.2351418 127.0295908
  61.0943809  32.6947442 116.5043694  61.7979659  32.8997444 117.1201350
  60.3706458  33.2624203 116.7692778  61.9241620  28.4457303 122.6245964
  61.8676821  28.9025854 121.7853597  62.4769962  27.6847987 122.4468807
  65.7346426  24.2347035 123.4496084  65.4783360  23.8343670 124.2804292
  65.1099294  24.9490829 123.3246223  70.0458763  26.9743108 125.9567375
  69.4858321  27.0436297 126.7298937  69.4402267  26.7984093 125.2366871
  53.1153972  38.4079835 127.7085562  52.9986356  39.3525268 127.6064252
  52.2946418  38.1053397 128.0971361  63.0030507  33.1329971 118.5542154
  63.8376111  32.7011169 118.3719629  62.8414850  32.9611984 119.4819049
  62.6576399  29.6362084 119.9198494  62.6025203  29.4706356 118.9786938
  62.0322454  30.3438117 120.0760683  55.9672524  19.1370193 119.4983812
  55.9551194  20.0812033 119.6552083  56.8595946  18.9540339 119.2043273
  54.1408486  39.0608097 130.9241490  55.0435733  39.0931707 131.2407985
  53.9145856  38.1308548 130.9387826  55.8962088  37.8139083 127.5851569
  54.9457719  37.8140945 127.4715941  56.1994575  37.0671818 127.0687603
  59.7824644  15.7312970 123.7529749  59.0157040  15.1771456 123.8986431
  60.1935349  15.8034838 124.6143900  71.6314782  43.6499622 128.6497331
  72.2693192  43.5306369 127.9460671  71.5135625  44.5980466 128.7085283
  68.4404488  43.6027050 128.5858856  68.1023000  43.4868115 127.6979391
  69.3094256  43.2018215 128.5659862  64.2991304  45.4562526 124.5755747
  63.7356169  45.3652463 123.8072034  64.1843699  44.6362431 125.0558239
  68.9224271  44.7561902 134.5445061  68.9112912  44.3614700 133.6725565
  69.0844911  44.0227974 135.1378833  61.8455736  46.9513718 127.4139967
  62.6377028  46.6104543 126.9986266  62.0852386  47.0608693 128.3342120
  69.8790863  49.1233494 119.8870212  69.2278842  49.7087575 119.5004225
  70.6735225  49.6539689 119.9465249  63.8046490  46.2122631 120.2857346
  64.5777366  45.6651618 120.1470222  64.1571889  47.0766881 120.4971807
  65.6431532  47.5399014 133.4924245  65.3521398  48.4444644 133.3770911
  66.2788517  47.5815541 134.2068315  66.5687739  44.9175862 130.0825605
  67.1651311  44.6931884 129.3682568  66.6262711  44.1760608 130.6851053
  66.1412768  42.3715297 117.9175796  66.3938288  41.8496819 117.1559259
  65.2037327  42.2081443 118.0202479  71.1856050  41.3751076 125.7250539
  71.9719140  40.9570499 125.3740956  71.4494755  42.2797168 125.8932187
  71.3566128  46.8123926 120.4239196  70.7211961  46.8858553 121.1360100
  71.0263534  47.4017525 119.7458275  76.5864477  41.3126309 126.6283518
  77.3189649  40.7425526 126.8621347  75.8303833  40.9247909 127.0690023
  65.8609056  44.2743403 120.1200171  65.7445314  43.5988307 120.7881255
  65.9711316  43.7875777 119.3032324  68.2040597  43.7353550 123.8246860
  67.8398804  43.2084171 124.5359781  69.0607713  43.3452019 123.6513345
  74.1089898  35.0247883 131.0878126  73.7773223  35.8943294 130.8639341
  73.5135511  34.7084167 131.7672157  67.8446084  38.7643450 118.8208208
  68.0120487  39.6323687 119.1878680  67.6543253  38.9270732 117.8969498
  70.6021417  47.2260429 130.4874039  70.3022140  48.1285468 130.3789846
  70.2572477  46.9592612 131.3395192  64.0533899  43.6774226 126.5210743
  63.1284395  43.5450440 126.7288435  64.3018312  44.4568445 127.0180686
  74.0018561  39.7442969 128.1671476  73.0935438  39.6758378 127.8730237
  73.9506157  40.2214914 128.9953302  67.8235305  41.2201108 119.8054875
  67.7034930  41.6658158 120.6440356  67.1287893  41.5686425 119.2468413
  61.4142710  43.3207499 127.3554532  61.5435091  43.5741978 128.2693944
  60.7340161  43.9135207 127.0359187  65.5842197  53.9904749 123.4545007
  65.5066227  54.9412574 123.5333487  64.9803841  53.6450622 124.1119933
  68.0759427  41.1632615 136.1106373  67.2992761  41.7226535 136.1009238
  68.7149990  41.6489398 136.6321244  75.8680208  37.9459408 129.9449350
  75.2254588  38.2391941 129.2989145  75.3635136  37.8312328 130.7502547
  73.5220371  41.6922581 120.6335209  74.4338227  41.9249968 120.4582907
  73.0130018  42.2759625 120.0710288  66.3305799  43.9718068 135.6724340
  67.0720484  44.5103112 135.3959164  65.6242785  44.5984357 135.8295892
  71.8061139  46.1147209 134.2696502  72.2144495  45.6729619 133.5251134
  71.0838400  45.5399836 134.5230695  68.1592209  41.0519815 131.6430059
  69.0053404  41.4759229 131.7864708  68.0990847  40.3953440 132.3368622
  72.1289954  46.6748399 128.0248791  71.4998816  46.8394113 127.3224859
  71.7415616  47.0890009 128.7959755  76.0079185  47.6102837 125.3793155
  75.3230224  47.9901738 124.8290188  76.0923035  48.2198164 126.1125102
  71.3091654  38.7124184 133.3011233  71.0652586  39.4666244 132.7645508
  71.5851585  39.0909531 134.1358480  73.2630117  45.2562796 131.9788498
  73.4747012  45.8994556 131.3022879  73.2159865  44.4225113 131.5110428
  70.8656346  37.8680617 128.8825070  70.0040825  38.1661870 129.1741808
  70.8918781  38.0851016 127.9506103  67.6817915  46.4122807 125.2898876
  68.1456261  46.6910510 124.5003498  67.4174713  45.5106252 125.1071967
  64.5741996  45.9594289 128.2278639  65.1443354  46.3881557 127.5896124
  65.1650108  45.6776874 128.9262825  66.6186801  42.5345960 122.0988441
  67.3210845  42.9867003 122.5662367  66.2867430  41.8929779 122.7268334
  65.0667163  41.1257716 136.4739650  64.4365824  41.8073997 136.7075047
  64.9603251  41.0140798 135.5292789  60.3612135  40.7929512 127.4005575
  59.5711189  41.0487041 126.9245685  60.8523383  41.6077850 127.5057615
  74.3775945  48.1334752 130.1510855  75.1993389  47.7314939 129.8693537
  74.3738348  48.0302986 131.1026971  62.3126881  41.1574092 124.3589051
  61.5158044  41.2692786 124.8772547  62.0852473  41.4960744 123.4929942
  68.1432548  47.6818795 132.3071566  68.2076981  48.1439202 133.1429738
  67.4343472  47.0516160 132.4353876  58.6449838  41.0460003 129.8320565
  58.8957877  41.9307013 130.0978141  59.1809387  40.8664604 129.0595657
  82.4681938  44.4773500 126.4995827  81.7145646  43.9080898 126.3439831
  82.6029479  44.4436165 127.4466462  67.8580566  49.3486902 122.1750546
  67.7226241  50.1938438 122.6035394  68.3990379  49.5506180 121.4116480
  61.3109963  46.8662340 122.7478471  61.8234484  47.6605591 122.8984036
  61.9632676  46.1688631 122.6812073  63.1204848  49.9828097 124.8301225
  63.2971476  50.9046061 124.6422208  63.9161682  49.6686516 125.2595604
  67.2615867  36.8436361 136.4285158  68.0025580  37.4443514 136.3489621
  67.4933790  36.1013999 135.8703201  62.4057205  42.0292729 134.7063388
  62.2910720  41.1277986 135.0070487  61.5501722  42.2756425 134.3548204
  69.4849042  49.9710469 136.3050888  69.0412897  49.1846847 135.9871793
  70.1466256  50.1589619 135.6394779  64.2436164  51.5006270 130.8311567
  64.7943589  51.3723334 130.0588561  63.4047640  51.8001159 130.4806460
  71.5830281  50.2513269 134.3332290  71.5648756  51.0722150 133.8412559
  72.5050201  50.1267344 134.5582431  68.0403335  47.7657398 135.1755798
  68.5731671  47.0045686 134.9455106  67.5117416  47.4731050 135.9179952
  71.2073030  32.8717464 130.7049440  70.8637299  33.7619106 130.6288550
  71.5751992  32.6819122 129.8419025  59.2758880  45.1950995 123.5238042
  60.1134102  45.6048003 123.3071750  59.4537148  44.2550437 123.4938236
  71.1723312  42.8626075 119.2121875  70.6569936  43.6330680 119.4510262
  70.9000621  42.1891211 119.8354936  68.7570423  37.7075776 124.2707113
  67.9012020  37.3182627 124.0912752  69.1697375  37.7867737 123.4106899
  70.2869570  35.2422119 128.6698673  69.7834366  35.2052255 127.8566478
  70.5800177  36.1514862 128.7295330  66.5312456  35.3260849 127.6764855
  67.3965453  35.1303658 127.3170744  66.5989965  35.0971201 128.6034211
  76.1457586  45.6158430 121.1475048  75.3687029  45.2769589 120.7030210
  76.8249067  45.6211053 120.4730013  70.9609616  40.7353167 121.0381656
  70.6559751  41.0499317 121.8891799  71.9140058  40.8134587 121.0808989
  69.4056047  46.8943391 122.6874610  68.8777409  46.1596150 122.3747847
  68.9043550  47.6718067 122.4414578  74.3848893  45.0892411 127.8041656
  73.7272568  45.7791673 127.8921785  75.1889293  45.4788843 128.1475643
  64.1374775  37.5563057 125.0481222  64.7118527  37.3338239 124.3154414
  64.7245757  37.6251752 125.8009823  73.1954352  43.4436784 125.8545598
  73.7086234  44.0766776 126.3567308  73.8455576  42.8437979 125.4888958
  64.4644362  39.5867518 119.0677107  63.6281674  39.9242205 119.3886382
  64.3249132  39.4516498 118.1304244  66.4397443  34.4304306 123.7756291
  65.7861855  34.1153323 123.1512906  66.3977917  33.8080046 124.5016114
  67.5508648  44.7123601 115.6909583  66.6435709  44.4812854 115.8900732
  68.0479680  43.9161220 115.8783565  70.4576726  53.4221108 118.6106269
  69.7838425  53.7252805 119.2191227  70.8442548  54.2250189 118.2611726
  69.6735183  40.9186239 128.1003939  68.7557744  41.1401186 127.9425627
  70.0895327  40.9932550 127.2415646  70.4570231  42.3177655 123.2306619
  71.2042050  42.8299052 122.9213741  70.7261820  41.9961708 124.0911012
  68.7296881  44.8136196 120.2133573  67.8208100  44.5295229 120.3106043
  68.7591965  45.2335274 119.3536880  73.9616148  48.4242785 123.9824741
  73.5078476  47.5833695 124.0389931  73.3310115  49.0604184 124.3199521
  72.9049068  39.3534771 125.2125408  72.1671825  38.8412158 125.5435651
  73.1575842  38.9135153 124.4008685  72.4049088  50.2619282 124.9174559
  72.6972062  50.8224339 124.1986924  72.9147708  50.5547843 125.6727718
  73.0060695  32.1311023 125.8067177  73.3119572  31.2708387 125.5193092
  73.7313300  32.7228644 125.6066171  59.2985051  42.5341710 124.1948775
  59.1009451  41.9411071 123.4699842  58.7431715  42.2293920 124.9124714
  67.2781775  42.4264816 126.3143368  67.3330385  41.4738653 126.2385845
  66.4672977  42.5824256 126.7984667  68.4272969  46.3544940 117.5521652
  67.9892399  45.6380798 117.0927289  69.1683410  46.5821054 116.9906743
  65.2174135  41.0441876 124.0733747  64.4042000  41.3436047 124.4798939
  65.7133129  40.6497565 124.7908230  67.3682713  51.0399633 126.0068012
  67.3258892  51.2660479 125.0776544  68.2845412  50.8063008 126.1553813
  70.8148347  41.5083701 132.9048641  71.1697734  41.7355174 133.7643107
  71.4620478  41.8402077 132.2825897  76.5446084  44.6302137 123.6097970
  76.4063982  44.8203733 122.6819159  76.1882302  45.3921519 124.0666021
  64.7088210  38.6160232 129.6894982  65.3487589  38.4748991 128.9917946
  63.8765740  38.3294745 129.3133584  76.5715463  46.6978664 128.6209242
  77.0051970  46.6053953 129.4692296  77.2847044  46.6736164 127.9829258
  65.4848514  47.9162662 125.8029975  66.2789112  47.4212982 125.6012550
  64.7740206  47.3880525 125.4397680  70.3043358  50.2980758 130.1542342
  70.3580380  50.8671694 130.9220058  69.4358139  50.4682643 129.7896380
  61.7931277  42.0605744 121.8789727  60.8628865  41.9990199 122.0959690
  61.8888749  41.5381697 121.0826369  61.7116826  38.5860557 124.4667969
  61.9723643  39.5005890 124.3577130  62.5333998  38.1184999 124.6164582
  63.1841751  39.9998314 131.6366794  63.8564805  39.7915676 130.9879443
  62.3571538  39.8020400 131.1972026  77.4331013  46.7402364 131.1542127
  77.6266903  47.6448175 131.4001402  77.3331631  46.2809783 131.9880712
  69.0867323  36.6260255 133.6532455  68.4395239  37.3250204 133.5596931
  69.8568339  37.0596399 134.0208703  72.4946121  46.8909107 136.7283008
  72.3431628  46.6619659 135.8113091  72.4850801  47.8479708 136.7414353
  69.2631458  44.4641020 131.7129274  70.1923518  44.6152179 131.5398242
  68.8422488  44.5525041 130.8577921  68.0619790  48.4891684 129.4827812
  67.9230875  48.1210469 130.3553750  67.2734386  49.0039324 129.3111770
  68.6567942  53.5900781 120.8253348  68.8319697  53.1188824 121.6398971
  67.9700730  54.2166547 121.0534609  69.6125005  47.8673287 126.8716650
  69.2774837  47.8274057 127.7674300  69.1128950  47.2018003 126.3987060
  63.5869249  43.2740917 132.3969231  63.4489047  42.5421156 132.9980770
  64.4974172  43.1849817 132.1153419  72.5484196  45.2129321 117.1453709
  71.9313367  44.4876149 117.0486762  72.0800685  45.9738681 116.8020784
  66.2151549  42.9860876 131.8852910  66.9251168  42.3454068 131.8439529
  66.1720858  43.2373771 132.8079091  74.2038328  49.9228230 134.8059490
  74.1450874  49.2387450 134.1390073  74.6057846  50.6647220 134.3540116
  64.9280483  39.9726094 133.7048550  64.3917840  39.5216833 134.3570146
  64.3397192  40.1072003 132.9619014  63.2229027  56.7390143 127.5993209
  63.4625625  57.3708668 128.2772227  62.3798223  56.3878183 127.8858568
  64.3382742  39.4314745 116.2675014  63.4612209  39.3103546 115.9037260
  64.8140495  38.6400824 116.0153902  74.2055735  47.8867813 133.0373469
  73.3182514  47.5493735 133.1599868  74.7754286  47.1550845 133.2742235
  55.8584882  44.2191905 126.3616521  56.5455922  43.9053635 125.7737536
  55.7033011  45.1233270 126.0883772  60.6619605  39.1082102 130.7901544
  60.5777793  38.5007771 130.0551954  59.8402311  39.5991120 130.7911041
  67.7356889  52.5469266 130.0034713  67.6627060  53.3524237 130.5154017
  67.2934282  52.7461232 129.1782734  67.5246668  51.7841036 123.5137534
  66.7414190  52.3262716 123.6075759  68.2239414  52.3015015 123.9131775
  70.8343318  37.5935665 126.1571739  71.3312018  36.8405628 125.8372810
  70.0630300  37.6299982 125.5914949  78.6873076  43.2976031 127.7990031
  78.6762952  44.1800746 127.4283964  77.8190455  42.9447582 127.6044568
  70.1955572  52.4456100 132.1592871  70.9083544  53.0803565 132.0868773
  69.7045601  52.5419966 131.3432873  71.9173099  46.3507353 123.7310163
  70.9829378  46.4708815 123.5614867  72.0949768  45.4479819 123.4670173
  67.4178287  39.7353048 125.8843424  67.0476075  39.1824089 126.5724330
  67.9137380  39.1311182 125.3318424  75.3045651  42.1924672 124.2660197
  75.7706103  43.0252663 124.1920500  75.7553151  41.7269653 124.9705455
  65.2467486  50.1950543 132.9798442  65.9476945  50.8287026 133.1327836
  64.7762601  50.5365275 132.2194081  73.3721882  48.5368493 121.2646349
  73.6481726  48.4225088 122.1740223  72.5026380  48.1385978 121.2258522
  73.2762313  34.5605259 128.3051098  72.3625393  34.7909486 128.4733305
  73.7055415  34.6443703 129.1565131  73.0468772  42.7495151 130.8050992
  72.3940222  42.9971058 130.1503445  73.4249152  41.9359289 130.4713470
  70.0075946  52.7854844 124.9079163  70.1898340  51.9676500 125.3706915
  70.8308932  53.0022536 124.4704053  70.3418111  51.7123029 122.1694211
  70.8705878  51.2015484 121.5564373  70.6046331  51.3965559 123.0339744
  69.0956345  43.4914962 137.2917029  68.4196982  43.3909091 137.9619405
  69.9183979  43.3354176 137.7553027  60.8435204  49.7286898 129.9129545
  61.4288641  48.9830586 130.0457449  60.6460042  50.0390855 130.7966209
  63.6973859  52.7638146 124.9291987  63.0284234  53.2484273 124.4456027
  63.5586729  53.0107366 125.8435366  55.4352859  42.2992499 128.6333988
  55.4736958  41.7656089 129.4271106  54.9293151  41.7727704 128.0144965
  67.8379128  54.7981889 131.5274645  68.3897436  54.9613511 132.2923731
  68.1785321  55.3886327 130.8554670  62.8143621  37.1457039 132.1296530
  62.8784947  38.0071870 131.7173928  62.7510741  36.5331041 131.3968889
  62.2895893  39.2180172 135.7769564  62.9167932  38.8357249 136.3907089
  61.4323812  38.9994374 136.1425257  72.6890002  49.6243147 137.3823300
  73.2329906  50.2373105 136.8878255  72.1076847  50.1822725 137.8990313
  59.0661436  41.0256601 121.7087919  59.3614877  40.1167279 121.6554973
  58.1649472  41.0044340 121.3868922  70.9747515  52.7463865 128.5138328
  70.8498654  51.9453605 128.0049273  71.6326606  53.2410058 128.0252298
  62.5955683  39.1012597 127.6915468  61.8742269  39.7148565 127.5522941
  63.3848939  39.6370362 127.6132114  73.0382423  50.5472885 130.1417878
  72.0912759  50.4278236 130.0696204  73.3865196  49.6595383 130.2244139
  65.3981997  36.4367024 133.9656120  65.9216398  36.6829320 134.7282429
  65.1794330  37.2687059 133.5459257  60.7949278  38.7070698 121.8327244
  60.4661984  37.8268077 121.6502350  61.1488648  38.6518367 122.7203634
  70.0428857  50.3425601 126.3422230  69.8953819  49.4142309 126.5229800
  70.8682350  50.3645692 125.8579305  63.9091101  38.9943668 122.2002722
  64.2487173  39.5229589 121.4781330  64.3563221  39.3324074 122.9761289
  73.6462978  51.1654160 127.4287103  74.5709526  50.9597021 127.2911554
  73.4778282  50.9170561 128.3376444  66.6034542  37.3780719 131.6505790
  66.2631362  36.5788532 132.0526470  65.8973548  37.6782430 131.0782623
  67.2551014  34.4630031 130.1033113  68.0777083  33.9890510 129.9812003
  67.4989077  35.2420515 130.6031799  65.8959248  37.4918290 120.3996015
  66.6167611  37.8699543 119.8959732  65.2724552  38.2107167 120.5030993
  70.0390371  38.1963439 121.3354347  70.2553985  39.0788077 121.0343175
  69.5584438  37.8049652 120.6059989  64.7789592  41.1549152 127.9125092
  64.6334173  41.4689455 128.8049373  64.3014796  41.7734052 127.3595990
  66.6385975  38.1451700 127.9605981  66.6247544  37.2492793 127.6238279
  67.3558403  38.1522364 128.5944267  68.4912106  38.5789040 130.0059109
  68.2329884  39.5006111 130.0043439  67.9597146  38.1819475 130.6959573
  73.4358295  51.6839827 122.7849194  73.6095172  51.1186250 122.0323047
  73.9287186  52.4840722 122.6028684  59.2535254  43.6954496 130.8512753
  58.7088723  44.4714304 130.9833027  60.1314604  44.0425301 130.6931874
  66.0422871  37.0266080 123.2293551  66.1638782  36.0982726 123.4284439
  65.7524913  37.0404766 122.3171867  68.9114062  34.7120991 126.3660271
  68.9335758  34.7760324 125.4112251  69.3282121  33.8725499 126.5600777
  79.2897686  44.4476250 124.4039494  79.7328832  43.6983575 124.0058617
  78.4124196  44.4386387 124.0213226  74.4233467  51.0006592 119.8846092
  75.1184372  51.6213284 120.1033407  74.7656617  50.1501943 120.1598470
  60.0401276  42.8224393 133.7442910  59.2983012  42.9707028 134.3307540
  59.7194021  43.0832658 132.8809659  76.3224890  48.4506297 121.4133423
  76.8476214  48.7893570 120.6882743  76.2347243  47.5153313 121.2296558
  67.9844939  52.3640371 133.5423300  68.2932065  52.1189518 134.4145999
  68.7820421  52.5687009 133.0542170  68.0065551  54.5178281 125.7728676
  67.5670541  54.0254659 126.4661533  68.7573668  53.9751248 125.5320752
  60.4857890  50.7089821 125.7753304  61.3115910  50.4093593 125.3951948
  60.1351942  49.9397444 126.2243093  65.4539423  50.0616290 127.8450978
  64.8319432  49.3986995 127.5453206  66.1244290  50.0877421 127.1624626
  58.6866495  48.6276148 126.7342238  57.8498403  48.1998322 126.5526239
  58.6590140  48.8208591 127.6713029  65.5263951  38.5398078 137.4383484
  65.5752106  39.4160200 137.0561254  66.0686465  37.9975471 136.8655127
  76.0118796  49.0839201 136.7184621  75.2214340  49.0663340 136.1789121
  75.7752151  49.6227495 137.4733658  76.1316671  45.9331667 134.0317350
  76.1814676  45.7681675 134.9732872  76.0230595  45.0658926 133.6415230
  65.0152930  48.6120213 121.3209439  65.1641050  49.2955677 120.6676111
  65.8219374  48.5925303 121.8358894  73.4220434  41.9162595 135.3476656
  74.3230297  41.7769060 135.0560654  73.4968408  42.0817050 136.2874834
  67.7563239  39.2929450 134.1929843  66.8866549  39.5863016 133.9212431
  67.9922719  39.8769895 134.9137106  77.6334868  48.3528609 134.2759371
  77.3419677  48.7158589 135.1122832  77.0206999  47.6395617 134.0972703
  78.8330551  45.9181489 126.7961941  79.6677442  46.3571293 126.9599502
  78.9689679  45.4420142 125.9770187  75.8822056  43.4761223 132.7439429
  76.3576178  43.6688870 131.9358281  74.9587622  43.5320409 132.4982813
  62.7705563  44.6385391 122.3270507  62.5251605  43.7347721 122.5250718
  62.9401478  44.6402541 121.3849985  70.4602273  35.5109067 131.7095263
  70.9784217  36.2470094 131.3841752  70.1057406  35.8173060 132.5442022
  62.0401211  40.3713748 119.8256669  61.3470456  40.4458103 119.1696705
  61.7952962  39.6074092 120.3478186  70.7114867  31.9309349 127.2296160
  70.9916621  31.2632539 127.8556586  71.4965474  32.1238445 126.7170824
  68.5148336  51.1068343 118.7921186  67.9422303  51.7258531 118.3391658
  69.0881129  51.6567705 119.3261108  74.5823725  40.3526983 130.9767735
  75.5341148  40.4525081 130.9979959  74.4127176  39.5605252 131.4865819
  72.6038105  37.4382567 131.1627136  72.0088037  37.7187579 130.4673624
  72.3187802  37.9276468 131.9343877  71.7345595  51.3905494 119.9229768
  72.6676269  51.3251055 120.1262644  71.6468808  52.2261760 119.4644301
  74.3633612  50.7071364 116.8833716  74.2847244  50.3731227 117.7769474
  75.1843279  51.1993132 116.8825188  77.0611803  43.5733103 130.0910034
  77.0288123  42.6349104 130.2769718  77.6712427  43.6517140 129.3575859
  68.8995134  42.4429156 116.1337238  69.8454239  42.3135364 116.2025657
  68.5209379  41.7043818 116.6106667  77.2106292  40.3644147 130.1368318
  76.6945340  39.5802603 129.9498246  78.0946240  40.0362863 130.3014837
  74.8717019  34.1085162 126.0964130  74.6741840  33.8000250 126.9807462
  75.4816724  34.8346801 126.2262060  82.8788353  44.6349110 129.2316071
  83.6091742  44.3734398 129.7923775  82.2695299  43.8977832 129.2718139
  80.9603650  42.7756973 129.8290522  80.2336814  42.6412938 129.2207014
  80.5450937  43.0833801 130.6347240  68.7833827  46.4946902 137.5937895
  69.7036836  46.6725501 137.7877942  68.7483410  45.5502948 137.4417595
  67.0838051  40.3679133 116.0692124  66.1769507  40.0712245 116.1454837
  67.3614032  40.0708951 115.2026410  58.0015992  41.6885496 126.5191170
  57.6818776  40.8350804 126.2265544  57.4549420  41.9034074 127.2749137
  61.7795899  44.4047937 130.2360677  61.9981909  45.3365045 130.2548710
  62.1921673  44.0455911 131.0215480  68.7000117  34.9116022 122.2236365
  67.8900845  34.5663107 122.5991611  69.3884534  34.6023566 122.8123977
  70.6290665  33.9894069 123.8460662  71.1821704  34.4089522 124.5050685
  70.8660752  33.0629817 123.8883618  66.6523765  39.9781143 139.6263426
  66.5520491  40.9275500 139.5575517  66.4345307  39.6499382 138.7539496
  65.8536836  37.2266068 116.2104103  66.7156000  37.5520966 116.4699920
  66.0387180  36.4397564 115.6977169  57.8704252  45.3088407 128.4884292
  57.1767723  44.8942360 127.9754246  58.6177243  45.3508944 127.8917711
  74.0069472  36.0994594 123.3539326  73.4268141  36.7579398 122.9717378
  73.7405405  35.2771939 122.9426743  72.4573039  35.4999652 125.5560646
  72.9572817  35.6116186 124.7474965  73.1008647  35.1960705 126.1961455
  66.5155035  43.4078282 138.4428487  66.0322116  44.2078642 138.6492376
  66.6015974  43.4186226 137.4895931  59.7840994  45.2406661 126.3650307
  59.7611682  45.3394348 125.4132190  60.0941631  46.0871812 126.6867473
  62.4428372  47.2982816 130.4796921  63.3971626  47.2666759 130.4126853
  62.2440896  46.8373440 131.2947147  63.0327754  45.8683932 133.0467719
  63.8520643  46.3628011 133.0702556  63.3064562  44.9515900 133.0185286
  72.7894350  38.2594685 122.4095674  71.9020205  38.5444335 122.1915869
  73.2048339  38.0988448 121.5622951  76.1408887  38.2841206 126.1250013
  76.9169277  38.7737658 126.3974630  75.4157021  38.7099260 126.5821883
  78.5781445  38.9968825 127.1823954  79.1725936  38.7564561 126.4717262
  78.6508029  38.2775955 127.8097490  60.7978601  52.8402436 127.4967119
  60.6633069  52.0802837 126.9305117  60.3810663  53.5643336 127.0295908
  71.9337564  48.0239359 116.5043694  72.6373414  48.2289362 117.1201350
  71.2100213  48.5916121 116.7692778  72.7635374  43.7749221 122.6245964
  72.7070576  44.2317772 121.7853597  73.3163717  43.0139905 122.4468807
  76.5740180  39.5638952 123.4496084  76.3177114  39.1635588 124.2804292
  75.9493048  40.2782746 123.3246223  80.8852518  42.3035026 125.9567375
  80.3252076  42.3728215 126.7298937  80.2796021  42.1276010 125.2366871
  63.9547727  53.7371753 127.7085562  63.8380111  54.6817185 127.6064252
  63.1340173  53.4345314 128.0971361  73.8424261  48.4621888 118.5542154
  74.6769865  48.0303087 118.3719629  73.6808604  48.2903902 119.4819049
  73.4970153  44.9654002 119.9198494  73.4418957  44.7998273 118.9786938
  72.8716209  45.6730035 120.0760683  58.2862668  40.2022066 133.7459916
  58.9321532  39.6921020 134.2347141  58.0779820  40.9390748 134.3203341
  70.8116061  47.2702914 139.2452056  71.6807220  47.4443566 138.8838691
  70.3322812  48.0897330 139.1227786  66.8066279  34.4662111 119.4983812
  66.7944949  35.4103951 119.6552083  67.6989701  34.2832256 119.2043273
  64.9802241  54.3900015 130.9241490  65.8829488  54.4223625 131.2407985
  64.7539611  53.4600466 130.9387826  66.7355843  53.1431001 127.5851569
  65.7851474  53.1432863 127.4715941  67.0388329  52.3963736 127.0687603
  70.6218398  31.0604887 123.7529749  69.8550794  30.5063374 123.8986431
  71.0329103  31.1326756 124.6143900  82.4708536  58.9791540 128.6497331
  83.1086946  58.8598287 127.9460671  82.3529379  59.9272384 128.7085283
  79.2798243  58.9318968 128.5858856  78.9416754  58.8160032 127.6979391
  80.1488011  58.5310133 128.5659862  75.1385058  60.7854444 124.5755747
  74.5749923  60.6944381 123.8072034  75.0237453  59.9654349 125.0558239
  79.7618026  60.0853819 134.5445061  79.7506666  59.6906618 133.6725565
  79.9238665  59.3519892 135.1378833  72.6849490  62.2805636 127.4139967
  73.4770782  61.9396460 126.9986266  72.9246140  62.3900611 128.3342120
  80.7184617  64.4525412 119.8870212  80.0672597  65.0379492 119.5004225
  81.5128980  64.9831607 119.9465249  74.6440244  61.5414549 120.2857346
  75.4171120  60.9943536 120.1470222  74.9965643  62.4058798 120.4971807
  76.4825287  62.8690931 133.4924245  76.1915153  63.7736562 133.3770911
  77.1182271  62.9107459 134.2068315  77.4081494  60.2467780 130.0825605
  78.0045066  60.0223802 129.3682568  77.4656465  59.5052525 130.6851053
  76.9806522  57.7007215 117.9175796  77.2332043  57.1788736 117.1559259
  76.0431081  57.5373360 118.0202479  82.0249805  56.7042993 125.7250539
  82.8112894  56.2862417 125.3740956  82.2888509  57.6089086 125.8932187
  82.1959882  62.1415844 120.4239196  81.5605715  62.2150470 121.1360100
  81.8657289  62.7309443 119.7458275  87.4258232  56.6418227 126.6283518
  88.1583404  56.0717443 126.8621347  86.6697588  56.2539827 127.0690023
  76.7002811  59.6035321 120.1200171  76.5839069  58.9280224 120.7881255
  76.8105071  59.1167695 119.3032324  79.0434352  59.0645468 123.8246860
  78.6792559  58.5376089 124.5359781  79.9001468  58.6743937 123.6513345
  84.9483652  50.3539801 131.0878126  84.6166977  51.2235212 130.8639341
  84.3529266  50.0376085 131.7672157  78.6839839  54.0935368 118.8208208
  78.8514241  54.9615604 119.1878680  78.4937008  54.2562650 117.8969498
  81.4415172  62.5552347 130.4874039  81.1415895  63.4577386 130.3789846
  81.0966231  62.2884530 131.3395192  74.8927653  59.0066144 126.5210743
  73.9678150  58.8742358 126.7288435  75.1412067  59.7860363 127.0180686
  84.8412316  55.0734887 128.1671476  83.9329193  55.0050295 127.8730237
  84.7899911  55.5506832 128.9953302  78.6629060  56.5493025 119.8054875
  78.5428685  56.9950076 120.6440356  77.9681648  56.8978343 119.2468413
  72.2536464  58.6499417 127.3554532  72.3828846  58.9033896 128.2693944
  71.5733916  59.2427125 127.0359187  76.4235952  69.3196667 123.4545007
  76.3459981  70.2704492 123.5333487  75.8197595  68.9742540 124.1119933
  78.9153181  56.4924532 136.1106373  78.1386515  57.0518453 136.1009238
  79.5543744  56.9781315 136.6321244  86.7073962  53.2751325 129.9449350
  86.0648342  53.5683858 129.2989145  86.2028891  53.1604246 130.7502547
  84.3614126  57.0214498 120.6335209  85.2731982  57.2541885 120.4582907
  83.8523773  57.6051543 120.0710288  77.1699554  59.3009986 135.6724340
  77.9114238  59.8395030 135.3959164  76.4636539  59.9276275 135.8295892
  82.6454893  61.4439126 134.2696502  83.0538249  61.0021537 133.5251134
  81.9232155  60.8691754 134.5230695  78.9985963  56.3811733 131.6430059
  79.8447159  56.8051147 131.7864708  78.9384601  55.7245357 132.3368622
  82.9683708  62.0040317 128.0248791  82.3392570  62.1686031 127.3224859
  82.5809370  62.4181926 128.7959755  86.8472940  62.9394755 125.3793155
  86.1623978  63.3193656 124.8290188  86.9316789  63.5490081 126.1125102
  82.1485409  54.0416101 133.3011233  81.9046341  54.7958162 132.7645508
  82.4245339  54.4201449 134.1358480  84.1023872  60.5854714 131.9788498
  84.3140767  61.2286474 131.3022879  84.0553620  59.7517030 131.5110428
  81.7050100  53.1972534 128.8825070  80.8434579  53.4953788 129.1741808
  81.7312535  53.4142933 127.9506103  78.5211670  61.7414725 125.2898876
  78.9850015  62.0202428 124.5003498  78.2568468  60.8398170 125.1071967
  75.4135751  61.2886207 128.2278639  75.9837108  61.7173475 127.5896124
  76.0043863  61.0068791 128.9262825  77.4580556  57.8637877 122.0988441
  78.1604599  58.3158921 122.5662367  77.1261184  57.2221696 122.7268334
  75.9060917  56.4549634 136.4739650  75.2759578  57.1365915 136.7075047
  75.7997005  56.3432716 135.5292789  71.2005890  56.1221430 127.4005575
  70.4104944  56.3778959 126.9245685  71.6917137  56.9369768 127.5057615
  85.2169699  63.4626669 130.1510855  86.0387143  63.0606857 129.8693537
  85.2132102  63.3594903 131.1026971  73.1520635  56.4866009 124.3589051
  72.3551799  56.5984704 124.8772547  72.9246227  56.8252662 123.4929942
  78.9826303  63.0110713 132.3071566  79.0470735  63.4731120 133.1429738
  78.2737227  62.3808077 132.4353876  69.4843593  56.3751921 129.8320565
  69.7351631  57.2598930 130.0978141  70.0203141  56.1956522 129.0595657
  93.3075693  59.8065418 126.4995827  92.5539401  59.2372816 126.3439831
  93.4423234  59.7728082 127.4466462  78.6974321  64.6778820 122.1750546
  78.5619995  65.5230356 122.6035394  79.2384133  64.8798098 121.4116480
  75.1841660  50.7570400 138.8364901  74.7908606  50.2036598 139.5112546
  76.0007801  51.0680978 139.2271419  72.1503718  62.1954258 122.7478471
  72.6628239  62.9897508 122.8984036  72.8026431  61.4980549 122.6812073
  73.9598603  65.3120014 124.8301225  74.1365231  66.2337979 124.6422208
  74.7555436  64.9978434 125.2595604  78.1009621  52.1728279 136.4285158
  78.8419335  52.7735432 136.3489621  78.3327544  51.4305917 135.8703201
  73.2450959  57.3584646 134.7063388  73.1304474  56.4569903 135.0070487
  72.3895477  57.6048343 134.3548204  80.3242797  65.3002387 136.3050888
  79.8806651  64.5138765 135.9871793  80.9860011  65.4881537 135.6394779
  75.0829918  66.8298188 130.8311567  75.6337343  66.7015251 130.0588561
  74.2441394  67.1293077 130.4806460  82.4224035  65.5805186 134.3332290
  82.4042510  66.4014067 133.8412559  83.3443955  65.4559262 134.5582431
  78.8797089  63.0949316 135.1755798  79.4125426  62.3337604 134.9455106
  78.3511170  62.8022968 135.9179952  82.0466784  48.2009382 130.7049440
  81.7031054  49.0911024 130.6288550  82.4145747  48.0111040 129.8419025
  70.1152635  60.5242912 123.5238042  70.9527857  60.9339921 123.3071750
  70.2930902  59.5842355 123.4938236  82.0117067  58.1917993 119.2121875
  81.4963690  58.9622598 119.4510262  81.7394375  57.5183129 119.8354936
  79.5964178  53.0367694 124.2707113  78.7405774  52.6474544 124.0912752
  80.0091130  53.1159655 123.4106899  81.1263325  50.5714037 128.6698673
  80.6228120  50.5344172 127.8566478  81.4193931  51.4806780 128.7295330
  77.3706210  50.6552767 127.6764855  78.2359207  50.4595575 127.3170744
  77.4383719  50.4263119 128.6034211  86.9851341  60.9450348 121.1475048
  86.2080784  60.6061507 120.7030210  87.6642822  60.9502971 120.4730013
  81.8003370  56.0645085 121.0381656  81.4953506  56.3791234 121.8891799
  82.7533812  56.1426505 121.0808989  80.2449802  62.2235308 122.6874610
  79.7171163  61.4888068 122.3747847  79.7437305  63.0009985 122.4414578
  85.2242648  60.4184329 127.8041656  84.5666322  61.1083590 127.8921785
  86.0283047  60.8080761 128.1475643  74.9768529  52.8854975 125.0481222
  75.5512281  52.6630156 124.3154414  75.5639512  52.9543669 125.8009823
  84.0348107  58.7728702 125.8545598  84.5479988  59.4058693 126.3567308
  84.6849331  58.1729897 125.4888958  75.3038117  54.9159436 119.0677107
  74.4675429  55.2534122 119.3886382  75.1642886  54.7808416 118.1304244
  77.2791197  49.7596224 123.7756291  76.6255610  49.4445241 123.1512906
  77.2371671  49.1371964 124.5016114  78.3902402  60.0415519 115.6909583
  77.4829464  59.8104772 115.8900732  78.8873434  59.2453138 115.8783565
  81.2970481  68.7513026 118.6106269  80.6232180  69.0544723 119.2191227
  81.6836303  69.5542106 118.2611726  80.5128938  56.2478157 128.1003939
  79.5951499  56.4693104 127.9425627  80.9289081  56.3224468 127.2415646
  81.2963985  57.6469573 123.2306619  82.0435804  58.1590970 122.9213741
  81.5655575  57.3253626 124.0911012  79.5690635  60.1428114 120.2133573
  78.6601855  59.8587146 120.3106043  79.5985719  60.5627192 119.3536880
  84.8009903  63.7534703 123.9824741  84.3472230  62.9125613 124.0389931
  84.1703870  64.3896101 124.3199521  83.7442822  54.6826689 125.2125408
  83.0065579  54.1704075 125.5435651  83.9969596  54.2427071 124.4008685
  83.2442842  65.5911200 124.9174559  83.5365817  66.1516257 124.1986924
  83.7541463  65.8839761 125.6727718  83.8454450  47.4602941 125.8067177
  84.1513327  46.6000305 125.5193092  84.5707055  48.0520561 125.6066171
  70.1378806  57.8633628 124.1948775  69.9403206  57.2702988 123.4699842
  69.5825470  57.5585838 124.9124714  78.1175530  57.7556734 126.3143368
  78.1724139  56.8030571 126.2385845  77.3066732  57.9116173 126.7984667
  79.2666723  61.6836857 117.5521652  78.8286153  60.9672716 117.0927289
  80.0077164  61.9112972 116.9906743  76.0567889  56.3733794 124.0733747
  75.2435755  56.6727964 124.4798939  76.5526884  55.9789483 124.7908230
  78.2076467  66.3691551 126.0068012  78.1652646  66.5952397 125.0776544
  79.1239166  66.1354925 126.1553813  81.6542101  56.8375618 132.9048641
  82.0091489  57.0647092 133.7643107  82.3014232  57.1693995 132.2825897
  87.3839838  59.9594054 123.6097970  87.2457737  60.1495650 122.6819159
  87.0276057  60.7213437 124.0666021  75.5481964  53.9452149 129.6894982
  76.1881344  53.8040909 128.9917946  74.7159495  53.6586663 129.3133584
  87.4109218  62.0270581 128.6209242  87.8445724  61.9345870 129.4692296
  88.1240798  62.0028082 127.9829258  76.3242268  63.2454580 125.8029975
  77.1182867  62.7504900 125.6012550  75.6133960  62.7172443 125.4397680
  81.1437113  65.6272675 130.1542342  81.1974135  66.1963612 130.9220058
  80.2751894  65.7974560 129.7896380  72.6325032  57.3897662 121.8789727
  71.7022620  57.3282117 122.0959690  72.7282504  56.8673614 121.0826369
  72.5510581  53.9152474 124.4667969  72.8117398  54.8297808 124.3577130
  73.3727753  53.4476917 124.6164582  74.0235506  55.3290232 131.6366794
  74.6958559  55.1207594 130.9879443  73.1965292  55.1312318 131.1972026
  88.2724767  62.0694282 131.1542127  88.4660657  62.9740092 131.4001402
  88.1725385  61.6101701 131.9880712  79.9261078  51.9552172 133.6532455
  79.2788993  52.6542122 133.5596931  80.6962093  52.3888316 134.0208703
  83.3339876  62.2201025 136.7283008  83.1825382  61.9911576 135.8113091
  83.3244555  63.1771626 136.7414353  80.1025212  59.7932937 131.7129274
  81.0317272  59.9444097 131.5398242  79.6816242  59.8816958 130.8577921
  78.9013544  63.8183602 129.4827812  78.7624630  63.4502386 130.3553750
  78.1128140  64.3331241 129.3111770  79.4961696  68.9192698 120.8253348
  79.6713452  68.4480741 121.6398971  78.8094484  69.5458464 121.0534609
  80.4518759  63.1965205 126.8716650  80.1168592  63.1565974 127.7674300
  79.9522705  62.5309920 126.3987060  74.4263003  58.6032835 132.3969231
  74.2882801  57.8713073 132.9980770  75.3367927  58.5141735 132.1153419
  83.3877951  60.5421239 117.1453709  82.7707122  59.8168067 117.0486762
  82.9194439  61.3030599 116.8020784  77.0545304  58.3152794 131.8852910
  77.7644922  57.6745986 131.8439529  77.0114612  58.5665689 132.8079091
  85.0432083  65.2520147 134.8059490  84.9844629  64.5679367 134.1390073
  85.4451601  65.9939137 134.3540116  75.7674238  55.3018012 133.7048550
  75.2311595  54.8508750 134.3570146  75.1790946  55.4363921 132.9619014
  74.0622781  72.0682061 127.5993209  74.3019380  72.7000585 128.2772227
  73.2191978  71.7170101 127.8858568  75.1776497  54.7606663 116.2675014
  74.3005963  54.6395464 115.9037260  75.6534250  53.9692741 116.0153902
  85.0449490  63.2159731 133.0373469  84.1576269  62.8785653 133.1599868
  85.6148041  62.4842762 133.2742235  66.6978637  59.5483823 126.3616521
  67.3849677  59.2345553 125.7737536  66.5426766  60.4525188 126.0883772
  71.5013359  54.4374019 130.7901544  71.4171548  53.8299689 130.0551954
  70.6796065  54.9283038 130.7911041  78.5750643  67.8761183 130.0034713
  78.5020815  68.6816155 130.5154017  78.1328036  68.0753149 129.1782734
  78.3640423  67.1132954 123.5137534  77.5807945  67.6554634 123.6075759
  79.0633168  67.6306933 123.9131775  81.6737073  52.9227583 126.1571739
  82.1705772  52.1697545 125.8372810  80.9024054  52.9591900 125.5914949
  89.5266830  58.6267949 127.7990031  89.5156707  59.5092664 127.4283964
  88.6584210  58.2739499 127.6044568  81.0349327  67.7748018 132.1592871
  81.7477299  68.4095482 132.0868773  80.5439355  67.8711884 131.3432873
  82.7566854  61.6799270 123.7310163  81.8223132  61.8000733 123.5614867
  82.9343522  60.7771737 123.4670173  78.2572042  55.0644966 125.8843424
  77.8869829  54.5116006 126.5724330  78.7531134  54.4603099 125.3318424
  86.1439405  57.5216589 124.2660197  86.6099857  58.3544581 124.1920500
  86.5946905  57.0561571 124.9705455  76.0861240  65.5242461 132.9798442
  76.7870700  66.1578944 133.1327836  75.6156355  65.8657193 132.2194081
  84.2115636  63.8660411 121.2646349  84.4875480  63.7517005 122.1740223
  83.3420135  63.4677896 121.2258522  84.1156068  49.8897176 128.3051098
  83.2019148  50.1201403 128.4733305  84.5449169  49.9735621 129.1565131
  83.8862526  58.0787068 130.8050992  83.2333976  58.3262976 130.1503445
  84.2642906  57.2651207 130.4713470  80.8469700  68.1146762 124.9079163
  81.0292095  67.2968418 125.3706915  81.6702686  68.3314454 124.4704053
  81.1811866  67.0414947 122.1694211  81.7099632  66.5307401 121.5564373
  81.4440085  66.7257477 123.0339744  79.9350099  58.8206880 137.2917029
  79.2590736  58.7201009 137.9619405  80.7577733  58.6646093 137.7553027
  71.6828958  65.0578816 129.9129545  72.2682395  64.3122504 130.0457449
  71.4853797  65.3682773 130.7966209  74.5367614  68.0930063 124.9291987
  73.8677989  68.5776191 124.4456027  74.3980483  68.3399284 125.8435366
  66.2746613  57.6284416 128.6333988  66.3130713  57.0948007 129.4271106
  65.7686906  57.1019622 128.0144965  78.6772882  70.1273807 131.5274645
  79.2291190  70.2905428 132.2923731  79.0179076  70.7178245 130.8554670
  73.6537375  52.4748957 132.1296530  73.7178702  53.3363788 131.7173928
  73.5904496  51.8622958 131.3968889  73.1289648  54.5472089 135.7769564
  73.7561687  54.1649167 136.3907089  72.2717567  54.3286291 136.1425257
  83.5283756  64.9535064 137.3823300  84.0723660  65.5665023 136.8878255
  82.9470601  65.5114643 137.8990313  69.9055191  56.3548518 121.7087919
  70.2008632  55.4459197 121.6554973  69.0043226  56.3336258 121.3868922
  81.8141269  68.0755782 128.5138328  81.6892409  67.2745522 128.0049273
  82.4720361  68.5701976 128.0252298  73.4349438  54.4304515 127.6915468
  72.7136023  55.0440483 127.5522941  74.2242693  54.9662280 127.6132114
  83.8776178  65.8764803 130.1417878  82.9306513  65.7570154 130.0696204
  84.2258951  64.9887301 130.2244139  76.2375751  51.7658941 133.9656120
  76.7610153  52.0121238 134.7282429  76.0188084  52.5978976 133.5459257
  71.6343032  54.0362616 121.8327244  71.3055738  53.1559995 121.6502350
  71.9882403  53.9810285 122.7203634  80.8822611  65.6717519 126.3422230
  80.7347574  64.7434226 126.5229800  81.7076105  65.6937609 125.8579305
  74.7484855  54.3235586 122.2002722  75.0880928  54.8521507 121.4781330
  75.1956976  54.6615992 122.9761289  84.4856733  66.4946078 127.4287103
  85.4103280  66.2888939 127.2911554  84.3172036  66.2462479 128.3376444
  77.4428296  52.7072637 131.6505790  77.1025117  51.9080450 132.0526470
  76.7367302  53.0074347 131.0782623  78.0944768  49.7921949 130.1033113
  78.9170837  49.3182427 129.9812003  78.3382832  50.5712433 130.6031799
  76.7353003  52.8210207 120.3996015  77.4561365  53.1991460 119.8959732
  76.1118307  53.5399084 120.5030993  80.8784125  53.5255356 121.3354347
  81.0947740  54.4079994 121.0343175  80.3978193  53.1341570 120.6059989
  75.6183347  56.4841070 127.9125092  75.4727928  56.7981373 128.8049373
  75.1408550  57.1025970 127.3595990  77.4779730  53.4743618 127.9605981
  77.4641298  52.5784711 127.6238279  78.1952158  53.4814281 128.5944267
  79.3305860  53.9080958 130.0059109  79.0723638  54.8298028 130.0043439
  78.7990901  53.5111392 130.6959573  84.2752049  67.0131745 122.7849194
  84.4488927  66.4478167 122.0323047  84.7680940  67.8132640 122.6028684
  70.0929009  59.0246414 130.8512753  69.5482477  59.8006222 130.9833027
  70.9708359  59.3717219 130.6931874  76.8816626  52.3557998 123.2293551
  77.0032537  51.4274644 123.4284439  76.5918668  52.3696684 122.3171867
  79.7507816  50.0412908 126.3660271  79.7729513  50.1052241 125.4112251
  80.1675875  49.2017417 126.5600777  90.1291440  59.7768168 124.4039494
  90.5722586  59.0275493 124.0058617  89.2517951  59.7678304 124.0213226
  85.2627222  66.3298509 119.8846092  85.9578126  66.9505202 120.1033407
  85.6050372  65.4793861 120.1598470  70.8795031  58.1516310 133.7442910
  70.1376767  58.2998946 134.3307540  70.5587775  58.4124576 132.8809659
  87.1618645  63.7798215 121.4133423  87.6869969  64.1185488 120.6882743
  87.0740997  62.8445230 121.2296558  78.8238693  67.6932289 133.5423300
  79.1325820  67.4481435 134.4145999  79.6214175  67.8978927 133.0542170
  78.8459306  69.8470198 125.7728676  78.4064296  69.3546577 126.4661533
  79.5967422  69.3043166 125.5320752  71.3251644  66.0381739 125.7753304
  72.1509664  65.7385511 125.3951948  70.9745696  65.2689361 126.2243093
  76.2933178  65.3908207 127.8450978  75.6713187  64.7278912 127.5453206
  76.9638045  65.4169339 127.1624626  69.5260250  63.9568065 126.7342238
  68.6892158  63.5290240 126.5526239  69.4983895  64.1500509 127.6713029
  76.3657705  53.8689995 137.4383484  76.4145861  54.7452118 137.0561254
  76.9080219  53.3267388 136.8655127  86.8512551  64.4131119 136.7184621
  86.0608095  64.3955257 136.1789121  86.6145905  64.9519412 137.4733658
  86.9710426  61.2623585 134.0317350  87.0208431  61.0973592 134.9732872
  86.8624349  60.3950844 133.6415230  75.8546685  63.9412131 121.3209439
  76.0034805  64.6247595 120.6676111  76.6613128  63.9217221 121.8358894
  84.2614188  57.2454513 135.3476656  85.1624051  57.1060978 135.0560654
  84.3362163  57.4108968 136.2874834  78.5956994  54.6221368 134.1929843
  77.7260303  54.9154934 133.9212431  78.8316474  55.2061813 134.9137106
  88.4728623  63.6820526 134.2759371  88.1813431  64.0450507 135.1122832
  87.8600754  62.9687535 134.0972703  89.6724305  61.2473406 126.7961941
  90.5071196  61.6863210 126.9599502  89.8083434  60.7712059 125.9770187
  86.7215811  58.8053141 132.7439429  87.1969933  58.9980787 131.9358281
  85.7981376  58.8612327 132.4982813  73.6099318  59.9677308 122.3270507
  73.3645359  59.0639638 122.5250718  73.7795232  59.9694459 121.3849985
  81.2996027  50.8400985 131.7095263  81.8177971  51.5762012 131.3841752
  80.9451160  51.1464978 132.5442022  72.8794965  55.7005666 119.8256669
  72.1864210  55.7750021 119.1696705  72.6346717  54.9366009 120.3478186
  81.5508622  47.2601267 127.2296160  81.8310375  46.5924456 127.8556586
  82.3359229  47.4530363 126.7170824  79.3542090  66.4360261 118.7921186
  78.7816057  67.0550448 118.3391658  79.9274884  66.9859623 119.3261108
  85.4217480  55.6818901 130.9767735  86.3734903  55.7816999 130.9979959
  85.2520930  54.8897170 131.4865819  83.4431859  52.7674484 131.1627136
  82.8481792  53.0479497 130.4673624  83.1581556  53.2568385 131.9343877
  82.5739350  66.7197411 119.9229768  83.5070023  66.6542973 120.1262644
  82.4862563  67.5553678 119.4644301  85.2027367  66.0363282 116.8833716
  85.1240998  65.7023145 117.7769474  86.0237033  66.5285049 116.8825188
  87.9005558  58.9025021 130.0910034  87.8681878  57.9641022 130.2769718
  88.5106181  58.9809058 129.3575859  79.7388889  57.7721074 116.1337238
  80.6847993  57.6427282 116.2025657  79.3603134  57.0335736 116.6106667
  88.0500046  55.6936064 130.1368318  87.5339095  54.9094521 129.9498246
  88.9339995  55.3654781 130.3014837  85.7110773  49.4377080 126.0964130
  85.5135594  49.1292168 126.9807462  86.3210479  50.1638719 126.2262060
  93.7182108  59.9641028 129.2316071  94.4485496  59.7026316 129.7923775
  93.1089053  59.2269750 129.2718139  91.7997405  58.1048890 129.8290522
  91.0730568  57.9704855 129.2207014  91.3844692  58.4125719 130.6347240
  79.6227581  61.8238820 137.5937895  80.5430591  62.0017419 137.7877942
  79.5877164  60.8794865 137.4417595  77.9231806  55.6971050 116.0692124
  77.0163261  55.4004163 116.1454837  78.2007787  55.4000868 115.2026410
  68.8409746  57.0177414 126.5191170  68.5212530  56.1642722 126.2265544
  68.2943174  57.2325992 127.2749137  72.6189654  59.7339855 130.2360677
  72.8375663  60.6656962 130.2548710  73.0315428  59.3747829 131.0215480
  79.5393871  50.2407940 122.2236365  78.7294600  49.8955025 122.5991611
  80.2278288  49.9315484 122.8123977  81.4684420  49.3185987 123.8460662
  82.0215458  49.7381440 124.5050685  81.7054506  48.3921735 123.8883618
  77.4917519  55.3073060 139.6263426  77.3914246  56.2567417 139.5575517
  77.2739061  54.9791299 138.7539496  76.6930590  52.5557985 116.2104103
  77.5549754  52.8812884 116.4699920  76.8780935  51.7689481 115.6977169
  68.7098006  60.6380325 128.4884292  68.0161478  60.2234278 127.9754246
  69.4570997  60.6800862 127.8917711  84.8463227  51.4286512 123.3539326
  84.2661896  52.0871316 122.9717378  84.5799160  50.6063856 122.9426743
  83.2966793  50.8291570 125.5560646  83.7966572  50.9408104 124.7474965
  83.9402401  50.5252622 126.1961455  77.3548789  58.7370199 138.4428487
  76.8715871  59.5370559 138.6492376  77.4409728  58.7478144 137.4895931
  70.6234749  60.5698579 126.3650307  70.6005437  60.6686266 125.4132190
  70.9335385  61.4163730 126.6867473  73.2822127  62.6274734 130.4796921
  74.2365380  62.5958676 130.4126853  73.0834650  62.1665358 131.2947147
  73.8721509  61.1975850 133.0467719  74.6914398  61.6919929 133.0702556
  74.1458316  60.2807818 133.0185286  83.6288105  53.5886602 122.4095674
  82.7413960  53.8736253 122.1915869  84.0442094  53.4280366 121.5622951
  86.9802641  53.6133123 126.1250013  87.7563031  54.1029576 126.3974630
  86.2550775  54.0391177 126.5821883  89.4175200  54.3260742 127.1823954
  90.0119690  54.0856478 126.4717262  89.4901783  53.6067873 127.8097490
  71.6372355  68.1694353 127.4967119  71.5026823  67.4094754 126.9305117
  71.2204418  68.8935253 127.0295908  82.7731318  63.3531277 116.5043694
  83.4767168  63.5581279 117.1201350  82.0493967  63.9208039 116.7692778
  83.6029129  59.1041138 122.6245964  83.5464330  59.5609690 121.7853597
  84.1557471  58.3431823 122.4468807  87.4133935  54.8930870 123.4496084
  87.1570869  54.4927506 124.2804292  86.7886803  55.6074664 123.3246223
  91.7246272  57.6326943 125.9567375  91.1645830  57.7020133 126.7298937
  91.1189776  57.4567928 125.2366871  74.7941481  69.0663670 127.7085562
  74.6773865  70.0109103 127.6064252  73.9733927  68.7637232 128.0971361
  84.6818016  63.7913806 118.5542154  85.5163620  63.3595005 118.3719629
  84.5202359  63.6195820 119.4819049  84.3363908  60.2945919 119.9198494
  84.2812712  60.1290191 118.9786938  83.7109963  61.0021952 120.0760683
  69.1256423  55.5313984 133.7459916  69.7715287  55.0212938 134.2347141
  68.9173574  56.2682665 134.3203341  81.6509815  62.5994831 139.2452056
  82.5200975  62.7735484 138.8838691  81.1716567  63.4189248 139.1227786
  77.6460033  49.7954028 119.4983812  77.6338703  50.7395868 119.6552083
  78.5383455  49.6124174 119.2043273  75.8195995  69.7191932 130.9241490
  76.7223242  69.7515543 131.2407985  75.5933365  68.7892383 130.9387826
  77.5749597  68.4722919 127.5851569  76.6245228  68.4724780 127.4715941
  77.8782083  67.7255653 127.0687603  81.4612153  46.3896805 123.7529749
  80.6944549  45.8355292 123.8986431  81.8722858  46.4618674 124.6143900
  73.4653914  52.6781601 137.8434930  74.3285375  52.3218406 138.0538255
  72.8919325  52.3395496 138.5310334  93.3102291  74.3083457 128.6497331
  93.9480701  74.1890205 127.9460671  93.1923134  75.2564301 128.7085283
  90.1191997  74.2610885 128.5858856  89.7810509  74.1451950 127.6979391
  90.9881765  73.8602050 128.5659862  85.9778813  76.1146362 124.5755747
  85.4143678  76.0236299 123.8072034  85.8631208  75.2946266 125.0558239
  90.6011780  75.4145737 134.5445061  90.5900421  75.0198535 133.6725565
  90.7632420  74.6811810 135.1378833  83.5243245  77.6097553 127.4139967
  84.3164537  77.2688378 126.9986266  83.7639895  77.7192528 128.3342120
  91.5578372  79.7817329 119.8870212  90.9066351  80.3671410 119.5004225
  92.3522734  80.3123524 119.9465249  85.4833999  76.8706467 120.2857346
  86.2564875  76.3235454 120.1470222  85.8359398  77.7350716 120.4971807
  87.3219041  78.1982849 133.4924245  87.0308907  79.1028480 133.3770911
  87.9576026  78.2399376 134.2068315  88.2475248  75.5759697 130.0825605
  88.8438820  75.3515720 129.3682568  88.3050220  74.8344443 130.6851053
  87.8200277  73.0299133 117.9175796  88.0725797  72.5080654 117.1559259
  86.8824836  72.8665278 118.0202479  92.8643559  72.0334911 125.7250539
  93.6506649  71.6154334 125.3740956  93.1282264  72.9381003 125.8932187
  93.0353637  77.4707761 120.4239196  92.3999470  77.5442388 121.1360100
  92.7051043  78.0601360 119.7458275  98.2651986  71.9710144 126.6283518
  98.9977158  71.4009361 126.8621347  97.5091342  71.5831745 127.0690023
  87.5396565  74.9327239 120.1200171  87.4232823  74.2572142 120.7881255
  87.6498825  74.4459613 119.3032324  89.8828106  74.3937386 123.8246860
  89.5186313  73.8668007 124.5359781  90.7395222  74.0035855 123.6513345
  95.7877407  65.6831718 131.0878126  95.4560732  66.5527129 130.8639341
  95.1923020  65.3668002 131.7672157  89.5233593  69.4227285 118.8208208
  89.6907996  70.2907522 119.1878680  89.3330762  69.5854567 117.8969498
  92.2808926  77.8844264 130.4874039  91.9809649  78.7869303 130.3789846
  91.9359986  77.6176448 131.3395192  85.7321408  74.3358061 126.5210743
  84.8071904  74.2034275 126.7288435  85.9805821  75.1152280 127.0180686
  95.6806070  70.4026805 128.1671476  94.7722947  70.3342213 127.8730237
  95.6293666  70.8798750 128.9953302  89.5022814  71.8784943 119.8054875
  89.3822439  72.3241994 120.6440356  88.8075402  72.2270261 119.2468413
  83.0930219  73.9791335 127.3554532  83.2222600  74.2325814 128.2693944
  82.4127670  74.5719043 127.0359187  87.2629706  84.6488585 123.4545007
  87.1853736  85.5996410 123.5333487  86.6591350  84.3034457 124.1119933
  89.7546936  71.8216450 136.1106373  88.9780270  72.3810370 136.1009238
  90.3937499  72.3073233 136.6321244  97.5467717  68.6043243 129.9449350
  96.9042097  68.8975776 129.2989145  97.0422645  68.4896163 130.7502547
  95.2007880  72.3506416 120.6335209  96.1125736  72.5833803 120.4582907
  94.6917527  72.9343460 120.0710288  88.0093308  74.6301904 135.6724340
  88.7507993  75.1686947 135.3959164  87.3030294  75.2568192 135.8295892
  93.4848648  76.7731044 134.2696502  93.8932004  76.3313455 133.5251134
  92.7625909  76.1983672 134.5230695  89.8379718  71.7103651 131.6430059
  90.6840913  72.1343064 131.7864708  89.7778356  71.0537275 132.3368622
  93.8077462  77.3332235 128.0248791  93.1786325  77.4977949 127.3224859
  93.4203125  77.7473844 128.7959755  97.6866694  78.2686672 125.3793155
  97.0017733  78.6485574 124.8290188  97.7710544  78.8781999 126.1125102
  92.9879163  69.3708019 133.3011233  92.7440095  70.1250080 132.7645508
  93.2639094  69.7493367 134.1358480  94.9417626  75.9146631 131.9788498
  95.1534521  76.5578391 131.3022879  94.8947374  75.0808948 131.5110428
  92.5443855  68.5264452 128.8825070  91.6828334  68.8245706 129.1741808
  92.5706290  68.7434851 127.9506103  89.3605424  77.0706643 125.2898876
  89.8243770  77.3494346 124.5003498  89.0962222  76.1690087 125.1071967
  86.2529505  76.6178124 128.2278639  86.8230862  77.0465393 127.5896124
  86.8437617  76.3360709 128.9262825  88.2974310  73.1929795 122.0988441
  88.9998354  73.6450839 122.5662367  87.9654939  72.5513614 122.7268334
  86.7454672  71.7841552 136.4739650  86.1153333  72.4657833 136.7075047
  86.6390760  71.6724633 135.5292789  82.0399644  71.4513348 127.4005575
  81.2498698  71.7070876 126.9245685  82.5310892  72.2661686 127.5057615
  96.0563454  78.7918587 130.1510855  96.8780898  78.3898774 129.8693537
  96.0525857  78.6886821 131.1026971  83.9914390  71.8157927 124.3589051
  83.1945553  71.9276621 124.8772547  83.7639982  72.1544579 123.4929942
  89.8220057  78.3402630 132.3071566  89.8864490  78.8023037 133.1429738
  89.1130981  77.7099995 132.4353876  80.3237347  71.7043838 129.8320565
  80.5745386  72.5890848 130.0978141  80.8596896  71.5248440 129.0595657
 104.1469447  75.1357335 126.4995827 103.3933155  74.5664733 126.3439831
 104.2816988  75.1020000 127.4466462  89.5368075  80.0070738 122.1750546
  89.4013750  80.8522273 122.6035394  90.0777888  80.2090015 121.4116480
  86.0235415  66.0862318 138.8364901  85.6302360  65.5328516 139.5112546
  86.8401555  66.3972896 139.2271419  82.9897472  77.5246176 122.7478471
  83.5021993  78.3189426 122.8984036  83.6420185  76.8272466 122.6812073
  84.7992357  80.6411932 124.8301225  84.9758985  81.5629897 124.6422208
  85.5949191  80.3270351 125.2595604  88.9403376  67.5020197 136.4285158
  89.6813089  68.1027350 136.3489621  89.1721298  66.7597834 135.8703201
  84.0844714  72.6876564 134.7063388  83.9698229  71.7861821 135.0070487
  83.2289231  72.9340261 134.3548204  91.1636551  80.6294304 136.3050888
  90.7200406  79.8430683 135.9871793  91.8253765  80.8173455 135.6394779
  85.9223673  82.1590106 130.8311567  86.4731098  82.0307169 130.0588561
  85.0835149  82.4584995 130.4806460  93.2617789  80.9097104 134.3332290
  93.2436265  81.7305985 133.8412559  94.1837710  80.7851179 134.5582431
  89.7190844  78.4241234 135.1755798  90.2519180  77.6629522 134.9455106
  89.1904925  78.1314885 135.9179952  92.8860539  63.5301300 130.7049440
  92.5424808  64.4202941 130.6288550  93.2539501  63.3402957 129.8419025
  80.9546389  75.8534830 123.5238042  81.7921611  76.2631838 123.3071750
  81.1324657  74.9134272 123.4938236  92.8510821  73.5209911 119.2121875
  92.3357445  74.2914515 119.4510262  92.5788130  72.8475047 119.8354936
  90.4357932  68.3659611 124.2707113  89.5799529  67.9766462 124.0912752
  90.8484884  68.4451572 123.4106899  91.9657079  65.9005955 128.6698673
  91.4621875  65.8636090 127.8566478  92.2587686  66.8098697 128.7295330
  88.2099965  65.9844684 127.6764855  89.0752962  65.7887493 127.3170744
  88.2777474  65.7555036 128.6034211  97.8245095  76.2742265 121.1475048
  97.0474538  75.9353425 120.7030210  98.5036576  76.2794888 120.4730013
  92.6397125  71.3937003 121.0381656  92.3347260  71.7083152 121.8891799
  93.5927567  71.4718423 121.0808989  91.0843556  77.5527226 122.6874610
  90.5564918  76.8179986 122.3747847  90.5831059  78.3301902 122.4414578
  96.0636402  75.7476247 127.8041656  95.4060077  76.4375508 127.8921785
  96.8676802  76.1372679 128.1475643  85.8162284  68.2146892 125.0481222
  86.3906036  67.9922074 124.3154414  86.4033266  68.2835587 125.8009823
  94.8741861  74.1020619 125.8545598  95.3873743  74.7350611 126.3567308
  95.5243085  73.5021815 125.4888958  86.1431871  70.2451353 119.0677107
  85.3069183  70.5826040 119.3886382  86.0036641  70.1100333 118.1304244
  88.1184952  65.0888141 123.7756291  87.4649364  64.7737158 123.1512906
  88.0765426  64.4663882 124.5016114  89.2296157  75.3707436 115.6909583
  88.3223218  75.1396690 115.8900732  89.7267189  74.5745056 115.8783565
  92.1364235  84.0804944 118.6106269  91.4625934  84.3836640 119.2191227
  92.5230057  84.8834024 118.2611726  91.3522692  71.5770075 128.1003939
  90.4345253  71.7985022 127.9425627  91.7682836  71.6516385 127.2415646
  92.1357740  72.9761491 123.2306619  92.8829559  73.4882888 122.9213741
  92.4049329  72.6545543 124.0911012  90.4084390  75.4720031 120.2133573
  89.4995609  75.1879064 120.3106043  90.4379474  75.8919110 119.3536880
  95.6403657  79.0826621 123.9824741  95.1865984  78.2417531 124.0389931
  95.0097624  79.7188019 124.3199521  94.5836577  70.0118607 125.2125408
  93.8459334  69.4995993 125.5435651  94.8363350  69.5718988 124.4008685
  94.0836597  80.9203117 124.9174559  94.3759571  81.4808175 124.1986924
  94.5935217  81.2131678 125.6727718  94.6848204  62.7894859 125.8067177
  94.9907081  61.9292222 125.5193092  95.4100809  63.3812479 125.6066171
  80.9772560  73.1925545 124.1948775  80.7796960  72.5994906 123.4699842
  80.4219224  72.8877756 124.9124714  88.9569284  73.0848652 126.3143368
  89.0117894  72.1322488 126.2385845  88.1460486  73.2408091 126.7984667
  90.1060478  77.0128775 117.5521652  89.6679908  76.2964634 117.0927289
  90.8470919  77.2404890 116.9906743  86.8961644  71.7025712 124.0733747
  86.0829509  72.0019882 124.4798939  87.3920638  71.3081400 124.7908230
  89.0470222  81.6983469 126.0068012  89.0046401  81.9244315 125.0776544
  89.9632921  81.4646843 126.1553813  92.4935856  72.1667536 132.9048641
  92.8485243  72.3939009 133.7643107  93.1407987  72.4985913 132.2825897
  98.2233593  75.2885972 123.6097970  98.0851491  75.4787568 122.6819159
  97.8669811  76.0505355 124.0666021  86.3875719  69.2744067 129.6894982
  87.0275098  69.1332826 128.9917946  85.5553249  68.9878580 129.3133584
  98.2502972  77.3562499 128.6209242  98.6839479  77.2637788 129.4692296
  98.9634553  77.3319999 127.9829258  87.1636023  78.5746498 125.8029975
  87.9576621  78.0796818 125.6012550  86.4527715  78.0464361 125.4397680
  91.9830867  80.9564593 130.1542342  92.0367889  81.5255529 130.9220058
  91.1145648  81.1266478 129.7896380  83.4718786  72.7189579 121.8789727
  82.5416374  72.6574035 122.0959690  83.5676258  72.1965532 121.0826369
  83.3904335  69.2444392 124.4667969  83.6511152  70.1589725 124.3577130
  84.2121507  68.7768835 124.6164582  84.8629260  70.6582149 131.6366794
  85.5352314  70.4499511 130.9879443  84.0359047  70.4604235 131.1972026
  99.1118522  77.3986200 131.1542127  99.3054412  78.3032010 131.4001402
  99.0119140  76.9393619 131.9880712  90.7654832  67.2844090 133.6532455
  90.1182747  67.9834040 133.5596931  91.5355848  67.7180234 134.0208703
  94.1733630  77.5492942 136.7283008  94.0219137  77.3203494 135.8113091
  94.1638310  78.5063544 136.7414353  90.9418967  75.1224855 131.7129274
  91.8711027  75.2736015 131.5398242  90.5209997  75.2108876 130.8577921
  89.7407299  79.1475520 129.4827812  89.6018384  78.7794304 130.3553750
  88.9521895  79.6623159 129.3111770  90.3355451  84.2484616 120.8253348
  90.5107206  83.7772659 121.6398971  89.6488239  84.8750382 121.0534609
  91.2912514  78.5257122 126.8716650  90.9562346  78.4857892 127.7674300
  90.7916459  77.8601838 126.3987060  85.2656758  73.9324752 132.3969231
  85.1276556  73.2004991 132.9980770  86.1761681  73.8433652 132.1153419
  94.2271705  75.8713157 117.1453709  93.6100876  75.1459985 117.0486762
  93.7588194  76.6322517 116.8020784  87.8939058  73.6444712 131.8852910
  88.6038677  73.0037904 131.8439529  87.8508367  73.8957606 132.8079091
  95.8825837  80.5812065 134.8059490  95.8238383  79.8971285 134.1390073
  96.2845355  81.3231055 134.3540116  86.6067992  70.6309929 133.7048550
  86.0705349  70.1800668 134.3570146  86.0184701  70.7655838 132.9619014
  84.9016536  87.3973979 127.5993209  85.1413134  88.0292503 128.2772227
  84.0585732  87.0462019 127.8858568  86.0170251  70.0898581 116.2675014
  85.1399718  69.9687382 115.9037260  86.4928004  69.2984659 116.0153902
  95.8843244  78.5451649 133.0373469  94.9970023  78.2077571 133.1599868
  96.4541795  77.8134680 133.2742235  77.5372391  74.8775741 126.3616521
  78.2243431  74.5637471 125.7737536  77.3820520  75.7817105 126.0883772
  82.3407114  69.7665937 130.7901544  82.2565302  69.1591607 130.0551954
  81.5189820  70.2574955 130.7911041  89.4144398  83.2053101 130.0034713
  89.3414569  84.0108073 130.5154017  88.9721791  83.4045067 129.1782734
  89.2034177  82.4424871 123.5137534  88.4201699  82.9846551 123.6075759
  89.9026923  82.9598851 123.9131775  92.5130827  68.2519501 126.1571739
  93.0099527  67.4989463 125.8372810  91.7417809  68.2883817 125.5914949
 100.3660585  73.9559866 127.7990031 100.3550461  74.8384582 127.4283964
  99.4977964  73.6031417 127.6044568  91.8743081  83.1039935 132.1592871
  92.5871053  83.7387400 132.0868773  91.3833110  83.2003801 131.3432873
  93.5960608  77.0091188 123.7310163  92.6616887  77.1292650 123.5614867
  93.7737277  76.1063655 123.4670173  89.0965796  70.3936884 125.8843424
  88.7263584  69.8407924 126.5724330  89.5924889  69.7895017 125.3318424
  96.9833159  72.8508507 124.2660197  97.4493612  73.6836499 124.1920500
  97.4340660  72.3853489 124.9705455  86.9254995  80.8534379 132.9798442
  87.6264454  81.4870862 133.1327836  86.4550110  81.1949110 132.2194081
  95.0509391  79.1952328 121.2646349  95.3269234  79.0808923 122.1740223
  94.1813889  78.7969813 121.2258522  94.9549822  65.2189094 128.3051098
  94.0412902  65.4493321 128.4733305  95.3842924  65.3027538 129.1565131
  94.7256281  73.4078986 130.8050992  94.0727731  73.6554894 130.1503445
  95.1036661  72.5943124 130.4713470  91.6863455  83.4438679 124.9079163
  91.8685849  82.6260335 125.3706915  92.5096441  83.6606372 124.4704053
  92.0205620  82.3706864 122.1694211  92.5493387  81.8599319 121.5564373
  92.2833840  82.0549395 123.0339744  90.7743854  74.1498797 137.2917029
  90.0984491  74.0492927 137.9619405  91.5971488  73.9938011 137.7553027
  82.5222713  80.3870734 129.9129545  83.1076150  79.6414422 130.0457449
  82.3247551  80.6974690 130.7966209  85.3761368  83.4221981 124.9291987
  84.7071743  83.9068109 124.4456027  85.2374238  83.6691202 125.8435366
  77.1140368  72.9576334 128.6333988  77.1524467  72.4239925 129.4271106
  76.6080660  72.4311539 128.0144965  89.5166637  85.4565725 131.5274645
  90.0684945  85.6197346 132.2923731  89.8572830  86.0470162 130.8554670
  84.4931130  67.8040874 132.1296530  84.5572456  68.6655705 131.7173928
  84.4298250  67.1914876 131.3968889  83.9683402  69.8764007 135.7769564
  84.5955441  69.4941084 136.3907089  83.1111321  69.6578209 136.1425257
  94.3677511  80.2826982 137.3823300  94.9117415  80.8956940 136.8878255
  93.7864356  80.8406561 137.8990313  80.7448945  71.6840436 121.7087919
  81.0402386  70.7751114 121.6554973  79.8436981  71.6628176 121.3868922
  92.6535024  83.4047700 128.5138328  92.5286163  82.6037440 128.0049273
  93.3114115  83.8993894 128.0252298  84.2743192  69.7596433 127.6915468
  83.5529778  70.3732400 127.5522941  85.0636448  70.2954197 127.6132114
  94.7169932  81.2056720 130.1417878  93.7700268  81.0862071 130.0696204
  95.0652705  80.3179218 130.2244139  87.0769506  67.0950859 133.9656120
  87.6003907  67.3413156 134.7282429  86.8581839  67.9270894 133.5459257
  82.4736787  69.3654534 121.8327244  82.1449493  68.4851913 121.6502350
  82.8276157  69.3102202 122.7203634  91.7216366  81.0009436 126.3422230
  91.5741328  80.0726144 126.5229800  92.5469859  81.0229527 125.8579305
  85.5878610  69.6527504 122.2002722  85.9274682  70.1813425 121.4781330
  86.0350730  69.9907910 122.9761289  95.3250487  81.8237995 127.4287103
  96.2497035  81.6180857 127.2911554  95.1565791  81.5754396 128.3376444
  88.2822051  68.0364554 131.6505790  87.9418871  67.2372367 132.0526470
  87.5761057  68.3366265 131.0782623  88.9338523  65.1213867 130.1033113
  89.7564592  64.6474345 129.9812003  89.1776586  65.9004350 130.6031799
  87.5746757  68.1502125 120.3996015  88.2955120  68.5283378 119.8959732
  86.9512061  68.8691002 120.5030993  91.7177880  68.8547274 121.3354347
  91.9341494  69.7371912 121.0343175  91.2371947  68.4633488 120.6059989
  86.4577101  71.8132987 127.9125092  86.3121682  72.1273290 128.8049373
  85.9802305  72.4317888 127.3595990  88.3173484  68.8035535 127.9605981
  88.3035053  67.9076629 127.6238279  89.0345912  68.8106199 128.5944267
  90.1699615  69.2372876 130.0059109  89.9117393  70.1589946 130.0043439
  89.6384655  68.8403310 130.6959573  95.1145804  82.3423663 122.7849194
  95.2882681  81.7770085 122.0323047  95.6074695  83.1424558 122.6028684
  80.9322763  74.3538332 130.8512753  80.3876232  75.1298140 130.9833027
  81.8102113  74.7009136 130.6931874  87.7210380  67.6849916 123.2293551
  87.8426291  66.7566562 123.4284439  87.4312422  67.6988602 122.3171867
  90.5901570  65.3704826 126.3660271  90.6123267  65.4344159 125.4112251
  91.0069629  64.5309335 126.5600777 100.9685195  75.1060086 124.4039494
 101.4116341  74.3567411 124.0058617 100.0911705  75.0970222 124.0213226
  96.1020976  81.6590427 119.8846092  96.7971881  82.2797120 120.1033407
  96.4444126  80.8085778 120.1598470  81.7188785  73.4808228 133.7442910
  80.9770521  73.6290863 134.3307540  81.3981530  73.7416494 132.8809659
  98.0012399  79.1090133 121.4133423  98.5263723  79.4477405 120.6882743
  97.9134752  78.1737148 121.2296558  89.6632448  83.0224206 133.5423300
  89.9719574  82.7773353 134.4145999  90.4607930  83.2270845 133.0542170
  89.6853060  85.1762116 125.7728676  89.2458050  84.6838495 126.4661533
  90.4361177  84.6335084 125.5320752  82.1645399  81.3673657 125.7753304
  82.9903419  81.0677429 125.3951948  81.8139451  80.5981279 126.2243093
  87.1326932  80.7200125 127.8450978  86.5106941  80.0570830 127.5453206
  87.8031799  80.7461257 127.1624626  80.3654004  79.2859983 126.7342238
  79.5285912  78.8582158 126.5526239  80.3377649  79.4792427 127.6713029
  87.2051460  69.1981913 137.4383484  87.2539615  70.0744036 137.0561254
  87.7473974  68.6559306 136.8655127  97.6906305  79.7423036 136.7184621
  96.9001849  79.7247175 136.1789121  97.4539660  80.2811330 137.4733658
  97.8104180  76.5915503 134.0317350  97.8602185  76.4265510 134.9732872
  97.7018104  75.7242762 133.6415230  86.6940439  79.2704048 121.3209439
  86.8428559  79.9539513 120.6676111  87.5006883  79.2509138 121.8358894
  95.1007943  72.5746431 135.3476656  96.0017806  72.4352895 135.0560654
  95.1755917  72.7400885 136.2874834  89.4350748  69.9513285 134.1929843
  88.5654057  70.2446851 133.9212431  89.6710228  70.5353730 134.9137106
  99.3122377  79.0112444 134.2759371  99.0207186  79.3742425 135.1122832
  98.6994508  78.2979452 134.0972703 100.5118060  76.5765324 126.7961941
 101.3464951  77.0155128 126.9599502 100.6477188  76.1003977 125.9770187
  97.5609565  74.1345059 132.7439429  98.0363687  74.3272705 131.9358281
  96.6375131  74.1904245 132.4982813  84.4493072  75.2969226 122.3270507
  84.2039114  74.3931556 122.5250718  84.6188987  75.2986376 121.3849985
  92.1389782  66.1692902 131.7095263  92.6571726  66.9053929 131.3841752
  91.7844915  66.4756896 132.5442022  83.7188720  71.0297583 119.8256669
  83.0257965  71.1041938 119.1696705  83.4740471  70.2657927 120.3478186
  92.3902376  62.5893185 127.2296160  92.6704130  61.9216374 127.8556586
  93.1752983  62.7822280 126.7170824  90.1935845  81.7652179 118.7921186
  89.6209812  82.3842366 118.3391658  90.7668638  82.3151540 119.3261108
  96.2611234  71.0110819 130.9767735  97.2128657  71.1108916 130.9979959
  96.0914685  70.2189087 131.4865819  94.2825614  68.0966402 131.1627136
  93.6875546  68.3771415 130.4673624  93.9975311  68.5860303 131.9343877
  93.4133104  82.0489329 119.9229768  94.3463778  81.9834891 120.1262644
  93.3256317  82.8845596 119.4644301  96.0421121  81.3655199 116.8833716
  95.9634753  81.0315063 117.7769474  96.8630788  81.8576967 116.8825188
  98.7399312  74.2316939 130.0910034  98.7075632  73.2932939 130.2769718
  99.3499936  74.3100975 129.3575859  90.5782643  73.1012991 116.1337238
  91.5241748  72.9719200 116.2025657  90.1996888  72.3627653 116.6106667
  98.8893801  71.0227982 130.1368318  98.3732849  70.2386439 129.9498246
  99.7733749  70.6946699 130.3014837  96.5504528  64.7668998 126.0964130
  96.3529349  64.4584086 126.9807462  97.1604233  65.4930636 126.2262060
 104.5575862  75.2932945 129.2316071 105.2879251  75.0318233 129.7923775
 103.9482808  74.5561667 129.2718139 102.6391159  73.4340808 129.8290522
 101.9124323  73.2996773 129.2207014 102.2238446  73.7417637 130.6347240
  90.4621336  77.1530738 137.5937895  91.3824345  77.3309337 137.7877942
  90.4270919  76.2086783 137.4417595  88.7625560  71.0262968 116.0692124
  87.8557016  70.7296081 116.1454837  89.0401541  70.7292786 115.2026410
  79.6803501  72.3469331 126.5191170  79.3606285  71.4934639 126.2265544
  79.1336929  72.5617909 127.2749137  83.4583408  75.0631772 130.2360677
  83.6769418  75.9948880 130.2548710  83.8709182  74.7039747 131.0215480
  90.3787626  65.5699858 122.2236365  89.5688354  65.2246943 122.5991611
  91.0672043  65.2607401 122.8123977  92.3078174  64.6477904 123.8460662
  92.8609213  65.0673358 124.5050685  92.5448261  63.7213653 123.8883618
  88.3311273  70.6364978 139.6263426  88.2308000  71.5859335 139.5575517
  88.1132816  70.3083217 138.7539496  87.5324345  67.8849903 116.2104103
  88.3943509  68.2104801 116.4699920  87.7174689  67.0981399 115.6977169
  79.5491761  75.9672243 128.4884292  78.8555232  75.5526196 127.9754246
  80.2964752  76.0092779 127.8917711  95.6856981  66.7578430 123.3539326
  95.1055650  67.4163234 122.9717378  95.4192914  65.9355774 122.9426743
  94.1360548  66.1583487 125.5560646  94.6360326  66.2700022 124.7474965
  94.7796156  65.8544540 126.1961455  88.1942544  74.0662117 138.4428487
  87.7109625  74.8662477 138.6492376  88.2803483  74.0770062 137.4895931
  81.4628503  75.8990497 126.3650307  81.4399191  75.9978184 125.4132190
  81.7729140  76.7455647 126.6867473  84.1215881  77.9566652 130.4796921
  85.0759135  77.9250594 130.4126853  83.9228405  77.4957275 131.2947147
  84.7115263  76.5267768 133.0467719  85.5308152  77.0211846 133.0702556
  84.9852071  75.6099736 133.0185286  94.4681859  68.9178520 122.4095674
  93.5807714  69.2028171 122.1915869  94.8835848  68.7572283 121.5622951
  97.8196396  68.9425041 126.1250013  98.5956786  69.4321493 126.3974630
  97.0944530  69.3683095 126.5821883 100.2568954  69.6552660 127.1823954
 100.8513445  69.4148396 126.4717262 100.3295538  68.9359791 127.8097490
  82.4766110  83.4986271 127.4967119  82.3420578  82.7386672 126.9305117
  82.0598172  84.2227171 127.0295908  93.6125073  78.6823195 116.5043694
  94.3160923  78.8873197 117.1201350  92.8887722  79.2499957 116.7692778
  94.4422883  74.4333056 122.6245964  94.3858085  74.8901607 121.7853597
  94.9951226  73.6723740 122.4468807  98.2527689  70.2222788 123.4496084
  97.9964623  69.8219423 124.2804292  97.6280557  70.9366582 123.3246223
 102.5640027  72.9618861 125.9567375 102.0039585  73.0312050 126.7298937
 101.9583530  72.7859846 125.2366871  85.6335236  84.3955588 127.7085562
  85.5167620  85.3401021 127.6064252  84.8127682  84.0929150 128.0971361
  95.5211770  79.1205724 118.5542154  96.3557374  78.6886922 118.3719629
  95.3596113  78.9487737 119.4819049  95.1757662  75.6237837 119.9198494
  95.1206466  75.4582109 118.9786938  94.5503718  76.3313870 120.0760683
  79.9650177  70.8605901 133.7459916  80.6109041  70.3504855 134.2347141
  79.7567329  71.5974583 134.3203341  92.4903570  77.9286749 139.2452056
  93.3594729  78.1027401 138.8838691  92.0110321  78.7481166 139.1227786
  88.4853788  65.1245946 119.4983812  88.4732458  66.0687786 119.6552083
  89.3777210  64.9416092 119.2043273  86.6589750  85.0483850 130.9241490
  87.5616997  85.0807460 131.2407985  86.4327120  84.1184301 130.9387826
  88.4143352  83.8014837 127.5851569  87.4638983  83.8016698 127.4715941
  88.7175838  83.0547571 127.0687603  92.3005907  61.7188723 123.7529749
  91.5338303  61.1647209 123.8986431  92.7116612  61.7910592 124.6143900
  84.3047668  68.0073519 137.8434930  85.1679130  67.6510323 138.0538255
  83.7313079  67.6687413 138.5310334 104.1496045  89.6375375 128.6497331
 104.7874455  89.5182122 127.9460671 104.0316888  90.5856219 128.7085283
 100.9585752  89.5902803 128.5858856 100.6204263  89.4743868 127.6979391
 101.8275520  89.1893968 128.5659862  96.8172567  91.4438279 124.5755747
  96.2537432  91.3528216 123.8072034  96.7024962  90.6238184 125.0558239
 101.4405535  90.7437655 134.5445061 101.4294175  90.3490453 133.6725565
 101.6026174  90.0103727 135.1378833  94.3636999  92.9389471 127.4139967
  95.1558291  92.5980296 126.9986266  94.6033649  93.0484446 128.3342120
  96.3227753  92.1998384 120.2857346  97.0958629  91.6527371 120.1470222
  96.6753152  93.0642634 120.4971807  98.1612796  93.5274767 133.4924245
  97.8702662  94.4320397 133.3770911  98.7969780  93.5691294 134.2068315
  99.0869003  90.9051615 130.0825605  99.6832575  90.6807637 129.3682568
  99.1443974  90.1636361 130.6851053  98.6594031  88.3591050 117.9175796
  98.9119552  87.8372572 117.1559259  97.7218590  88.1957196 118.0202479
 103.7037314  87.3626829 125.7250539 104.4900403  86.9446252 125.3740956
 103.9676018  88.2672921 125.8932187 109.1045741  87.3002062 126.6283518
 109.8370913  86.7301279 126.8621347 108.3485097  86.9123662 127.0690023
  98.3790320  90.2619156 120.1200171  98.2626578  89.5864060 120.7881255
  98.4892580  89.7751530 119.3032324 100.7221861  89.7229303 123.8246860
 100.3580068  89.1959924 124.5359781 101.5788977  89.3327773 123.6513345
 106.6271161  81.0123636 131.0878126 106.2954486  81.8819047 130.8639341
 106.0316775  80.6959920 131.7672157 100.3627348  84.7519203 118.8208208
 100.5301750  85.6199440 119.1878680 100.1724517  84.9146485 117.8969498
 103.1202681  93.2136182 130.4874039 102.8203404  94.1161221 130.3789846
 102.7753740  92.9468365 131.3395192  96.5715162  89.6649979 126.5210743
  95.6465659  89.5326193 126.7288435  96.8199576  90.4444198 127.0180686
 106.5199825  85.7318722 128.1671476 105.6116702  85.6634131 127.8730237
 106.4687420  86.2090667 128.9953302 100.3416569  87.2076861 119.8054875
 100.2216194  87.6533911 120.6440356  99.6469157  87.5562178 119.2468413
  93.9323973  89.3083252 127.3554532  94.0616355  89.5617731 128.2693944
  93.2521425  89.9010960 127.0359187  98.1023461  99.9780502 123.4545007
  98.0247490 100.9288327 123.5333487  97.4985104  99.6326375 124.1119933
 100.5940690  87.1508368 136.1106373  99.8174024  87.7102288 136.1009238
 101.2331253  87.6365151 136.6321244 108.3861471  83.9335161 129.9449350
 107.7435851  84.2267694 129.2989145 107.8816400  83.8188081 130.7502547
 106.0401635  87.6798334 120.6335209 106.9519491  87.9125721 120.4582907
 105.5311282  88.2635378 120.0710288  98.8487063  89.9593821 135.6724340
  99.5901747  90.4978865 135.3959164  98.1424048  90.5860110 135.8295892
 104.3242402  92.1022962 134.2696502 104.7325758  91.6605372 133.5251134
 103.6019664  91.5275589 134.5230695 100.6773472  87.0395568 131.6430059
 101.5234668  87.4634982 131.7864708 100.6172110  86.3829193 132.3368622
 104.6471217  92.6624152 128.0248791 104.0180079  92.8269866 127.3224859
 104.2596879  93.0765762 128.7959755 108.5260449  93.5978590 125.3793155
 107.8411487  93.9777491 124.8290188 108.6104298  94.2073917 126.1125102
 103.8272918  84.6999937 133.3011233 103.5833850  85.4541997 132.7645508
 104.1032848  85.0785284 134.1358480 105.7811380  91.2438549 131.9788498
 105.9928276  91.8870309 131.3022879 105.7341129  90.4100866 131.5110428
 103.3837609  83.8556370 128.8825070 102.5222088  84.1537623 129.1741808
 103.4100044  84.0726769 127.9506103 100.1999179  92.3998560 125.2898876
 100.6637524  92.6786263 124.5003498  99.9355977  91.4982005 125.1071967
  97.0923260  91.9470042 128.2278639  97.6624617  92.3757310 127.5896124
  97.6831372  91.6652627 128.9262825  99.1368065  88.5221713 122.0988441
  99.8392108  88.9742756 122.5662367  98.8048693  87.8805532 122.7268334
  97.5848426  87.1133469 136.4739650  96.9547087  87.7949750 136.7075047
  97.4784514  87.0016551 135.5292789  92.8793399  86.7805265 127.4005575
  92.0892453  87.0362794 126.9245685  93.3704646  87.5953603 127.5057615
 106.8957208  94.1210505 130.1510855 107.7174652  93.7190692 129.8693537
 106.8919611  94.0178739 131.1026971  94.8308144  87.1449845 124.3589051
  94.0339308  87.2568539 124.8772547  94.6033736  87.4836497 123.4929942
 100.6613812  93.6694548 132.3071566 100.7258244  94.1314955 133.1429738
  99.9524736  93.0391913 132.4353876  91.1631102  87.0335756 129.8320565
  91.4139140  87.9182766 130.0978141  91.6990650  86.8540357 129.0595657
 114.9863201  90.4649253 126.4995827 114.2326910  89.8956651 126.3439831
 115.1210743  90.4311918 127.4466462 100.3761830  95.3362655 122.1750546
 100.2407504  96.1814191 122.6035394 100.9171642  95.5381933 121.4116480
  96.8629169  81.4154235 138.8364901  96.4696115  80.8620434 139.5112546
  97.6795309  81.7264814 139.2271419  93.8291227  92.8538093 122.7478471
  94.3415747  93.6481344 122.8984036  94.4813940  92.1564384 122.6812073
  95.6386112  95.9703850 124.8301225  95.8152740  96.8921814 124.6422208
  96.4342945  95.6562269 125.2595604  99.7797130  82.8312114 136.4285158
 100.5206844  83.4319267 136.3489621 100.0115053  82.0889752 135.8703201
  94.9238468  88.0168482 134.7063388  94.8091983  87.1153739 135.0070487
  94.0682986  88.2632178 134.3548204 102.0030306  95.9586222 136.3050888
 101.5594160  95.1722600 135.9871793 102.6647519  96.1465372 135.6394779
  96.7617427  97.4882023 130.8311567  97.3124852  97.3599087 130.0588561
  95.9228903  97.7876912 130.4806460 104.1011544  96.2389022 134.3332290
 104.0830019  97.0597903 133.8412559 105.0231464  96.1143097 134.5582431
 100.5584598  93.7533151 135.1755798 101.0912935  92.9921439 134.9455106
 100.0298679  93.4606803 135.9179952 103.7254293  78.8593217 130.7049440
 103.3818562  79.7494859 130.6288550 104.0933256  78.6694875 129.8419025
  91.7940144  91.1826748 123.5238042  92.6315366  91.5923756 123.3071750
  91.9718411  90.2426190 123.4938236 103.6904576  88.8501828 119.2121875
 103.1751199  89.6206433 119.4510262 103.4181884  88.1766965 119.8354936
 101.2751687  83.6951529 124.2707113 100.4193283  83.3058380 124.0912752
 101.6878639  83.7743490 123.4106899 102.8050833  81.2297872 128.6698673
 102.3015629  81.1928008 127.8566478 103.0981440  82.1390615 128.7295330
  99.0493719  81.3136602 127.6764855  99.9146716  81.1179411 127.3170744
  99.1171228  81.0846954 128.6034211 108.6638850  91.6034183 121.1475048
 107.8868293  91.2645342 120.7030210 109.3430331  91.6086806 120.4730013
 103.4790879  86.7228920 121.0381656 103.1741015  87.0375070 121.8891799
 104.4321321  86.8010340 121.0808989 101.9237311  92.8819144 122.6874610
 101.3958672  92.1471903 122.3747847 101.4224814  93.6593820 122.4414578
 106.9030157  91.0768164 127.8041656 106.2453831  91.7667426 127.8921785
 107.7070556  91.4664596 128.1475643  96.6556038  83.5438810 125.0481222
  97.2299790  83.3213992 124.3154414  97.2427021  83.6127505 125.8009823
 105.7135616  89.4312537 125.8545598 106.2267497  90.0642529 126.3567308
 106.3636840  88.8313732 125.4888958  96.9825626  85.5743271 119.0677107
  96.1462938  85.9117958 119.3886382  96.8430395  85.4392251 118.1304244
  98.9578706  80.4180059 123.7756291  98.3043119  80.1029076 123.1512906
  98.9159180  79.7955799 124.5016114 102.9757990  99.4096861 118.6106269
 102.3019689  99.7128558 119.2191227 103.3623812 100.2125942 118.2611726
 102.1916447  86.9061992 128.1003939 101.2739008  87.1276940 127.9425627
 102.6076590  86.9808303 127.2415646 102.9751494  88.3053408 123.2306619
 103.7223313  88.8174805 122.9213741 103.2443084  87.9837461 124.0911012
 101.2478144  90.8011949 120.2133573 100.3389364  90.5170982 120.3106043
 101.2773228  91.2211027 119.3536880 106.4797412  94.4118538 123.9824741
 106.0259739  93.5709448 124.0389931 105.8491379  95.0479937 124.3199521
 105.4230331  85.3410524 125.2125408 104.6853088  84.8287911 125.5435651
 105.6757105  84.9010906 124.4008685 104.9230351  96.2495035 124.9174559
 105.2153325  96.8100092 124.1986924 105.4328972  96.5423596 125.6727718
 105.5241959  78.1186776 125.8067177 105.8300836  77.2584140 125.5193092
 106.2494564  78.7104397 125.6066171  91.8166315  88.5217463 124.1948775
  91.6190715  87.9286824 123.4699842  91.2612979  88.2169673 124.9124714
  99.7963038  88.4140570 126.3143368  99.8511648  87.4614406 126.2385845
  98.9854241  88.5700009 126.7984667  97.7355398  87.0317629 124.0733747
  96.9223264  87.3311800 124.4798939  98.2314393  86.6373318 124.7908230
  99.8863976  97.0275386 126.0068012  99.8440155  97.2536232 125.0776544
 100.8026675  96.7938761 126.1553813 103.3329610  87.4959454 132.9048641
 103.6878998  87.7230927 133.7643107 103.9801741  87.8277831 132.2825897
 109.0627347  90.6177890 123.6097970 108.9245246  90.8079486 122.6819159
 108.7063566  91.3797272 124.0666021  97.2269473  84.6035985 129.6894982
  97.8668853  84.4624744 128.9917946  96.3947004  84.3170498 129.3133584
 109.0896727  92.6854417 128.6209242 109.5233233  92.5929706 129.4692296
 109.8028307  92.6611917 127.9829258  98.0029777  93.9038415 125.8029975
  98.7970376  93.4088735 125.6012550  97.2921469  93.3756278 125.4397680
 102.8224622  96.2856511 130.1542342 102.8761644  96.8547447 130.9220058
 101.9539403  96.4558396 129.7896380  94.3112541  88.0481497 121.8789727
  93.3810129  87.9865952 122.0959690  94.4070013  87.5257450 121.0826369
  94.2298090  84.5736310 124.4667969  94.4904907  85.4881643 124.3577130
  95.0515262  84.1060752 124.6164582  95.7023015  85.9874067 131.6366794
  96.3746068  85.7791429 130.9879443  94.8752801  85.7896153 131.1972026
 109.9512276  92.7278117 131.1542127 110.1448166  93.6323928 131.4001402
 109.8512894  92.2685536 131.9880712 101.6048587  82.6136008 133.6532455
 100.9576502  83.3125958 133.5596931 102.3749602  83.0472152 134.0208703
 105.0127385  92.8784860 136.7283008 104.8612891  92.6495412 135.8113091
 105.0032064  93.8355461 136.7414353 101.7812721  90.4516773 131.7129274
 102.7104781  90.6027932 131.5398242 101.3603751  90.5400794 130.8577921
 100.5801053  94.4767437 129.4827812 100.4412139  94.1086222 130.3553750
  99.7915649  94.9915077 129.3111770 101.1749205  99.5776534 120.8253348
 101.3500961  99.1064577 121.6398971 100.4881993 100.2042300 121.0534609
 102.1306268  93.8549040 126.8716650 101.7956101  93.8149810 127.7674300
 101.6310214  93.1893756 126.3987060  96.1050512  89.2616670 132.3969231
  95.9670310  88.5296909 132.9980770  97.0155436  89.1725570 132.1153419
  98.7332813  88.9736629 131.8852910  99.4432431  88.3329821 131.8439529
  98.6902121  89.2249524 132.8079091 106.7219592  95.9103983 134.8059490
 106.6632138  95.2263203 134.1390073 107.1239110  96.6522973 134.3540116
  97.4461747  85.9601847 133.7048550  96.9099104  85.5092586 134.3570146
  96.8578455  86.0947756 132.9619014  95.7410290 102.7265896 127.5993209
  95.9806889 103.3584421 128.2772227  94.8979487 102.3753936 127.8858568
  96.8564006  85.4190499 116.2675014  95.9793472  85.2979299 115.9037260
  97.3321759  84.6276577 116.0153902 106.7236999  93.8743567 133.0373469
 105.8363778  93.5369488 133.1599868 107.2935550  93.1426598 133.2742235
  88.3766146  90.2067658 126.3616521  89.0637186  89.8929388 125.7737536
  88.2214275  91.1109023 126.0883772  93.1800868  85.0957855 130.7901544
  93.0959057  84.4883524 130.0551954  92.3583574  85.5866873 130.7911041
 100.2538152  98.5345019 130.0034713 100.1808324  99.3399990 130.5154017
  99.8115545  98.7336985 129.1782734 100.0427932  97.7716789 123.5137534
  99.2595454  98.3138469 123.6075759 100.7420677  98.2890769 123.9131775
 103.3524582  83.5811418 126.1571739 103.8493281  82.8281381 125.8372810
 102.5811563  83.6175735 125.5914949 111.2054339  89.2851784 127.7990031
 111.1944216  90.1676499 127.4283964 110.3371719  88.9323335 127.6044568
 102.7136836  98.4331853 132.1592871 103.4264808  99.0679318 132.0868773
 102.2226864  98.5295719 131.3432873 104.4354363  92.3383106 123.7310163
 103.5010641  92.4584568 123.5614867 104.6131031  91.4355572 123.4670173
  99.9359551  85.7228801 125.8843424  99.5657338  85.1699842 126.5724330
 100.4318643  85.1186935 125.3318424 107.8226914  88.1800425 124.2660197
 108.2887366  89.0128416 124.1920500 108.2734414  87.7145406 124.9705455
  97.7648749  96.1826296 132.9798442  98.4658209  96.8162779 133.1327836
  97.2943864  96.5241028 132.2194081 105.8903145  94.5244246 121.2646349
 106.1662989  94.4100841 122.1740223 105.0207644  94.1261731 121.2258522
 105.7943577  80.5481012 128.3051098 104.8806657  80.7785239 128.4733305
 106.2236678  80.6319456 129.1565131 105.5650035  88.7370904 130.8050992
 104.9121485  88.9846811 130.1503445 105.9430415  87.9235042 130.4713470
 102.5257209  98.7730597 124.9079163 102.7079604  97.9552253 125.3706915
 103.3490195  98.9898289 124.4704053 102.8599375  97.6998782 122.1694211
 103.3887141  97.1891237 121.5564373 103.1227594  97.3841312 123.0339744
 101.6137608  89.4790715 137.2917029 100.9378245  89.3784844 137.9619405
 102.4365242  89.3229929 137.7553027  93.3616467  95.7162651 129.9129545
  93.9469904  94.9706339 130.0457449  93.1641306  96.0266608 130.7966209
  96.2155123  98.7513899 124.9291987  95.5465498  99.2360026 124.4456027
  96.0767992  98.9983119 125.8435366  87.9534122  88.2868252 128.6333988
  87.9918222  87.7531842 129.4271106  87.4474415  87.7603457 128.0144965
 100.3560391 100.7857642 131.5274645 100.9078699 100.9489264 132.2923731
 100.6966585 101.3762080 130.8554670  95.3324884  83.1332792 132.1296530
  95.3966211  83.9947623 131.7173928  95.2692005  82.5206794 131.3968889
  94.8077157  85.2055925 135.7769564  95.4349196  84.8233002 136.3907089
  93.9505076  84.9870127 136.1425257 105.2071265  95.6118900 137.3823300
 105.7511169  96.2248858 136.8878255 104.6258110  96.1698478 137.8990313
  91.5842700  87.0132354 121.7087919  91.8796141  86.1043032 121.6554973
  90.6830735  86.9920093 121.3868922 103.4928778  98.7339618 128.5138328
 103.3679918  97.9329358 128.0049273 104.1507870  99.2285811 128.0252298
  95.1136947  85.0888350 127.6915468  94.3923532  85.7024318 127.5522941
  95.9030202  85.6246115 127.6132114 105.5563687  96.5348638 130.1417878
 104.6094022  96.4153989 130.0696204 105.9046460  95.6471136 130.2244139
  97.9163260  82.4242777 133.9656120  98.4397662  82.6705073 134.7282429
  97.6975593  83.2562812 133.5459257  93.3130541  84.6946451 121.8327244
  92.9843247  83.8143830 121.6502350  93.6669912  84.6394120 122.7203634
 102.5610120  96.3301354 126.3422230 102.4135083  95.4018062 126.5229800
 103.3863614  96.3521445 125.8579305  96.4272364  84.9819421 122.2002722
  96.7668437  85.5105342 121.4781330  96.8744485  85.3199827 122.9761289
 106.1644242  97.1529913 127.4287103 107.0890789  96.9472774 127.2911554
 105.9959545  96.9046314 128.3376444  99.1215805  83.3656472 131.6505790
  98.7812626  82.5664285 132.0526470  98.4154811  83.6658183 131.0782623
  99.7732277  80.4505784 130.1033113 100.5958346  79.9766263 129.9812003
 100.0170341  81.2296268 130.6031799  98.4140512  83.4794043 120.3996015
  99.1348874  83.8575296 119.8959732  97.7905816  84.1982920 120.5030993
 102.5571634  84.1839192 121.3354347 102.7735249  85.0663830 121.0343175
 102.0765702  83.7925405 120.6059989  97.2970856  87.1424905 127.9125092
  97.1515436  87.4565208 128.8049373  96.8196059  87.7609805 127.3595990
  99.1567239  84.1327453 127.9605981  99.1428807  83.2368546 127.6238279
  99.8739667  84.1398117 128.5944267 101.0093369  84.5664793 130.0059109
 100.7511147  85.4881864 130.0043439 100.4778410  84.1695228 130.6959573
 105.9539558  97.6715580 122.7849194 106.1276436  97.1062003 122.0323047
 106.4468449  98.4716475 122.6028684  91.7716518  89.6830249 130.8512753
  91.2269986  90.4590057 130.9833027  92.6495868  90.0301054 130.6931874
  98.5604135  83.0141833 123.2293551  98.6820046  82.0858479 123.4284439
  98.2706177  83.0280519 122.3171867 101.4295325  80.6996744 126.3660271
 101.4517022  80.7636077 125.4112251 101.8463384  79.8601252 126.5600777
 111.8078949  90.4352003 124.4039494 112.2510095  89.6859328 124.0058617
 110.9305460  90.4262140 124.0213226 106.9414731  96.9882345 119.8846092
 107.6365635  97.6089037 120.1033407 107.2837881  96.1377696 120.1598470
  92.5582540  88.8100146 133.7442910  91.8164276  88.9582781 134.3307540
  92.2375284  89.0708411 132.8809659 108.8406154  94.4382050 121.4133423
 109.3657478  94.7769323 120.6882743 108.7528506  93.5029066 121.2296558
 100.5026202  98.3516124 133.5423300 100.8113329  98.1065271 134.4145999
 101.3001684  98.5562762 133.0542170 100.5246814 100.5054034 125.7728676
 100.0851805 100.0130412 126.4661533 101.2754931  99.9627001 125.5320752
  93.0039153  96.6965574 125.7753304  93.8297173  96.3969346 125.3951948
  92.6533205  95.9273197 126.2243093  97.9720687  96.0492043 127.8450978
  97.3500696  95.3862748 127.5453206  98.6425554  96.0753175 127.1624626
  91.2047759  94.6151901 126.7342238  90.3679667  94.1874075 126.5526239
  91.1771404  94.8084344 127.6713029  98.0445214  84.5273831 137.4383484
  98.0933370  85.4035953 137.0561254  98.5867728  83.9851224 136.8655127
 108.5300060  95.0714954 136.7184621 107.7395604  95.0539093 136.1789121
 108.2933414  95.6103248 137.4733658 108.6497935  91.9207420 134.0317350
 108.6995940  91.7557428 134.9732872 108.5411858  91.0534679 133.6415230
  97.5334194  94.5995966 121.3209439  97.6822314  95.2831430 120.6676111
  98.3400637  94.5801056 121.8358894 105.9401697  87.9038348 135.3476656
 106.8411560  87.7644813 135.0560654 106.0149672  88.0692803 136.2874834
 100.2744503  85.2805203 134.1929843  99.4047812  85.5738769 133.9212431
 100.5103983  85.8645648 134.9137106 110.1516132  94.3404362 134.2759371
 109.8600940  94.7034342 135.1122832 109.5388263  93.6271370 134.0972703
 111.3511814  91.9057242 126.7961941 112.1858705  92.3447046 126.9599502
 111.4870943  91.4295895 125.9770187 108.4003320  89.4636976 132.7439429
 108.8757442  89.6564623 131.9358281 107.4768885  89.5196162 132.4982813
  95.2886827  90.6261144 122.3270507  95.0432868  89.7223474 122.5250718
  95.4582741  90.6278294 121.3849985 102.9783536  81.4984820 131.7095263
 103.4965480  82.2345847 131.3841752 102.6238669  81.8048813 132.5442022
  94.5582474  86.3589501 119.8256669  93.8651719  86.4333856 119.1696705
  94.3134226  85.5949845 120.3478186 103.2296131  77.9185103 127.2296160
 103.5097884  77.2508292 127.8556586 104.0146738  78.1114198 126.7170824
 101.0329599  97.0944096 118.7921186 100.4603566  97.7134284 118.3391658
 101.6062393  97.6443458 119.3261108 107.1004989  86.3402736 130.9767735
 108.0522412  86.4400834 130.9979959 106.9308439  85.5481005 131.4865819
 105.1219368  83.4258320 131.1627136 104.5269301  83.7063332 130.4673624
 104.8369065  83.9152221 131.9343877 104.2526859  97.3781247 119.9229768
 105.1857532  97.3126808 120.1262644 104.1650072  98.2137513 119.4644301
 106.8814876  96.6947117 116.8833716 106.8028507  96.3606980 117.7769474
 107.7024542  97.1868885 116.8825188 109.5793067  89.5608856 130.0910034
 109.5469387  88.6224857 130.2769718 110.1893690  89.6392893 129.3575859
 109.7287555  86.3519900 130.1368318 109.2126604  85.5678356 129.9498246
 110.6127504  86.0238616 130.3014837 107.3898282  80.0960915 126.0964130
 107.1923103  79.7876003 126.9807462 107.9997988  80.8222554 126.2262060
 115.3969617  90.6224863 129.2316071 116.1273005  90.3610151 129.7923775
 114.7876562  89.8853585 129.2718139 113.4784914  88.7632726 129.8290522
 112.7518077  88.6288691 129.2207014 113.0632201  89.0709554 130.6347240
 101.3015090  92.4822655 137.5937895 102.2218100  92.6601254 137.7877942
 101.2664673  91.5378701 137.4417595  99.6019315  86.3554886 116.0692124
  98.6950770  86.0587998 116.1454837  99.8795296  86.0584704 115.2026410
  90.5197255  87.6761249 126.5191170  90.2000039  86.8226557 126.2265544
  89.9730683  87.8909827 127.2749137  94.2977163  90.3923690 130.2360677
  94.5163172  91.3240798 130.2548710  94.7102936  90.0331664 131.0215480
 101.2181380  80.8991775 122.2236365 100.4082109  80.5538860 122.5991611
 101.9065797  80.5899319 122.8123977 103.1471929  79.9769822 123.8460662
 103.7002967  80.3965275 124.5050685 103.3842015  79.0505570 123.8883618
  99.1705028  85.9656896 139.6263426  99.0701755  86.9151253 139.5575517
  98.9526570  85.6375135 138.7539496  98.3718099  83.2141821 116.2104103
  99.2337263  83.5396719 116.4699920  98.5568444  82.4273317 115.6977169
  90.3885515  91.2964160 128.4884292  89.6948987  90.8818113 127.9754246
  91.1358506  91.3384697 127.8917711 106.5250736  82.0870347 123.3539326
 105.9449405  82.7455151 122.9717378 106.2586669  81.2647692 122.9426743
 104.9754302  81.4875405 125.5560646 105.4754081  81.5991939 124.7474965
 105.6189910  81.1836458 126.1961455  99.0336298  89.3954035 138.4428487
  98.5503380  90.1954395 138.6492376  99.1197237  89.4061979 137.4895931
  92.3022258  91.2282414 126.3650307  92.2792946  91.3270102 125.4132190
  92.6122894  92.0747565 126.6867473  94.9609636  93.2858569 130.4796921
  95.9152889  93.2542512 130.4126853  94.7622159  92.8249193 131.2947147
  95.5509018  91.8559685 133.0467719  96.3701907  92.3503764 133.0702556
  95.8245825  90.9391653 133.0185286 105.3075614  84.2470438 122.4095674
 104.4201469  84.5320088 122.1915869 105.7229603  84.0864201 121.5622951
 108.6590150  84.2716959 126.1250013 109.4350540  84.7613411 126.3974630
 107.9338284  84.6975013 126.5821883 111.0962709  84.9844578 127.1823954
 111.6907199  84.7440314 126.4717262 111.1689292  84.2651708 127.8097490
  93.3159864  98.8278189 127.4967119  93.1814332  98.0678590 126.9305117
  92.8991927  99.5519089 127.0295908 105.2816638  89.7624974 122.6245964
 105.2251839  90.2193525 121.7853597 105.8344980  89.0015658 122.4468807
 109.0921444  85.5514705 123.4496084 108.8358378  85.1511341 124.2804292
 108.4674312  86.2658499 123.3246223 113.4033781  88.2910779 125.9567375
 112.8433339  88.3603968 126.7298937 112.7977285  88.1151763 125.2366871
  96.4728990  99.7247506 127.7085562  96.3561374 100.6692938 127.6064252
  95.6521436  99.4221067 128.0971361 106.0151417  90.9529755 119.9198494
 105.9600221  90.7874026 118.9786938 105.3897472  91.6605788 120.0760683
  90.8043932  86.1897819 133.7459916  91.4502795  85.6796773 134.2347141
  90.5961083  86.9266501 134.3203341 103.3297324  93.2578667 139.2452056
 104.1988484  93.4319319 138.8838691 102.8504076  94.0773083 139.1227786
  99.3247542  80.4537864 119.4983812  99.3126212  81.3979704 119.6552083
 100.2170964  80.2708009 119.2043273  97.4983504 100.3775768 130.9241490
  98.4010751 100.4099378 131.2407985  97.2720874  99.4476219 130.9387826
  99.2537106  99.1306754 127.5851569  98.3032737  99.1308616 127.4715941
  99.5569592  98.3839489 127.0687603 103.1399662  77.0480640 123.7529749
 102.3732058  76.4939127 123.8986431 103.5510367  77.1202509 124.6143900
  95.1441423  83.3365436 137.8434930  96.0072884  82.9802241 138.0538255
  94.5706834  82.9979331 138.5310334 114.9889800 104.9667293 128.6497331
 115.6268210 104.8474040 127.9460671 114.8710643 105.9148137 128.7085283
 111.7979506 104.9194721 128.5858856 111.4598018 104.8035785 127.6979391
 112.6669274 104.5185886 128.5659862 107.6566322 106.7730197 124.5755747
 107.0931187 106.6820134 123.8072034 107.5418717 105.9530102 125.0558239
 105.2030754 108.2681389 127.4139967 105.9952046 107.9272213 126.9986266
 105.4427404 108.3776364 128.3342120 113.2365881 110.4401165 119.8870212
 112.5853860 111.0255245 119.5004225 114.0310243 110.9707360 119.9465249
 107.1621508 107.5290302 120.2857346 107.9352384 106.9819289 120.1470222
 107.5146907 108.3934551 120.4971807 109.9262757 106.2343533 130.0825605
 110.5226329 106.0099555 129.3682568 109.9837729 105.4928278 130.6851053
 109.4987785 103.6882968 117.9175796 109.7513306 103.1664489 117.1559259
 108.5612345 103.5249114 118.0202479 114.5431068 102.6918746 125.7250539
 115.3294158 102.2738170 125.3740956 114.8069773 103.5964839 125.8932187
 114.7141146 108.1291597 120.4239196 114.0786979 108.2026223 121.1360100
 114.3838552 108.7185196 119.7458275 119.9439495 102.6293980 126.6283518
 120.6764667 102.0593196 126.8621347 119.1878851 102.2415580 127.0690023
 109.2184074 105.5911074 120.1200171 109.1020332 104.9155977 120.7881255
 109.3286334 105.1043448 119.3032324 111.5615615 105.0521221 123.8246860
 111.1973822 104.5251842 124.5359781 112.4182731 104.6619690 123.6513345
 117.4664916  96.3415554 131.0878126 117.1348241  97.2110965 130.8639341
 116.8710529  96.0251838 131.7672157 111.2021102 100.0811121 118.8208208
 111.3695504 100.9491357 119.1878680 111.0118271 100.2438403 117.8969498
 107.4108917 104.9941897 126.5210743 106.4859413 104.8618111 126.7288435
 107.6593330 105.7736116 127.0180686 117.3593579 101.0610640 128.1671476
 116.4510456 100.9926048 127.8730237 117.3081175 101.5382585 128.9953302
 111.1810323 102.5368778 119.8054875 111.0609948 102.9825829 120.6440356
 110.4862911 102.8854096 119.2468413 104.7717728 104.6375170 127.3554532
 104.9010109 104.8909649 128.2693944 104.0915179 105.2302878 127.0359187
 108.9417215 115.3072420 123.4545007 108.8641245 116.2580245 123.5333487
 108.3378859 114.9618293 124.1119933 119.2255226  99.2627078 129.9449350
 118.5829606  99.5559611 129.2989145 118.7210154  99.1479999 130.7502547
 116.8795389 103.0090252 120.6335209 117.7913245 103.2417638 120.4582907
 116.3705036 103.5927296 120.0710288 111.5167227 102.3687486 131.6430059
 112.3628422 102.7926900 131.7864708 111.4565865 101.7121110 132.3368622
 114.2231364  99.1848287 128.8825070 113.3615843  99.4829541 129.1741808
 114.2493799  99.4018686 127.9506103 111.0392933 107.7290478 125.2898876
 111.5031279 108.0078181 124.5003498 110.7749731 106.8273923 125.1071967
 107.9317014 107.2761960 128.2278639 108.5018371 107.7049228 127.5896124
 108.5225126 106.9944544 128.9262825 109.9761819 103.8513630 122.0988441
 110.6785863 104.3034674 122.5662367 109.6442448 103.2097449 122.7268334
 103.7187153 102.1097183 127.4005575 102.9286207 102.3654712 126.9245685
 104.2098401 102.9245521 127.5057615 105.6701899 102.4741762 124.3589051
 104.8733062 102.5860457 124.8772547 105.4427491 102.8128415 123.4929942
 102.0024856 102.3627674 129.8320565 102.2532895 103.2474683 130.0978141
 102.5384405 102.1832275 129.0595657 111.2155584 110.6654573 122.1750546
 111.0801259 111.5106109 122.6035394 111.7565397 110.8673851 121.4116480
 104.6684981 108.1830011 122.7478471 105.1809502 108.9773261 122.8984036
 105.3207694 107.4856302 122.6812073 106.4779866 111.2995767 124.8301225
 106.6546494 112.2213732 124.6422208 107.2736700 110.9854187 125.2595604
 105.7632223 103.3460399 134.7063388 105.6485738 102.4445656 135.0070487
 104.9076740 103.5924096 134.3548204 114.5648048  94.1885135 130.7049440
 114.2212317  95.0786777 130.6288550 114.9327010  93.9986793 129.8419025
 102.6333898 106.5118665 123.5238042 103.4709120 106.9215674 123.3071750
 102.8112166 105.5718108 123.4938236 114.5298330 104.1793746 119.2121875
 114.0144954 104.9498351 119.4510262 114.2575639 103.5058882 119.8354936
 112.1145441  99.0243447 124.2707113 111.2587038  98.6350297 124.0912752
 112.5272393  99.1035408 123.4106899 113.6444588  96.5589790 128.6698673
 113.1409384  96.5219925 127.8566478 113.9375195  97.4682533 128.7295330
 109.8887474  96.6428520 127.6764855 110.7540471  96.4471328 127.3170744
 109.9564983  96.4138872 128.6034211 119.5032604 106.9326101 121.1475048
 118.7262047 106.5937260 120.7030210 120.1824085 106.9378724 120.4730013
 114.3184633 102.0520838 121.0381656 114.0134769 102.3666987 121.8891799
 115.2715076 102.1302258 121.0808989 112.7631065 108.2111061 122.6874610
 112.2352427 107.4763821 122.3747847 112.2618568 108.9885738 122.4414578
 107.4949793  98.8730728 125.0481222 108.0693545  98.6505909 124.3154414
 108.0820775  98.9419422 125.8009823 116.5529370 104.7604455 125.8545598
 117.0661252 105.3934446 126.3567308 117.2030594 104.1605650 125.4888958
 107.8219380 100.9035189 119.0677107 106.9856692 101.2409875 119.3886382
 107.6824150 100.7684169 118.1304244 109.7972461  95.7471977 123.7756291
 109.1436873  95.4320994 123.1512906 109.7552935  95.1247717 124.5016114
 110.9083666 106.0291272 115.6909583 110.0010727 105.7980525 115.8900732
 111.4054697 105.2328891 115.8783565 113.8151744 114.7388779 118.6106269
 113.1413443 115.0420476 119.2191227 114.2017566 115.5417859 118.2611726
 113.0310201 102.2353910 128.1003939 112.1132762 102.4568857 127.9425627
 113.4470345 102.3100221 127.2415646 113.8145249 103.6345326 123.2306619
 114.5617068 104.1466723 122.9213741 114.0836838 103.3129379 124.0911012
 112.0871899 106.1303867 120.2133573 111.1783118 105.8462899 120.3106043
 112.1166983 106.5502945 119.3536880 117.3191166 109.7410456 123.9824741
 116.8653493 108.9001366 124.0389931 116.6885133 110.3771854 124.3199521
 116.2624086 100.6702442 125.2125408 115.5246843 100.1579828 125.5435651
 116.5150859 100.2302824 124.4008685 115.7624106 111.5786953 124.9174559
 116.0547080 112.1392010 124.1986924 116.2722726 111.8715514 125.6727718
 116.3635713  93.4478694 125.8067177 116.6694590  92.5876058 125.5193092
 117.0888318  94.0396314 125.6066171 102.6560069 103.8509381 124.1948775
 102.4584469 103.2578741 123.4699842 102.1006733 103.5461591 124.9124714
 110.6356793 103.7432487 126.3143368 110.6905403 102.7906324 126.2385845
 109.8247995 103.8991926 126.7984667 111.7847987 107.6712610 117.5521652
 111.3467417 106.9548469 117.0927289 112.5258428 107.8988725 116.9906743
 108.5749153 102.3609547 124.0733747 107.7617018 102.6603717 124.4798939
 109.0708147 101.9665236 124.7908230 110.7257731 112.3567304 126.0068012
 110.6833910 112.5828150 125.0776544 111.6420430 112.1230678 126.1553813
 119.9021102 105.9469807 123.6097970 119.7639000 106.1371403 122.6819159
 119.5457320 106.7089190 124.0666021 108.0663228  99.9327902 129.6894982
 108.7062607  99.7916662 128.9917946 107.2340758  99.6462416 129.3133584
 108.8423532 109.2330333 125.8029975 109.6364130 108.7380653 125.6012550
 108.1315224 108.7048196 125.4397680 105.1506295 103.3773415 121.8789727
 104.2203883 103.3157870 122.0959690 105.2463767 102.8549367 121.0826369
 105.0691844  99.9028227 124.4667969 105.3298661 100.8173561 124.3577130
 105.8909016  99.4352670 124.6164582 106.5416769 101.3165985 131.6366794
 107.2139823 101.1083347 130.9879443 105.7146556 101.1188071 131.1972026
 112.4442341  97.9427926 133.6532455 111.7970256  98.6417875 133.5596931
 113.2143357  98.3764069 134.0208703 112.0142960 114.9068451 120.8253348
 112.1894715 114.4356495 121.6398971 111.3275748 115.5334218 121.0534609
 112.9700023 109.1840958 126.8716650 112.6349855 109.1441728 127.7674300
 112.4703968 108.5185673 126.3987060 106.9444267 104.5908588 132.3969231
 106.8064065 103.8588826 132.9980770 107.8549190 104.5017488 132.1153419
 115.9059214 106.5296992 117.1453709 115.2888385 105.8043820 117.0486762
 115.4375703 107.2906352 116.8020784 108.2855501 101.2893765 133.7048550
 107.7492858 100.8384503 134.3570146 107.6972210 101.4239674 132.9619014
 107.6957760 100.7482416 116.2675014 106.8187227 100.6271217 115.9037260
 108.1715513  99.9568494 116.0153902  99.2159900 105.5359576 126.3616521
  99.9030940 105.2221306 125.7737536  99.0608029 106.4400941 126.0883772
 104.0194623 100.4249772 130.7901544 103.9352811  99.8175442 130.0551954
 103.1977329 100.9158791 130.7911041 110.8821686 113.1008707 123.5137534
 110.0989208 113.6430387 123.6075759 111.5814431 113.6182686 123.9131775
 114.1918336  98.9103336 126.1571739 114.6887036  98.1573298 125.8372810
 113.4205318  98.9467653 125.5914949 115.2748117 107.6675023 123.7310163
 114.3404396 107.7876486 123.5614867 115.4524786 106.7647490 123.4670173
 110.7753305 101.0520719 125.8843424 110.4051093 100.4991759 126.5724330
 111.2712398 100.4478852 125.3318424 118.6620668 103.5092343 124.2660197
 119.1281121 104.3420334 124.1920500 119.1128169 103.0437324 124.9705455
 116.7296900 109.8536164 121.2646349 117.0056743 109.7392758 122.1740223
 115.8601398 109.4553649 121.2258522 116.6337331  95.8772930 128.3051098
 115.7200411  96.1077156 128.4733305 117.0630433  95.9611374 129.1565131
 113.3650964 114.1022515 124.9079163 113.5473358 113.2844171 125.3706915
 114.1883950 114.3190207 124.4704053 113.6993129 113.0290700 122.1694211
 114.2280896 112.5183154 121.5564373 113.9621349 112.7133230 123.0339744
 104.2010222 111.0454569 129.9129545 104.7863659 110.2998257 130.0457449
 104.0035060 111.3558526 130.7966209 107.0548877 114.0805816 124.9291987
 106.3859252 114.5651944 124.4456027 106.9161747 114.3275037 125.8435366
  98.7927877 103.6160169 128.6333988  98.8311976 103.0823760 129.4271106
  98.2868169 103.0895375 128.0144965 106.1718639  98.4624710 132.1296530
 106.2359965  99.3239541 131.7173928 106.1085759  97.8498711 131.3968889
 105.6470911 100.5347842 135.7769564 106.2742950 100.1524920 136.3907089
 104.7898830 100.3162044 136.1425257 102.4236454 102.3424271 121.7087919
 102.7189895 101.4334950 121.6554973 101.5224490 102.3212011 121.3868922
 105.9530701 100.4180268 127.6915468 105.2317287 101.0316236 127.5522941
 106.7423957 100.9538033 127.6132114 108.7557015  97.7534695 133.9656120
 109.2791416  97.9996991 134.7282429 108.5369348  98.5854729 133.5459257
 104.1524296 100.0238369 121.8327244 103.8237002  99.1435748 121.6502350
 104.5063666  99.9686038 122.7203634 113.4003875 111.6593272 126.3422230
 113.2528837 110.7309979 126.5229800 114.2257368 111.6813363 125.8579305
 107.2666119 100.3111339 122.2002722 107.6062191 100.8397260 121.4781330
 107.7138239 100.6491745 122.9761289 109.9609560  98.6948390 131.6505790
 109.6206380  97.8956203 132.0526470 109.2548566  98.9950100 131.0782623
 110.6126032  95.7797702 130.1033113 111.4352101  95.3058180 129.9812003
 110.8564095  96.5588186 130.6031799 109.2534266  98.8085960 120.3996015
 109.9742628  99.1867213 119.8959732 108.6299570  99.5274837 120.5030993
 113.3965389  99.5131109 121.3354347 113.6129003 100.3955747 121.0343175
 112.9159456  99.1217323 120.6059989 108.1364610 102.4716823 127.9125092
 107.9909191 102.7857126 128.8049373 107.6589814 103.0901723 127.3595990
 109.9960993  99.4619371 127.9605981 109.9822562  98.5660464 127.6238279
 110.7133421  99.4690034 128.5944267 111.8487124  99.8956711 130.0059109
 111.5904902 100.8173782 130.0043439 111.3172164  99.4987145 130.6959573
 116.7933313 113.0007498 122.7849194 116.9670190 112.4353920 122.0323047
 117.2862204 113.8008393 122.6028684 102.6110272 105.0122167 130.8512753
 102.0663741 105.7881975 130.9833027 103.4889622 105.3592972 130.6931874
 109.3997889  98.3433751 123.2293551 109.5213800  97.4150397 123.4284439
 109.1099931  98.3572437 122.3171867 112.2689079  96.0288661 126.3660271
 112.2910776  96.0927994 125.4112251 112.6857138  95.1893170 126.5600777
 122.6472704 105.7643921 124.4039494 123.0903850 105.0151246 124.0058617
 121.7699214 105.7554057 124.0213226 117.7808485 112.3174262 119.8846092
 118.4759390 112.9380955 120.1033407 118.1231635 111.4669614 120.1598470
 103.3976294 104.1392063 133.7442910 102.6558030 104.2874699 134.3307540
 103.0769039 104.4000329 132.8809659 119.6799908 109.7673968 121.4133423
 120.2051232 110.1061241 120.6882743 119.5922261 108.8320983 121.2296558
 103.8432908 112.0257492 125.7753304 104.6690928 111.7261264 125.3951948
 103.4926960 111.2565115 126.2243093 108.8114441 111.3783960 127.8450978
 108.1894450 110.7154665 127.5453206 109.4819308 111.4045092 127.1624626
 102.0441513 109.9443819 126.7342238 101.2073421 109.5165993 126.5526239
 102.0165158 110.1376262 127.6713029 108.3727948 109.9287884 121.3209439
 108.5216068 110.6123348 120.6676111 109.1794391 109.9092974 121.8358894
 106.1280581 105.9553061 122.3270507 105.8826623 105.0515391 122.5250718
 106.2976496 105.9570212 121.3849985 113.8177291  96.8276738 131.7095263
 114.3359235  97.5637765 131.3841752 113.4632424  97.1340731 132.5442022
 105.3976229 101.6881419 119.8256669 104.7045473 101.7625774 119.1696705
 105.1527980 100.9241762 120.3478186 114.0689885  93.2477020 127.2296160
 114.3491639  92.5800209 127.8556586 114.8540492  93.4406116 126.7170824
 111.8723354 112.4236014 118.7921186 111.2997321 113.0426201 118.3391658
 112.4456147 112.9735376 119.3261108 115.9613123  98.7550237 131.1627136
 115.3663055  99.0355250 130.4673624 115.6762820  99.2444138 131.9343877
 115.0920613 112.7073164 119.9229768 116.0251287 112.6418726 120.1262644
 115.0043826 113.5429431 119.4644301 117.7208630 112.0239035 116.8833716
 117.6422262 111.6898898 117.7769474 118.5418297 112.5160802 116.8825188
 112.2570152 103.7596827 116.1337238 113.2029257 103.6303035 116.2025657
 111.8784397 103.0211489 116.6106667 118.2292037  95.4252833 126.0964130
 118.0316858  95.1167921 126.9807462 118.8391742  96.1514472 126.2262060
 110.4413069 101.6846803 116.0692124 109.5344525 101.3879916 116.1454837
 110.7189050 101.3876621 115.2026410 101.3591010 103.0053167 126.5191170
 101.0393794 102.1518475 126.2265544 100.8124438 103.2201745 127.2749137
 105.1370917 105.7215608 130.2360677 105.3556927 106.6532715 130.2548710
 105.5496691 105.3623582 131.0215480 112.0575135  96.2283693 122.2236365
 111.2475863  95.8830778 122.5991611 112.7459552  95.9191237 122.8123977
 113.9865683  95.3061740 123.8460662 114.5396722  95.7257193 124.5050685
 114.2235770  94.3797488 123.8883618 109.2111854  98.5433738 116.2104103
 110.0731018  98.8688637 116.4699920 109.3962198  97.7565234 115.6977169
 101.2279270 106.6256078 128.4884292 100.5342741 106.2110031 127.9754246
 101.9752261 106.6676615 127.8917711 117.3644490  97.4162265 123.3539326
 116.7843159  98.0747069 122.9717378 117.0980423  96.5939609 122.9426743
 115.8148057  96.8167323 125.5560646 116.3147835  96.9283857 124.7474965
 116.4583665  96.5128375 126.1961455 103.1416012 106.5574332 126.3650307
 103.1186700 106.6562019 125.4132190 103.4516649 107.4039483 126.6867473
 105.8003390 108.6150487 130.4796921 106.7546644 108.5834429 130.4126853
 105.6015914 108.1541111 131.2947147 116.1469368  99.5762355 122.4095674
 115.2595223  99.8612006 122.1915869 116.5623357  99.4156119 121.5622951
 119.4983904  99.6008876 126.1250013 120.2744295 100.0905329 126.3974630
 118.7732039 100.0266930 126.5821883 121.9356463 100.3136495 127.1823954
 122.5300954 100.0732231 126.4717262 122.0083047  99.5943626 127.8097490
 104.1553619 114.1570106 127.4967119 104.0208087 113.3970507 126.9305117
 103.7385681 114.8811006 127.0295908 115.2912582 109.3407030 116.5043694
 115.9948432 109.5457032 117.1201350 114.5675231 109.9083792 116.7692778
 116.1210392 105.0916891 122.6245964 116.0645593 105.5485443 121.7853597
 116.6738735 104.3307576 122.4468807 119.9315198 100.8806623 123.4496084
 119.6752132 100.4803259 124.2804292 119.3068066 101.5950417 123.3246223
 124.2427536 103.6202696 125.9567375 123.6827094 103.6895886 126.7298937
 123.6371039 103.4443681 125.2366871 117.1999279 109.7789559 118.5542154
 118.0344883 109.3470758 118.3719629 117.0383622 109.6071573 119.4819049
 116.8545171 106.2821672 119.9198494 116.7993975 106.1165944 118.9786938
 116.2291227 106.9897705 120.0760683 101.6437686 101.5189737 133.7459916
 102.2896550 101.0088691 134.2347141 101.4354837 102.2558418 134.3203341
 110.1641297  95.7829781 119.4983812 110.1519967  96.7271621 119.6552083
 111.0564719  95.5999927 119.2043273 113.9793416  92.3772558 123.7529749
 113.2125812  91.8231045 123.8986431 114.3904121  92.4494427 124.6143900
 120.3381540 119.0174886 117.9175796 120.5907061 118.4956407 117.1559259
 119.4006099 118.8541031 118.0202479 122.0414857 115.4103039 118.8208208
 122.2089259 116.2783275 119.1878680 121.8512026 115.5730320 117.8969498
 118.6613135 116.2327106 119.0677107 117.8250447 116.5701793 119.3886382
 118.5217904 116.0976086 118.1304244 120.6366215 111.0763894 123.7756291
 119.9830627 110.7612911 123.1512906 120.5946689 110.4539635 124.5016114
 121.7477420 121.3583189 115.6909583 120.8404482 121.1272443 115.8900732
 122.2448452 120.5620809 115.8783565 118.5351515 116.0774334 116.2675014
 117.6580981 115.9563135 115.9037260 119.0109268 115.2860412 116.0153902
 113.2630209 117.6716189 121.7087919 113.5583650 116.7626868 121.6554973
 112.3618244 117.6503929 121.3868922 114.9918050 115.3530287 121.8327244
 114.6630756 114.4727666 121.6502350 115.3457421 115.2977955 122.7203634
 120.0928020 114.1377878 120.3996015 120.8136383 114.5159131 119.8959732
 119.4693325 114.8566755 120.5030993 116.2369983 117.0173337 119.8256669
 115.5439228 117.0917692 119.1696705 115.9921735 116.2533680 120.3478186
 123.0963907 119.0888745 116.1337238 124.0423011 118.9594953 116.2025657
 122.7178152 118.3503406 116.6106667 121.2806824 117.0138721 116.0692124
 120.3738279 116.7171834 116.1454837 121.5582805 116.7168539 115.2026410
 122.8968889 111.5575611 122.2236365 122.0869618 111.2122696 122.5991611
 123.5853306 111.2483154 122.8123977 120.0505608 113.8725656 116.2104103
 120.9124772 114.1980554 116.4699920 120.2355952 113.0857152 115.6977169
 121.0035051 111.1121699 119.4983812 120.9913721 112.0563539 119.6552083
 121.8958473 110.9291845 119.2043273  48.2003355  -4.5288219 106.6115518
  47.5491335  -3.9434138 106.2249532  48.9947718  -3.9982024 106.6710556
  54.4670079  -8.0363283 107.8720355  53.6899522  -8.3752123 107.4275517
  55.1461560  -8.0310660 107.1975320  45.8721140  -8.9398112 102.4154890
  44.9648202  -9.1708858 102.6146039  46.3692172  -9.7360492 102.6028871
  48.7789219  -0.2300605 105.3351576  48.1050917   0.0731092 105.9436534
  49.1655041   0.5728476 104.9857033  46.7485461  -7.2976773 104.2766958
  46.3104891  -8.0140914 103.8172596  47.4895902  -7.0700658 103.7152050
  46.9780434  -0.0620932 107.5498655  47.1532190  -0.5332889 108.3644278
  46.2913222   0.5644834 107.7779916  50.8696689  -8.4392392 103.8699016
  50.2525859  -9.1645563 103.7732069  50.4013177  -7.6783031 103.5266090
  51.6934374  -5.1153220 107.9891656  51.9694218  -5.2296625 108.8985530
  50.8238873  -5.5135735 107.9503829  48.6630603  -1.9398684 108.8939518
  49.1918370  -2.4506229 108.2809680  48.9258823  -2.2556153 109.7585051
  51.7570787  -1.9681885 109.5094501  51.9307664  -2.5335463 108.7568353
  52.2499678  -1.1680991 109.3273991  52.7445959  -2.6515121 106.6091399
  53.4396864  -2.0308428 106.8278714  53.0869110  -3.5019770 106.8843777
  54.6437383  -5.2015416 108.1378730  55.1688707  -4.8628143 107.4128050
  54.5559735  -6.1368400 107.9541864  46.8360828  -2.5453369 105.5166493
  46.2634795  -1.9263182 105.0636964  47.4093622  -1.9954008 106.0506415
  50.0558088  -2.2616219 106.6475075  50.9888761  -2.3270658 106.8507950
  49.9681301  -1.4259952 106.1889608  52.6846104  -2.9450349 103.6079022
  52.6059736  -3.2790485 104.5014780  53.5055771  -2.4528581 103.6070495
  50.2550056  -5.6282354 103.2289001  50.9585906  -5.4232351 103.8446656
  49.5312705  -5.0605592 103.4938084  52.1636754  -5.1899824 105.2787461
  52.9982357  -5.6218626 105.0964936  52.0021096  -5.3617811 106.2064355
  51.8182646  -8.6867711 106.6443800  51.7631450  -8.8523440 105.7032244
  51.1928701  -7.9791678 106.8005990  60.7921029   5.3269827 115.3742638
  61.4299439   5.2076574 114.6705978  60.6741872   6.2750671 115.4330590
  57.6010735   5.2797255 115.3104162  57.2629246   5.1638320 114.4224697
  58.4700503   4.8788420 115.2905168  53.4597551   7.1332731 111.3001053
  52.8962416   7.0422668 110.5317341  53.3449946   6.3132636 111.7803546
  51.0061983   8.6283923 114.1385274  51.7983274   8.2874748 113.7231573
  51.2458633   8.7378898 115.0587427  59.0397109  10.8003699 106.6115518
  58.3885089  11.3857779 106.2249532  59.8341472  11.3309894 106.6710556
  52.9652736   7.8892836 107.0102652  53.7383612   7.3421823 106.8715528
  53.3178135   8.7537085 107.2217114  55.7293986   6.5946067 116.8070911
  56.3257558   6.3702089 116.0927874  55.7868957   5.8530812 117.4096359
  55.3019014   4.0485502 104.6421102  55.5544535   3.5267024 103.8804565
  54.3643573   3.8851648 104.7447786  60.3462297   3.0521281 112.4495846
  61.1325386   2.6340704 112.0986263  60.6101001   3.9567373 112.6177494
  60.5172374   8.4894131 107.1484502  59.8818207   8.5628757 107.8605407
  60.1869781   9.0787730 106.4703582  65.7470724   2.9896514 113.3528824
  66.4795896   2.4195731 113.5866654  64.9910080   2.6018114 113.7935330
  55.0215303   5.9513608 106.8445477  54.9051561   5.2758512 107.5126562
  55.1317563   5.4645982 106.0277630  57.3646844   5.4123755 110.5492167
  57.0005051   4.8854376 111.2605088  58.2213960   5.0222224 110.3758652
  57.0052331   0.4413655 105.5453515  57.1726733   1.3093891 105.9123986
  56.8149500   0.6040937 104.6214804  59.7627664   8.9030634 117.2119345
  59.4628387   9.8055673 117.1035153  59.4178724   8.6362817 118.0640498
  53.2140146   5.3544431 113.2456050  52.2890642   5.2220645 113.4533742
  53.4624559   6.1338650 113.7425992  63.1624808   1.4213174 114.8916783
  62.2541685   1.3528583 114.5975544  63.1112404   1.8985119 115.7198608
  56.9841552   2.8971313 106.5300182  56.8641177   3.3428363 107.3685662
  56.2894140   3.2456630 105.9713720  50.5748957   4.9977704 114.0799839
  50.7041338   5.2512183 114.9939251  49.8946408   5.5905412 113.7604494
  54.7448444  15.6674954 110.1790313  54.6672474  16.6182779 110.2578794
  54.1410088  15.3220827 110.8365239  62.6826618   3.3692786 107.3580516
  63.5944474   3.6020172 107.1828214  62.1736265   3.9529830 106.7955595
  61.2896200   8.3518604 114.7494097  60.6605063   8.5164318 114.0470165
  60.9021862   8.7660214 115.5205061  65.1685432   9.2873042 112.1038461
  64.4836470   9.6671943 111.5535495  65.2529281   9.8968369 112.8370409
  62.4236364   6.9333001 118.7033805  62.6353259   7.5764761 118.0268186
  62.3766112   6.0995318 118.2355735  56.8424162   8.0893012 112.0144183
  57.3062508   8.3680715 111.2248805  56.5780960   7.1876457 111.8317273
  53.7348243   7.6364494 114.9523946  54.3049600   8.0651762 114.3141430
  54.3256355   7.3547079 115.6508131  55.7793048   4.2116165 108.8233748
  56.4817092   4.6637208 109.2907674  55.4473677   3.5699984 109.4513641
  63.5382192   9.8104956 116.8756162  64.3599635   9.4085144 116.5938844
  63.5344595   9.7073191 117.8272278  51.4733128   2.8344297 111.0834358
  50.6764291   2.9462991 111.6017854  51.2458720   3.1730949 110.2175248
  57.3038795   9.3589000 119.0316873  57.3683228   9.8209407 119.8675044
  56.5949719   8.7286365 119.1599182  71.6288185   6.1543705 113.2241134
  70.8751893   5.5851103 113.0685138  71.7635726   6.1206369 114.1711768
  57.0186813  11.0257107 108.8995853  56.8832488  11.8708643 109.3280701
  57.5596625  11.2276385 108.1361787  50.4716210   8.5432545 109.4723778
  50.9840731   9.3375796 109.6229343  51.1238923   7.8458836 109.4057379
  52.2811095  11.6598302 111.5546531  52.4577723  12.5816266 111.3667515
  53.0767928  11.3456721 111.9840911  53.4042410  13.1776475 117.5556873
  53.9549836  13.0493539 116.7833867  52.5653886  13.4771364 117.2051766
  60.7436527  11.9283474 121.0577596  60.7255003  12.7492355 120.5657865
  61.6656447  11.8037549 121.2827737  48.4365127   6.8721200 110.2483349
  49.2740349   7.2818208 110.0317056  48.6143395   5.9320642 110.2183542
  60.3329559   4.5396280 105.9367181  59.8176183   5.3100885 106.1755569
  60.0606868   3.8661416 106.5600243  57.9176670  -0.6154019 110.9952420
  57.0618266  -1.0047169 110.8158059  58.3303622  -0.5362058 110.1352205
  65.3063833   7.2928635 107.8720355  64.5293276   6.9539794 107.4275517
  65.9855314   7.2981258 107.1975320  60.1215862   2.4123372 107.7626963
  59.8165998   2.7269522 108.6137106  61.0746304   2.4904792 107.8054296
  58.5662294   8.5713596 109.4119917  58.0383656   7.8366355 109.0993154
  58.0649797   9.3488272 109.1659885  63.5455140   6.7662616 114.5286963
  62.8878815   7.4561878 114.6167092  64.3495539   7.1559048 114.8720949
  53.2981022  -0.7666738 111.7726528  53.8724774  -0.9891557 111.0399721
  53.8852004  -0.6978044 112.5255129  62.3560599   5.1206989 112.5790905
  62.8692481   5.7536981 113.0812614  63.0061823   4.5208184 112.2134265
  53.6250609   1.2637723 105.7922413  52.7887921   1.6012410 106.1131688
  53.4855379   1.1286703 104.8549550  55.6003689  -3.8925489 110.5001598
  54.9468102  -4.2076472 109.8758212  55.5584164  -4.5149749 111.2261421
  56.7114894   6.3893806 102.4154890  55.8041956   6.1583059 102.6146039
  57.2085926   5.5931425 102.6028871  59.6182973  15.0991313 105.3351576
  58.9444672  15.4023010 105.9436534  60.0048795  15.9020393 104.9857033
  58.8341430   2.5956444 114.8249245  57.9163991   2.8171391 114.6670933
  59.2501573   2.6702755 113.9660953  59.6176478   3.9947860 109.9551925
  60.3648297   4.5069257 109.6459048  59.8868067   3.6731913 110.8156319
  57.8903128   6.4906401 106.9378880  56.9814347   6.2065434 107.0351350
  57.9198212   6.9105479 106.0782187  63.1222395  10.1012990 110.7070047
  62.6684722   9.2603900 110.7635238  62.4916362  10.7374389 111.0444827
  62.0655315   1.0304976 111.9370715  61.3278072   0.5182363 112.2680957
  62.3182088   0.5905358 111.1253992  61.5655334  11.9389487 111.6419865
  61.8578309  12.4994544 110.9232231  62.0753955  12.2318048 112.3973025
  62.1666942  -6.1918772 112.5312484  62.4725819  -7.0521408 112.2438399
  62.8919547  -5.6001151 112.3311478  48.4591298   4.2111915 110.9194082
  48.2615698   3.6181276 110.1945149  47.9037962   3.9064125 111.6370021
  56.4388022   4.1035021 113.0388675  56.4936632   3.1508858 112.9631152
  55.6279224   4.2594460 113.5229974  57.5879216   8.0315144 104.2766958
  57.1498645   7.3151003 103.8172596  58.3289656   8.2591259 103.7152050
  54.3780382   2.7212081 110.7979054  53.5648247   3.0206252 111.2044246
  54.8739376   2.3267770 111.5153536  56.5288960  12.7169838 112.7313319
  56.4865138  12.9430684 111.8021851  57.4451658  12.4833213 112.8799120
  65.7052330   6.3072341 110.3343277  65.5670229   6.4973937 109.4064466
  65.3488549   7.0691724 110.7911328  65.7321710   8.3748869 115.3454548
  66.1658217   8.2824158 116.1937602  66.4453291   8.3506369 114.7074564
  54.6454760   9.5932867 112.5275281  55.4395359   9.0983187 112.3257856
  53.9346453   9.0650730 112.1642987  59.4649605  11.9750963 116.8787649
  59.5186627  12.5441899 117.6465365  58.5964386  12.1452848 116.5141686
  50.9537524   3.7375949 108.6035034  50.0235112   3.6760404 108.8204996
  51.0494996   3.2151902 107.8071675  50.8723073   0.2630762 111.1913276
  51.1329890   1.1776095 111.0822436  51.6940245  -0.2044796 111.3409889
  66.5937260   8.4172569 117.8787434  66.7873150   9.3218380 118.1246709
  66.4937878   7.9579988 118.7126019  58.4237705   6.1411225 118.4374581
  59.3529765   6.2922384 118.2643548  58.0028735   6.2295245 117.5823227
  57.2226036  10.1661889 116.2073118  57.0837122   9.7980673 117.0799057
  56.4340633  10.6809528 116.0357076  57.8174188  15.2670986 107.5498655
  57.9925944  14.7959029 108.3644278  57.1306976  15.8936752 107.7779916
  58.7731252   9.5443492 113.5961956  58.4381084   9.5044262 114.4919606
  58.2735197   8.8788208 113.1232366  61.7090443   6.8899526 103.8699016
  61.0919614   6.1646354 103.7732069  61.2406932   7.6508886 103.5266090
  63.3644575  11.5998434 121.5304796  63.3057121  10.9157655 120.8635379
  63.7664093  12.3417424 121.0785422  52.3835274  18.4160348 114.3238515
  52.6231872  19.0478872 115.0017534  51.5404470  18.0648388 114.6103874
  53.4988989   1.1084950 102.9920320  52.6218455   0.9873751 102.6282567
  53.9746742   0.3171029 102.7399209  63.3661982   9.5638018 119.7618776
  62.4788761   9.2263940 119.8845175  63.9360533   8.8321050 119.9987541
  56.8963136  14.2239471 116.7280019  56.8233307  15.0294442 117.2399324
  56.4540529  14.4231437 115.9028041  56.6852915  13.4611241 110.2382841
  55.9020437  14.0032921 110.3321065  57.3845660  13.9785220 110.6377082
  59.9949565  -0.7294130 112.8817046  60.4918265  -1.4824167 112.5618116
  59.2236547  -0.6929813 112.3160255  67.8479323   4.9746236 114.5235338
  67.8369199   5.8570951 114.1529271  66.9796702   4.6217787 114.3289875
  59.3561819  14.1226305 118.8838178  60.0689791  14.7573770 118.8114079
  58.8651848  14.2190171 118.0678180  61.0779346   8.0277557 110.4555469
  60.1435625   8.1479020 110.2860174  61.2556014   7.1250024 110.1915479
  56.5784534   1.4123253 112.6088731  56.2082322   0.8594294 113.2969636
  57.0743626   0.8081387 112.0563731  64.4651897   3.8694877 110.9905504
  64.9312349   4.7022868 110.9165806  64.9159398   3.4039858 111.6950762
  54.4073733  11.8720748 119.7043749  55.1083192  12.5057231 119.8573143
  53.9368848  12.2135480 118.9439388  62.5328128  10.2138698 107.9891656
  62.8087972  10.0995293 108.8985530  61.6632627   9.8156183 107.9503829
  62.2075019   4.4265356 117.5296299  61.5546469   4.6741263 116.8748752
  62.5855398   3.6129494 117.1958776  59.1682192  14.4625049 111.6324469
  59.3504587  13.6446705 112.0952222  59.9915178  14.6792741 111.1949359
  59.5024358  13.3893234 108.8939518  60.0312124  12.8785689 108.2809680
  59.7652577  13.0735764 109.7585051  50.0041451  11.4057103 116.6374851
  50.5894887  10.6600791 116.7702756  49.8066289  11.7161060 117.5211515
  52.8580106  14.4408351 111.6537294  52.1890481  14.9254478 111.1701334
  52.7192976  14.6877571 112.5680672  56.9985374  16.4752094 118.2519952
  57.5503682  16.6383716 119.0169037  57.3391568  17.0656532 117.5799977
  48.2267683   2.7026806 108.4333226  48.5221124   1.7937484 108.3800280
  47.3255719   2.6814545 108.1114228  60.1353762  14.4234070 115.2383634
  60.0104901  13.6223810 114.7294580  60.7932853  14.9180263 114.7497604
  62.1988670  12.2243090 116.8663184  61.2519006  12.1048441 116.7941511
  62.5471443  11.3365588 116.9489446  49.9555525   0.3840903 108.5572551
  49.6268231  -0.4961718 108.3747657  50.3094895   0.3288572 109.4448940
  59.2035103  12.0195806 113.0667537  59.0560066  11.0912513 113.2475107
  60.0288597  12.0415897 112.5824612  53.0697348   0.6713873 108.9248029
  53.4093420   1.1999794 108.2026637  53.5169468   1.0094279 109.7006595
  62.8069225  12.8424365 114.1532409  63.7315773  12.6367226 114.0156860
  62.6384529  12.5940766 115.0621751  55.0565495  -0.8311505 107.1241321
  55.7773857  -0.4530253 106.6205038  54.4330799  -0.1122628 107.2276299
  59.1996618  -0.1266356 108.0599654  59.4160232   0.7558282 107.7588482
  58.7190685  -0.5180143 107.3305296  62.5964541  13.3610032 109.5094501
  62.7701419  12.7956455 108.7568353  63.0893433  14.1610927 109.3273991
  55.2029118  -1.2963715 109.9538858  55.3245029  -2.2247069 110.1529746
  54.9131160  -1.2825029 109.0417174  68.4503933   6.1246455 111.1284800
  68.8935079   5.3753780 110.7303924  67.5730443   6.1156592 110.7458532
  63.5839714  12.6776797 106.6091399  64.2790619  13.2983489 106.8278714
  63.9262864  11.8272148 106.8843777  65.4831137  10.1276502 108.1378730
  66.0082461  10.4663775 107.4128050  65.3953490   9.1923517 107.9541864
  57.1451186  14.0410576 120.2668606  57.4538312  13.7959723 121.1391306
  57.9426668  14.2457214 119.7787477  57.1671798  16.1948485 112.4973983
  56.7276788  15.7024864 113.1906840  57.9179915  15.6521453 112.2566058
  49.6464137  12.3860026 112.4998611  50.4722157  12.0863798 112.1197255
  49.2958189  11.6167649 112.9488400  54.6145670  11.7386495 114.5696285
  53.9925679  11.0757200 114.2698513  55.2850537  11.7647626 113.8869932
  47.8472742  10.3046353 113.4587545  47.0104650   9.8768527 113.2771546
  47.8196387  10.4978796 114.3958336  65.1725043  10.7609406 123.4429928
  64.3820587  10.7433545 122.9034427  64.9358398  11.2997699 124.1978964
  65.2922918   7.6101872 120.7562656  65.3420923   7.4451880 121.6978179
  65.1836842   6.7429131 120.3660537  54.1759177  10.2890418 108.0454745
  54.3247297  10.9725882 107.3921418  54.9825620  10.2695508 108.5604201
  66.7941115  10.0298814 121.0004678  66.5025923  10.3928794 121.8368139
  66.1813246   9.3165822 120.8218010  67.9936797   7.5951693 113.5207248
  68.8283689   8.0341498 113.6844808  68.1295926   7.1190347 112.7015494
  65.0428303   5.1531428 119.4684736  65.5182425   5.3459075 118.6603587
  64.1193869   5.2090614 119.2228119  51.9311810   6.3155595 109.0515814
  51.6857852   5.4117925 109.2496024  52.1007724   6.3172746 108.1095292
  51.2007457   2.0483953 106.5501976  50.5076702   2.1228308 105.8942012
  50.9559209   1.2844297 107.0723492  57.6754582  12.7838548 105.5166493
  57.1028549  13.4028735 105.0636964  58.2487376  13.3337910 106.0506415
  60.8951842  13.0675698 106.6475075  61.8282515  13.0021260 106.8507950
  60.8075055  13.9031965 106.1889608  63.5239859  12.3841569 103.6079022
  63.4453490  12.0501432 104.5014780  64.3449526  12.8763337 103.6070495
  66.2218050   5.2503308 116.8155341  66.1894370   4.3119309 117.0015025
  66.8318674   5.3287345 116.0821166  58.0601381   4.1199361 102.8582545
  59.0060486   3.9905569 102.9270963  57.6815626   3.3814023 103.3351973
  66.3712539   2.0414352 116.8613624  65.8551587   1.2572808 116.6743553
  67.2552487   1.7133068 117.0260144  64.0323265  -4.2144633 112.8209437
  63.8348087  -4.5229545 113.7052769  64.6422971  -3.4882994 112.9507367
  72.0394600   6.3119315 115.9561378  72.7697988   6.0504603 116.5169081
  71.4301545   5.5748037 115.9963446  70.1209897   4.4527178 116.5535829
  69.3943061   4.3183142 115.9452321  69.7057184   4.7604006 117.3592547
  56.2444298   2.0449337 102.7937430  55.3375753   1.7482450 102.8700144
  56.5220279   1.7479156 101.9271717  57.8606364  -3.4113773 108.9481672
  57.0507092  -3.7566688 109.3236918  58.5490781  -3.7206229 109.5369283
  59.7896912  -4.3335726 110.5705968  60.3427951  -3.9140273 111.2295991
  60.0266998  -5.2599978 110.6128924  55.0143083  -1.0963727 102.9349410
  55.8762247  -0.7708829 103.1945227  55.1993427  -1.8832231 102.4222475
  63.1675719  -2.2235201 110.0784633  62.5874388  -1.5650397 109.6962685
  62.9011652  -3.0457856 109.6672050  61.6179286  -2.8230143 112.2805953
  62.1179064  -2.7113609 111.4720272  62.2614893  -3.1269090 112.9206761
  48.9447241   6.9176866 113.0895613  48.9217929   7.0164553 112.1377496
  49.2547877   7.7642017 113.4112779  61.9500597  -0.0635110 109.1340981
  61.0626452   0.2214540 108.9161176  62.3654586  -0.2241347 108.2868258
  65.3015133  -0.0388590 112.8495320  66.0775523   0.4507863 113.1219937
  64.5763267   0.3869465 113.3067190  67.7387692   0.6739030 113.9069261
  68.3332183   0.4334766 113.1962569  67.8114276  -0.0453840 114.5342797
  49.9584848  14.5172641 114.2212425  49.8239316  13.7573042 113.6550424
  49.5416910  15.2413540 113.7541214  61.0943811   9.7009564 103.2289001
  61.7979661   9.9059567 103.8446656  60.3706459  10.2686326 103.4938084
  61.9241621   5.4519425 109.3491271  61.8676822   5.9087977 108.5098903
  62.4769963   4.6910110 109.1714114  65.7346427   1.2409157 110.1741390
  65.4783361   0.8405793 111.0049598  65.1099295   1.9552951 110.0491530
  70.0458765   3.9805231 112.6812682  69.4858323   4.0498420 113.4544244
  69.4402268   3.8046215 111.9612178  53.1153973  15.4141958 114.4330868
  52.9986358  16.3587390 114.3309558  52.2946420  15.1115519 114.8216667
  63.0030508  10.1392093 105.2787461  63.8376112   9.7073292 105.0964936
  62.8414851   9.9674107 106.2064355  62.6576400   6.6424207 106.6443800
  62.6025204   6.4768478 105.7032244  62.0322455   7.3500240 106.8005990
  55.9672526  -3.8567684 106.2229119  55.9551195  -2.9125844 106.3797389
  56.8595948  -4.0397539 105.9288580  54.1408488  16.0670220 117.6486797
  55.0435734  16.0993830 117.9653292  53.9145858  15.1370671 117.6633132
  55.8962090  14.8201206 114.3096875  54.9457721  14.8203068 114.1961247
  56.1994576  14.0733941 113.7932910  59.7824645  -7.2624908 110.4775055
  59.0157041  -7.8166421 110.6231738  60.1935350  -7.1903039 111.3389207
  71.6314783  20.6561744 115.3742638  72.2693193  20.5368492 114.6705978
  71.5135626  21.6042588 115.4330590  68.4404489  20.6089173 115.3104162
  68.1023001  20.4930237 114.4224697  69.3094258  20.2080338 115.2905168
  64.2991305  22.4624649 111.3001053  63.7356170  22.3714586 110.5317341
  64.1843700  21.6424553 111.7803546  68.9224272  21.7624024 121.2690368
  68.9112913  21.3676823 120.3970871  69.0844912  21.0290097 121.8624139
  61.8455737  23.9575841 114.1385274  62.6377029  23.6166665 113.7231573
  62.0852387  24.0670816 115.0587427  69.8790864  26.1295617 106.6115518
  69.2278844  26.7149697 106.2249532  70.6735227  26.6601812 106.6710556
  63.8046491  23.2184754 107.0102652  64.5777367  22.6713741 106.8715528
  64.1571890  24.0829003 107.2217114  65.6431534  24.5461136 120.2169552
  65.3521400  25.4506767 120.1016218  66.2788518  24.5877664 120.9313621
  66.5687740  21.9237985 116.8070911  67.1651313  21.6994007 116.0927874
  66.6262712  21.1822730 117.4096359  66.1412769  19.3777420 104.6421102
  66.3938289  18.8558941 103.8804565  65.2037328  19.2143565 104.7447786
  71.1856052  18.3813198 112.4495846  71.9719141  17.9632622 112.0986263
  71.4494756  19.2859291 112.6177494  71.3566129  23.8186049 107.1484502
  70.7211962  23.8920675 107.8605407  71.0263535  24.4079647 106.4703582
  76.5864479  18.3188432 113.3528824  77.3189651  17.7487648 113.5866654
  75.8303834  17.9310032 113.7935330  65.8609058  21.2805526 106.8445477
  65.7445316  20.6050429 107.5126562  65.9711317  20.7937900 106.0277630
  68.2040598  20.7415673 110.5492167  67.8398806  20.2146294 111.2605088
  69.0607714  20.3514142 110.3758652  74.1089899  12.0310006 117.8123433
  73.7773224  12.9005417 117.5884648  73.5135512  11.7146290 118.4917463
  67.8446085  15.7705573 105.5453515  68.0120488  16.6385809 105.9123986
  67.6543255  15.9332854 104.6214804  70.6021419  24.2322552 117.2119345
  70.3022142  25.1347590 117.1035153  70.2572478  23.9654735 118.0640498
  64.0533900  20.6836348 113.2456050  63.1284397  20.5512563 113.4533742
  64.3018313  21.4630568 113.7425992  74.0018562  16.7505092 114.8916783
  73.0935440  16.6820500 114.5975544  73.9506158  17.2277037 115.7198608
  67.8235306  18.2263230 106.5300182  67.7034932  18.6720281 107.3685662
  67.1287895  18.5748548 105.9713720  61.4142711  20.3269622 114.0799839
  61.5435092  20.5804101 114.9939251  60.7340162  20.9197330 113.7604494
  65.5842198  30.9966872 110.1790313  65.5066228  31.9474697 110.2578794
  64.9803842  30.6512744 110.8365239  68.0759428  18.1694737 122.8351680
  67.2992762  18.7288658 122.8254545  68.7149991  18.6551520 123.3566550
  75.8680209  14.9521530 116.6694657  75.2254589  15.2454063 116.0234451
  75.3635137  14.8374451 117.4747853  73.5220372  18.6984703 107.3580516
  74.4338229  18.9312090 107.1828214  73.0130020  19.2821748 106.7955595
  66.3305800  20.9780191 122.3969647  67.0720485  21.5165235 122.1204471
  65.6242786  21.6046480 122.5541199  71.8061140  23.1209331 120.9941809
  72.2144496  22.6791742 120.2496441  71.0838402  22.5461959 121.2476001
  68.1592210  18.0581938 118.3675366  69.0053405  18.4821352 118.5110015
  68.0990848  17.4015562 119.0613929  72.1289955  23.6810522 114.7494097
  71.4998817  23.8456236 114.0470165  71.7415617  24.0952131 115.5205061
  76.0079187  24.6164960 112.1038461  75.3230225  24.9963861 111.5535495
  76.0923036  25.2260286 112.8370409  71.3091656  15.7186306 120.0256539
  71.0652587  16.4728367 119.4890815  71.5851586  16.0971654 120.8603786
  73.2630118  22.2624919 118.7033805  73.4747014  22.9056679 118.0268186
  73.2159867  21.4287235 118.2355735  70.8656347  14.8742739 115.6070377
  70.0040826  15.1723993 115.8987114  70.8918782  15.0913138 114.6751410
  67.6817917  23.4184930 112.0144183  68.1456262  23.6972633 111.2248805
  67.4174715  22.5168375 111.8317273  64.5741998  22.9656411 114.9523946
  65.1443355  23.3943680 114.3141430  65.1650110  22.6838996 115.6508131
  66.6186803  19.5408082 108.8233748  67.3210846  19.9929126 109.2907674
  66.2867431  18.8991901 109.4513641  65.0667164  18.1319839 123.1984957
  64.4365825  18.8136120 123.4320354  64.9603252  18.0202921 122.2538095
  60.3612137  17.7991635 114.1250881  59.5711191  18.0549164 113.6490992
  60.8523384  18.6139973 114.2302922  74.3775946  25.1396874 116.8756162
  75.1993390  24.7377061 116.5938844  74.3738349  25.0365108 117.8272278
  62.3126882  18.1636214 111.0834358  61.5158045  18.2754908 111.6017854
  62.0852474  18.5022866 110.2175248  68.1432550  24.6880917 119.0316873
  68.2076982  25.1501325 119.8675044  67.4343474  24.0578282 119.1599182
  58.6449840  18.0522125 116.5565872  58.8957878  18.9369135 116.8223448
  59.1809388  17.8726727 115.7840964  82.4681939  21.4835623 113.2241134
  81.7145648  20.9143021 113.0685138  82.6029480  21.4498287 114.1711768
  67.8580567  26.3549025 108.8995853  67.7226242  27.2000561 109.3280701
  68.3990380  26.5568303 108.1361787  61.3109965  23.8724463 109.4723778
  61.8234485  24.6667713 109.6229343  61.9632678  23.1750753 109.4057379
  63.1204849  26.9890219 111.5546531  63.2971478  27.9108184 111.3667515
  63.9161683  26.6748638 111.9840911  67.2615868  13.8498484 123.1530465
  68.0025581  14.4505637 123.0734927  67.4933791  13.1076122 122.5948507
  62.4057206  19.0354851 121.4308694  62.2910721  18.1340108 121.7315793
  61.5501724  19.2818548 121.0793511  69.4849044  26.9772591 123.0296195
  69.0412898  26.1908970 122.7117099  70.1466257  27.1651742 122.3640086
  64.2436165  28.5068393 117.5556873  64.7943590  28.3785456 116.7833867
  63.4047641  28.8063282 117.2051766  71.5830282  27.2575391 121.0577596
  71.5648757  28.0784272 120.5657865  72.5050202  27.1329467 121.2827737
  68.0403336  24.7719521 121.9001105  68.5731673  24.0107809 121.6700413
  67.5117417  24.4793173 122.6425259  71.2073031   9.8779587 117.4294746
  70.8637300  10.7681228 117.3533857  71.5751993   9.6881244 116.5664331
  59.2758881  22.2013117 110.2483349  60.1134104  22.6110126 110.0317056
  59.4537149  21.2612559 110.2183542  71.1723314  19.8688198 105.9367181
  70.6569937  20.6392803 106.1755569  70.9000622  19.1953334 106.5600243
  68.7570425  14.7137899 110.9952420  67.9012021  14.3244749 110.8158059
  69.1697376  14.7929860 110.1352205  70.2869571  12.2484242 115.3943980
  69.7834367  12.2114377 114.5811785  70.5800178  13.1576985 115.4540636
  66.5312457  12.3322972 114.4010161  67.3965454  12.1365780 114.0416051
  66.5989966  12.1033323 115.3279518  76.1457588  22.6220553 107.8720355
  75.3687031  22.2831712 107.4275517  76.8249069  22.6273176 107.1975320
  70.9609617  17.7415290 107.7626963  70.6559752  18.0561439 108.6137106
  71.9140059  17.8196710 107.8054296  69.4056049  23.9005513 109.4119917
  68.8777410  23.1658273 109.0993154  68.9043551  24.6780190 109.1659885
  74.3848895  22.0954534 114.5286963  73.7272569  22.7853795 114.6167092
  75.1889294  22.4850966 114.8720949  64.1374776  14.5625180 111.7726528
  64.7118528  14.3400361 111.0399721  64.7245759  14.6313874 112.5255129
  73.1954353  20.4498907 112.5790905  73.7086235  21.0828898 113.0812614
  73.8455577  19.8500102 112.2134265  64.4644363  16.5929641 105.7922413
  63.6281676  16.9304327 106.1131688  64.3249133  16.4578620 104.8549550
  66.4397444  11.4366429 110.5001598  65.7861856  11.1215446 109.8758212
  66.3977918  10.8142169 111.2261421  67.5508649  21.7185724 102.4154890
  66.6435711  21.4874977 102.6146039  68.0479681  20.9223343 102.6028871
  70.4576728  30.4283231 105.3351576  69.7838426  30.7314928 105.9436534
  70.8442550  31.2312311 104.9857033  69.6735184  17.9248362 114.8249245
  68.7557746  18.1463309 114.6670933  70.0895328  17.9994673 113.9660953
  70.4570232  19.3239778 109.9551925  71.2042051  19.8361175 109.6459048
  70.7261822  19.0023830 110.8156319  68.7296882  21.8198318 106.9378880
  67.8208102  21.5357351 107.0351350  68.7591966  22.2397397 106.0782187
  73.9616150  25.4304908 110.7070047  73.5078477  24.5895818 110.7635238
  73.3310116  26.0666306 111.0444827  72.9049069  16.3596894 111.9370715
  72.1671826  15.8474280 112.2680957  73.1575843  15.9197276 111.1253992
  72.4049089  27.2681405 111.6419865  72.6972063  27.8286462 110.9232231
  72.9147709  27.5609966 112.3973025  73.0060697   9.1373146 112.5312484
  73.3119573   8.2770509 112.2438399  73.7313301   9.7290766 112.3311478
  59.2985053  19.5403833 110.9194082  59.1009452  18.9473193 110.1945149
  58.7431717  19.2356043 111.6370021  67.2781776  19.4326939 113.0388675
  67.3330386  18.4800775 112.9631152  66.4672978  19.5886378 113.5229974
  68.4272970  23.3607062 104.2766958  67.9892400  22.6442921 103.8172596
  69.1683411  23.5883177 103.7152050  65.2174136  18.0503999 110.7979054
  64.4042002  18.3498169 111.2044246  65.7133130  17.6559688 111.5153536
  67.3682714  28.0461756 112.7313319  67.3258893  28.2722602 111.8021851
  68.2845413  27.8125130 112.8799120  70.8148348  18.5145823 119.6293948
  71.1697736  18.7417296 120.4888414  71.4620479  18.8464200 119.0071203
  76.5446085  21.6364259 110.3343277  76.4063983  21.8265855 109.4064466
  76.1882304  22.3983642 110.7911328  64.7088211  15.6222354 116.4140289
  65.3487590  15.4811113 115.7163252  63.8765742  15.3356868 116.0378891
  76.5715464  23.7040786 115.3454548  77.0051971  23.6116075 116.1937602
  77.2847045  23.6798287 114.7074564  65.4848515  24.9224785 112.5275281
  66.2789113  24.4275105 112.3257856  64.7740207  24.3942648 112.1642987
  70.3043359  27.3042880 116.8787649  70.3580382  27.8733817 117.6465365
  69.4358141  27.4744765 116.5141686  61.7931278  19.0667866 108.6035034
  60.8628866  19.0052322 108.8204996  61.8888750  18.5443819 107.8071675
  61.7116827  15.5922679 111.1913276  61.9723645  16.5068013 111.0822436
  62.5334000  15.1247122 111.3409889  63.1841753  17.0060437 118.3612100
  63.8564806  16.7977799 117.7124749  62.3571539  16.8082522 117.9217333
  77.4331014  23.7464487 117.8787434  77.6266904  24.6510297 118.1246709
  77.3331632  23.2871906 118.7126019  69.0867325  13.6322377 120.3777761
  68.4395240  14.3312327 120.2842238  69.8568340  14.0658521 120.7454009
  72.4946123  23.8971230 123.4528314  72.3431629  23.6681781 122.5358398
  72.4850802  24.8541831 123.4659659  69.2631459  21.4703142 118.4374581
  70.1923519  21.6214302 118.2643548  68.8422489  21.5587163 117.5823227
  68.0619791  25.4953807 116.2073118  67.9230877  25.1272591 117.0799057
  67.2734387  26.0101446 116.0357076  68.6567943  30.5962903 107.5498655
  68.8319699  30.1250946 108.3644278  67.9700731  31.2228669 107.7779916
  69.6125006  24.8735409 113.5961956  69.2774839  24.8336179 114.4919606
  69.1128952  24.2080125 113.1232366  63.5869250  20.2803039 119.1214537
  63.4489048  19.5483278 119.7226076  64.4974173  20.1911940 118.8398725
  72.5484198  22.2191444 103.8699016  71.9313368  21.4938272 103.7732069
  72.0800686  22.9800804 103.5266090  66.2151551  19.9922999 118.6098217
  66.9251169  19.3516191 118.5684836  66.1720859  20.2435894 119.5324398
  74.2038329  26.9290352 121.5304796  74.1450875  26.2449572 120.8635379
  74.6057848  27.6709342 121.0785422  64.9280485  16.9788217 120.4293857
  64.3917842  16.5278955 121.0815453  64.3397193  17.1134126 119.6864321
  63.2229028  33.7452266 114.3238515  63.4625626  34.3770790 115.0017534
  62.3798225  33.3940306 114.6103874  64.3382744  16.4376868 102.9920320
  63.4612210  16.3165669 102.6282567  64.8140497  15.6462946 102.7399209
  74.2055737  24.8929936 119.7618776  73.3182515  24.5555858 119.8845175
  74.7754288  24.1612967 119.9987541  55.8584884  21.2254028 113.0861827
  56.5455924  20.9115758 112.4982843  55.7033012  22.1295392 112.8129079
  60.6619606  16.1144224 117.5146851  60.5777795  15.5069894 116.7797261
  59.8402312  16.6053243 117.5156347  67.7356890  29.5531388 116.7280019
  67.6627061  30.3586360 117.2399324  67.2934283  29.7523354 115.9028041
  67.5246670  28.7903158 110.2382841  66.7414192  29.3324839 110.3321065
  68.2239415  29.3077138 110.6377082  70.8343320  14.5997788 112.8817046
  71.3312019  13.8467750 112.5618116  70.0630301  14.6362105 112.3160255
  78.6873077  20.3038153 114.5235338  78.6762953  21.1862869 114.1529271
  77.8190457  19.9509704 114.3289875  70.1955574  29.4518222 118.8838178
  70.9083546  30.0865687 118.8114079  69.7045602  29.5482088 118.0678180
  71.9173100  23.3569475 110.4555469  70.9829379  23.4770938 110.2860174
  72.0949769  22.4541942 110.1915479  67.4178288  16.7415171 112.6088731
  67.0476076  16.1886211 113.2969636  67.9137381  16.1373304 112.0563731
  75.3045652  19.1986794 110.9905504  75.7706104  20.0314786 110.9165806
  75.7553152  18.7331776 111.6950762  65.2467487  27.2012666 119.7043749
  65.9476947  27.8349149 119.8573143  64.7762602  27.5427397 118.9439388
  73.3721883  25.5430616 107.9891656  73.6481727  25.4287210 108.8985530
  72.5026382  25.1448101 107.9503829  73.2762315  11.5667381 115.0296405
  72.3625394  11.7971608 115.1978612  73.7055416  11.6505825 115.8810437
  73.0468773  19.7557273 117.5296299  72.3940223  20.0033181 116.8748752
  73.4249153  18.9421412 117.1958776  70.0075947  29.7916967 111.6324469
  70.1898341  28.9738622 112.0952222  70.8308933  30.0084659 111.1949359
  70.3418112  28.7185152 108.8939518  70.8705879  28.2077606 108.2809680
  70.6046332  28.4027682 109.7585051  69.0956346  20.4977084 124.0162336
  68.4196983  20.3971214 124.6864711  69.9183980  20.3416298 124.4798333
  60.8435205  26.7349021 116.6374851  61.4288642  25.9892709 116.7702756
  60.6460044  27.0452978 117.5211515  63.6973860  29.7700268 111.6537294
  63.0284236  30.2546396 111.1701334  63.5586730  30.0169489 112.5680672
  55.4352860  19.3054621 115.3579294  55.4736959  18.7718212 116.1516413
  54.9293153  18.7789827 114.7390272  67.8379129  31.8044012 118.2519952
  68.3897437  31.9675633 119.0169037  68.1785322  32.3948450 117.5799977
  62.8143622  14.1519162 118.8541837  62.8784949  15.0133993 118.4419234
  62.7510742  13.5393163 118.1214195  62.2895895  16.2242294 122.5014871
  62.9167933  15.8419372 123.1152395  61.4323814  16.0056496 122.8670564
  72.6890003  26.6305269 124.1068607  73.2329907  27.2435228 123.6123561
  72.1076848  27.1884848 124.6235620  59.0661437  18.0318723 108.4333226
  59.3614879  17.1229402 108.3800280  58.1649473  18.0106463 108.1114228
  70.9747516  29.7525987 115.2383634  70.8498656  28.9515727 114.7294580
  71.6326607  30.2472181 114.7497604  62.5955684  16.1074720 114.4160774
  61.8742270  16.7210688 114.2768248  63.3848940  16.6432485 114.3377420
  73.0382425  27.5535007 116.8663184  72.0912760  27.4340359 116.7941511
  73.3865198  26.6657506 116.9489446  65.3981998  13.4429146 120.6901426
  65.9216400  13.6891443 121.4527736  65.1794331  14.2749181 120.2704564
  60.7949279  15.7132821 108.5572551  60.4661985  14.8330200 108.3747657
  61.1488650  15.6580490 109.4448940  70.0428858  27.3487724 113.0667537
  69.8953820  26.4204431 113.2475107  70.8682351  27.3707814 112.5824612
  63.9091102  16.0005791 108.9248029  64.2487175  16.5291712 108.2026637
  64.3563223  16.3386197 109.7006595  73.6462980  28.1716282 114.1532409
  74.5709527  27.9659144 114.0156860  73.4778283  27.9232684 115.0621751
  66.6034543  14.3842842 118.3751097  66.2631363  13.5850655 118.7771777
  65.8973549  14.6844552 117.8027930  67.2551015  11.4692154 116.8278420
  68.0777084  10.9952632 116.7057310  67.4989078  12.2482638 117.3277106
  65.8959249  14.4980412 107.1241321  66.6167612  14.8761665 106.6205038
  65.2724553  15.2169289 107.2276299  70.0390372  15.2025561 108.0599654
  70.2553987  16.0850199 107.7588482  69.5584439  14.8111775 107.3305296
  64.7789594  18.1611275 114.6370398  64.6334174  18.4751578 115.5294680
  64.3014797  18.7796175 114.0841297  66.6385976  15.1513823 114.6851288
  66.6247545  14.2554916 114.3483586  67.3558405  15.1584486 115.3189574
  68.4912107  15.5851163 116.7304415  68.2329885  16.5068233 116.7288746
  67.9597148  15.1881597 117.4204880  73.4358296  28.6901950 109.5094501
  73.6095173  28.1248372 108.7568353  73.9287187  29.4902845 109.3273991
  59.2535256  20.7016619 117.5758060  58.7088724  21.4776427 117.7078334
  60.1314606  21.0487423 117.4177181  66.0422872  14.0328203 109.9538858
  66.1638784  13.1044849 110.1529746  65.7524915  14.0466889 109.0417174
  68.9114063  11.7183113 113.0905578  68.9335760  11.7822446 112.1357557
  69.3282122  10.8787622 113.2846084  79.2897687  21.4538373 111.1284800
  79.7328833  20.7045698 110.7303924  78.4124197  21.4448509 110.7458532
  74.4233468  28.0068714 106.6091399  75.1184373  28.6275407 106.8278714
  74.7656619  27.1564066 106.8843777  60.0401278  19.8286515 120.4688216
  59.2983014  19.9769151 121.0552847  59.7194022  20.0894781 119.6054966
  76.3224892  25.4568420 108.1378730  76.8476216  25.7955693 107.4128050
  76.2347244  24.5215435 107.9541864  67.9844940  29.3702493 120.2668606
  68.2932067  29.1251640 121.1391306  68.7820422  29.5749132 119.7787477
  68.0065552  31.5240403 112.4973983  67.5670543  31.0316782 113.1906840
  68.7573669  30.9813371 112.2566058  60.4857891  27.7151944 112.4998611
  61.3115911  27.4155716 112.1197255  60.1351943  26.9459566 112.9488400
  65.4539424  27.0678412 114.5696285  64.8319434  26.4049117 114.2698513
  66.1244291  27.0939544 113.8869932  58.6866496  25.6338270 113.4587545
  57.8498405  25.2060445 113.2771546  58.6590142  25.8270714 114.3958336
  65.5263952  15.5460200 124.1628791  65.5752107  16.4222323 123.7806560
  66.0686466  15.0037593 123.5900434  76.0118798  26.0901323 123.4429928
  75.2214341  26.0725462 122.9034427  75.7752152  26.6289617 124.1978964
  76.1316673  22.9393790 120.7562656  76.1814678  22.7743797 121.6978179
  76.0230596  22.0721049 120.3660537  65.0152931  25.6182336 108.0454745
  65.1641052  26.3017800 107.3921418  65.8219375  25.5987426 108.5604201
  73.4220435  18.9224718 122.0721963  74.3230298  18.7831183 121.7805961
  73.4968410  19.0879173 123.0120140  67.7563240  16.2991573 120.9175149
  66.8866550  16.5925139 120.6457738  67.9922721  16.8832018 121.6382413
  77.6334869  25.3590731 121.0004678  77.3419678  25.7220712 121.8368139
  77.0207001  24.6457740 120.8218010  78.8330552  22.9243611 113.5207248
  79.6677443  23.3633415 113.6844808  78.9689681  22.4482264 112.7015494
  75.8822058  20.4823346 119.4684736  76.3576179  20.6750992 118.6603587
  74.9587623  20.5382532 119.2228119  62.7705564  21.6447513 109.0515814
  62.5251606  20.7409843 109.2496024  62.9401479  21.6464664 108.1095292
  70.4602274  12.5171190 118.4340570  70.9784218  13.2532216 118.1087058
  70.1057407  12.8235183 119.2687329  62.0401212  17.3775871 106.5501976
  61.3470457  17.4520226 105.8942012  61.7952964  16.6136214 107.0723492
  70.7114868   8.9371472 113.9541466  70.9916622   8.2694661 114.5801893
  71.4965475   9.1300568 113.4416130  68.5148337  28.1130466 105.5166493
  67.9422304  28.7320653 105.0636964  69.0881131  28.6629828 106.0506415
  74.5823727  17.3589106 117.7013041  75.5341150  17.4587204 117.7225265
  74.4127177  16.5667375 118.2111126  72.6038106  14.4444689 117.8872442
  72.0088038  14.7249702 117.1918931  72.3187803  14.9338590 118.6589183
  71.7345597  28.3967616 106.6475075  72.6676270  28.3313178 106.8507950
  71.6468809  29.2323883 106.1889608  74.3633613  27.7133486 103.6079022
  74.2847245  27.3793350 104.5014780  75.1843280  28.2055254 103.6070495
  77.0611805  20.5795226 116.8155341  77.0288125  19.6411226 117.0015025
  77.6712428  20.6579262 116.0821166  68.8995135  19.4491279 102.8582545
  69.8454240  19.3197487 102.9270963  68.5209380  18.7105941 103.3351973
  77.2106293  17.3706269 116.8613624  76.6945342  16.5864726 116.6743553
  78.0946242  17.0424986 117.0260144  74.8717020  11.1147285 112.8209437
  74.6741841  10.8062373 113.7052769  75.4816725  11.8408924 112.9507367
  82.8788354  21.6411233 115.9561378  83.6091743  21.3796521 116.5169081
  82.2695300  20.9039955 115.9963446  80.9603651  19.7819095 116.5535829
  80.2336815  19.6475060 115.9452321  80.5450938  20.0895924 117.3592547
  68.7833828  23.5009025 124.3183202  69.7036837  23.6787624 124.5123249
  68.7483411  22.5565070 124.1662901  67.0838053  17.3741255 102.7937430
  66.1769508  17.0774368 102.8700144  67.3614034  17.0771073 101.9271717
  58.0015993  18.6947619 113.2436477  57.6818777  17.8412927 112.9510851
  57.4549421  18.9096197 113.9994444  61.7795900  21.4110060 116.9605983
  61.9981910  22.3427167 116.9794017  62.1921674  21.0518034 117.7460787
  68.7000118  11.9178145 108.9481672  67.8900847  11.5725230 109.3236918
  69.3884535  11.6085689 109.5369283  70.6290667  10.9956192 110.5705968
  71.1821705  11.4151645 111.2295991  70.8660753  10.0691940 110.6128924
  66.6523766  16.9843265 126.3508732  66.5520493  17.9337622 126.2820823
  66.4345308  16.6561504 125.4784802  65.8536837  14.2328190 102.9349410
  66.7156001  14.5583089 103.1945227  66.0387181  13.4459686 102.4222475
  57.8704253  22.3150530 115.2129598  57.1767724  21.9004483 114.6999553
  58.6177244  22.3571067 114.6163017  74.0069474  13.1056717 110.0784633
  73.4268143  13.7641521 109.6962685  73.7405406  12.2834061 109.6672050
  72.4573040  12.5061775 112.2805953  72.9572818  12.6178309 111.4720272
  73.1008648  12.2022827 112.9206761  66.5155036  20.4140404 125.1673794
  66.0322118  21.2140764 125.3737683  66.6015975  20.4248349 124.2141238
  59.7840995  22.2468784 113.0895613  59.7611684  22.3456471 112.1377496
  60.0941632  23.0933935 113.4112779  62.4428373  24.3044939 117.2042228
  63.3971627  24.2728881 117.1372159  62.2440897  23.8435563 118.0192454
  63.0327755  22.8746055 119.7713025  63.8520644  23.3690134 119.7947863
  63.3064563  21.9578023 119.7430593  72.7894352  15.2656807 109.1340981
  71.9020207  15.5506458 108.9161176  73.2048341  15.1050571 108.2868258
  76.1408888  15.2903328 112.8495320  76.9169278  15.7799781 113.1219937
  75.4157022  15.7161382 113.3067190  78.5781446  16.0030947 113.9069261
  79.1725937  15.7626683 113.1962569  78.6508030  15.2838078 114.5342797
  60.7978602  29.8464558 114.2212425  60.6633070  29.0864959 113.6550424
  60.3810664  30.5705458 113.7541214  71.9337565  25.0301482 103.2289001
  72.6373415  25.2351484 103.8446656  71.2100214  25.5978244 103.4938084
  72.7635375  20.7811343 109.3491271  72.7070577  21.2379895 108.5098903
  73.3163718  20.0202028 109.1714114  76.5740181  16.5701075 110.1741390
  76.3177116  16.1697711 111.0049598  75.9493049  17.2844869 110.0491530
  80.8852519  19.3097148 112.6812682  80.3252077  19.3790338 113.4544244
  80.2796023  19.1338133 111.9612178  63.9547728  30.7433875 114.4330868
  63.8380112  31.6879308 114.3309558  63.1340174  30.4407437 114.8216667
  73.8424263  25.4684011 105.2787461  74.6769866  25.0365210 105.0964936
  73.6808605  25.2966025 106.2064355  73.4970155  21.9716124 106.6443800
  73.4418958  21.8060396 105.7032244  72.8716210  22.6792157 106.8005990
  58.2862670  17.2084189 120.4705222  58.9321533  16.6983143 120.9592448
  58.0779821  17.9452870 121.0448648  70.8116062  24.2765036 125.9697363
  71.6807222  24.4505689 125.6083998  70.3322813  25.0959453 125.8473092
  66.8066280  11.4724233 106.2229119  66.7944950  12.4166073 106.3797389
  67.6989702  11.2894379 105.9288580  64.9802242  31.3962137 117.6486797
  65.8829489  31.4285747 117.9653292  64.7539612  30.4662588 117.6633132
  66.7355844  30.1493124 114.3096875  65.7851475  30.1494985 114.1961247
  67.0388330  29.4025858 113.7932910  70.6218400   8.0667010 110.4775055
  69.8550795   7.5125497 110.6231738  71.0329105   8.1388879 111.3389207
  82.4708538  35.9853662 115.3742638  83.1086948  35.8660410 114.6705978
  82.3529380  36.9334506 115.4330590  79.2798244  35.9381090 115.3104162
  78.9416755  35.8222155 114.4224697  80.1488012  35.5372255 115.2905168
  75.1385060  37.7916567 111.3001053  74.5749925  37.7006504 110.5317341
  75.0237455  36.9716471 111.7803546  79.7618027  37.0915942 121.2690368
  79.7506668  36.6968740 120.3970871  79.9238666  36.3582015 121.8624139
  72.6849492  39.2867758 114.1385274  73.4770783  38.9458583 113.7231573
  72.9246142  39.3962733 115.0587427  80.7184618  41.4587534 106.6115518
  80.0672598  42.0441615 106.2249532  81.5128981  41.9893729 106.6710556
  74.6440245  38.5476672 107.0102652  75.4171121  38.0005659 106.8715528
  74.9965644  39.4120921 107.2217114  76.4825288  39.8753054 120.2169552
  76.1915154  40.7798685 120.1016218  77.1182272  39.9169581 120.9313621
  77.4081495  37.2529902 116.8070911  78.0045067  37.0285925 116.0927874
  77.4656466  36.5114648 117.4096359  76.9806523  34.7069338 104.6421102
  77.2332044  34.1850859 103.8804565  76.0431082  34.5435483 104.7447786
  82.0249806  33.7105116 112.4495846  82.8112895  33.2924539 112.0986263
  82.2888510  34.6151208 112.6177494  82.1959883  39.1477966 107.1484502
  81.5605716  39.2212593 107.8605407  81.8657290  39.7371565 106.4703582
  87.4258233  33.6480349 113.3528824  88.1583405  33.0779566 113.5866654
  86.6697589  33.2601950 113.7935330  76.7002812  36.6097444 106.8445477
  76.5839070  35.9342347 107.5126562  76.8105072  36.1229818 106.0277630
  79.0434353  36.0707591 110.5492167  78.6792560  35.5438212 111.2605088
  79.9001469  35.6806060 110.3758652  84.9483654  27.3601923 117.8123433
  84.6166978  28.2297334 117.5884648  84.3529267  27.0438207 118.4917463
  78.6839840  31.0997490 105.5453515  78.8514242  31.9677727 105.9123986
  78.4937009  31.2624772 104.6214804  81.4415173  39.5614469 117.2119345
  81.1415896  40.4639508 117.1035153  81.0966233  39.2946653 118.0640498
  74.8927655  36.0128266 113.2456050  73.9678151  35.8804480 113.4533742
  75.1412068  36.7922485 113.7425992  84.8412317  32.0797010 114.8916783
  83.9329194  32.0112418 114.5975544  84.7899913  32.5568954 115.7198608
  78.6629061  33.5555148 106.5300182  78.5428686  34.0012199 107.3685662
  77.9681649  33.9040466 105.9713720  72.2536466  35.6561540 114.0799839
  72.3828847  35.9096019 114.9939251  71.5733917  36.2489248 113.7604494
  76.4235953  46.3258790 110.1790313  76.3459983  47.2766615 110.2578794
  75.8197596  45.9804662 110.8365239  78.9153183  33.4986655 122.8351680
  78.1386517  34.0580575 122.8254545  79.5543746  33.9843438 123.3566550
  86.7073963  30.2813448 116.6694657  86.0648344  30.5745981 116.0234451
  86.2028892  30.1666368 117.4747853  84.3614127  34.0276621 107.3580516
  85.2731983  34.2604008 107.1828214  83.8523774  34.6113665 106.7955595
  77.1699555  36.3072108 122.3969647  77.9114239  36.8457152 122.1204471
  76.4636540  36.9338397 122.5541199  82.6454895  38.4501249 120.9941809
  83.0538251  38.0083659 120.2496441  81.9232156  37.8753876 121.2476001
  78.9985965  33.3873856 118.3675366  79.8447160  33.8113269 118.5110015
  78.9384602  32.7307480 119.0613929  82.9683709  39.0102440 114.7494097
  82.3392572  39.1748154 114.0470165  82.5809371  39.4244049 115.5205061
  86.8472941  39.9456877 112.1038461  86.1623979  40.3255779 111.5535495
  86.9316790  40.5552204 112.8370409  82.1485410  31.0478224 120.0256539
  81.9046342  31.8020285 119.4890815  82.4245341  31.4263572 120.8603786
  84.1023873  37.5916836 118.7033805  84.3140768  38.2348596 118.0268186
  84.0553621  36.7579153 118.2355735  81.7050102  30.2034657 115.6070377
  80.8434581  30.5015911 115.8987114  81.7312536  30.4205056 114.6751410
  78.5211671  38.7476848 112.0144183  78.9850017  39.0264551 111.2248805
  78.2568469  37.8460292 111.8317273  75.4135752  38.2948329 114.9523946
  75.9837109  38.7235598 114.3141430  76.0043864  38.0130914 115.6508131
  77.4580557  34.8700000 108.8233748  78.1604601  35.3221044 109.2907674
  77.1261186  34.2283819 109.4513641  75.9060919  33.4611757 123.1984957
  75.2759579  34.1428037 123.4320354  75.7997007  33.3494838 122.2538095
  71.2005891  33.1283553 114.1250881  70.4104945  33.3841081 113.6490992
  71.6917139  33.9431891 114.2302922  85.2169701  40.4688792 116.8756162
  86.0387144  40.0668979 116.5938844  85.2132104  40.3657026 117.8272278
  73.1520637  33.4928132 111.0834358  72.3551800  33.6046826 111.6017854
  72.9246229  33.8314784 110.2175248  78.9826304  40.0172835 119.0316873
  79.0470737  40.4793242 119.8675044  78.2737228  39.3870200 119.1599182
  69.4843594  33.3814043 116.5565872  69.7351633  34.2661053 116.8223448
  70.0203143  33.2018645 115.7840964  93.3075694  36.8127540 113.2241134
  92.5539402  36.2434938 113.0685138  93.4423235  36.7790205 114.1711768
  78.6974322  41.6840943 108.8995853  78.5619997  42.5292478 109.3280701
  79.2384134  41.8860220 108.1361787  75.1841661  27.7632522 125.5610208
  74.7908607  27.2098721 126.2357852  76.0007802  28.0743101 125.9516726
  72.1503719  39.2016381 109.4723778  72.6628240  39.9959631 109.6229343
  72.8026432  38.5042671 109.4057379  73.9598604  42.3182137 111.5546531
  74.1365232  43.2400102 111.3667515  74.7555437  42.0040556 111.9840911
  78.1009622  29.1790402 123.1530465  78.8419336  29.7797555 123.0734927
  78.3327545  28.4368039 122.5948507  73.2450960  34.3646769 121.4308694
  73.1304476  33.4632026 121.7315793  72.3895478  34.6110466 121.0793511
  80.3242798  42.3064509 123.0296195  79.8806652  41.5200888 122.7117099
  80.9860012  42.4943660 122.3640086  75.0829919  43.8360311 117.5556873
  75.6337344  43.7077374 116.7833867  74.2441395  44.1355200 117.2051766
  82.4224036  42.5867309 121.0577596  82.4042512  43.4076190 120.5657865
  83.3443956  42.4621384 121.2827737  78.8797090  40.1011439 121.9001105
  79.4125427  39.3399727 121.6700413  78.3511172  39.8085090 122.6425259
  82.0466785  25.2071504 117.4294746  81.7031055  26.0973146 117.3533857
  82.4145748  25.0173162 116.5664331  70.1152636  37.5305035 110.2483349
  70.9527858  37.9402043 110.0317056  70.2930904  36.5904477 110.2183542
  82.0117068  35.1980116 105.9367181  81.4963692  35.9684720 106.1755569
  81.7394377  34.5245252 106.5600243  79.5964179  30.0429816 110.9952420
  78.7405775  29.6536667 110.8158059  80.0091131  30.1221777 110.1352205
  81.1263326  27.5776160 115.3943980  80.6228121  27.5406295 114.5811785
  81.4193933  28.4868902 115.4540636  77.3706212  27.6614889 114.4010161
  78.2359208  27.4657698 114.0416051  77.4383721  27.4325241 115.3279518
  86.9851342  37.9512470 107.8720355  86.2080785  37.6123630 107.4275517
  87.6642823  37.9565093 107.1975320  81.8003371  33.0707208 107.7626963
  81.4953507  33.3853357 108.6137106  82.7533813  33.1488628 107.8054296
  80.2449803  39.2297431 109.4119917  79.7171165  38.4950191 109.0993154
  79.7437306  40.0072107 109.1659885  85.2242649  37.4246452 114.5286963
  84.5666324  38.1145713 114.6167092  86.0283048  37.8142883 114.8720949
  74.9768531  29.8917097 111.7726528  75.5512283  29.6692279 111.0399721
  75.5639513  29.9605792 112.5255129  84.0348108  35.7790824 112.5790905
  84.5479990  36.4120816 113.0812614  84.6849332  35.1792020 112.2134265
  75.3038118  31.9221558 105.7922413  74.4675430  32.2596245 106.1131688
  75.1642887  31.7870538 104.8549550  77.2791198  26.7658346 110.5001598
  76.6255611  26.4507363 109.8758212  77.2371673  26.1434087 111.2261421
  78.3902403  37.0477641 102.4154890  77.4829465  36.8166895 102.6146039
  78.8873435  36.2515261 102.6028871  81.2970482  45.7575148 105.3351576
  80.6232181  46.0606845 105.9436534  81.6836304  46.5604229 104.9857033
  80.5128939  33.2540280 114.8249245  79.5951500  33.4755227 114.6670933
  80.9289082  33.3286590 113.9660953  81.2963987  34.6531695 109.9551925
  82.0435806  35.1653093 109.6459048  81.5655576  34.3315748 110.8156319
  79.5690637  37.1490236 106.9378880  78.6601856  36.8649269 107.0351350
  79.5985721  37.5689315 106.0782187  84.8009904  40.7596826 110.7070047
  84.3472231  39.9187736 110.7635238  84.1703871  41.3958224 111.0444827
  83.7442824  31.6888812 111.9370715  83.0065581  31.1766198 112.2680957
  83.9969597  31.2489193 111.1253992  83.2442843  42.5973322 111.6419865
  83.5365818  43.1578379 110.9232231  83.7541464  42.8901883 112.3973025
  83.8454451  24.4665064 112.5312484  84.1513328  23.6062427 112.2438399
  84.5707056  25.0582684 112.3311478  70.1378807  34.8695750 110.9194082
  69.9403207  34.2765111 110.1945149  69.5825471  34.5647960 111.6370021
  78.1175531  34.7618857 113.0388675  78.1724141  33.8092693 112.9631152
  77.3066733  34.9178296 113.5229974  79.2666725  38.6898980 104.2766958
  78.8286154  37.9734839 103.8172596  80.0077165  38.9175095 103.7152050
  76.0567891  33.3795916 110.7979054  75.2435756  33.6790087 111.2044246
  76.5526885  32.9851605 111.5153536  78.2076469  43.3753673 112.7313319
  78.1652647  43.6014520 111.8021851  79.1239167  43.1417048 112.8799120
  81.6542102  33.8437741 119.6293948  82.0091490  34.0709214 120.4888414
  82.3014234  34.1756118 119.0071203  87.3839839  36.9656177 110.3343277
  87.2457738  37.1557773 109.4064466  87.0276058  37.7275560 110.7911328
  75.5481965  30.9514272 116.4140289  76.1881345  30.8103031 115.7163252
  74.7159496  30.6648785 116.0378891  87.4109219  39.0332704 115.3454548
  87.8445726  38.9407993 116.1937602  88.1240800  39.0090204 114.7074564
  76.3242269  40.2516702 112.5275281  77.1182868  39.7567023 112.3257856
  75.6133962  39.7234566 112.1642987  81.1437114  42.6334798 116.8787649
  81.1974136  43.2025734 117.6465365  80.2751895  42.8036683 116.5141686
  72.6325033  34.3959784 108.6035034  71.7022621  34.3344240 108.8204996
  72.7282505  33.8735737 107.8071675  72.5510582  30.9214597 111.1913276
  72.8117399  31.8359930 111.0822436  73.3727754  30.4539040 111.3409889
  74.0235507  32.3352354 118.3612100  74.6958561  32.1269716 117.7124749
  73.1965294  32.1374440 117.9217333  88.2724768  39.0756405 117.8787434
  88.4660659  39.9802215 118.1246709  88.1725387  38.6163824 118.7126019
  79.9261079  28.9614295 120.3777761  79.2788994  29.6604245 120.2842238
  80.6962095  29.3950439 120.7454009  83.3339877  39.2263147 123.4528314
  83.1825384  38.9973699 122.5358398  83.3244557  40.1833749 123.4659659
  80.1025214  36.7995060 118.4374581  81.0317274  36.9506220 118.2643548
  79.6816244  36.8879081 117.5823227  78.9013545  40.8245724 116.2073118
  78.7624631  40.4564509 117.0799057  78.1128142  41.3393364 116.0357076
  79.4961697  45.9254821 107.5498655  79.6713453  45.4542864 108.3644278
  78.8094485  46.5520587 107.7779916  80.4518761  40.2027327 113.5961956
  80.1168593  40.1628097 114.4919606  79.9522706  39.5372043 113.1232366
  74.4263004  35.6094957 119.1214537  74.2882802  34.8775196 119.7226076
  75.3367928  35.5203857 118.8398725  83.3877952  37.5483361 103.8699016
  82.7707123  36.8230190 103.7732069  82.9194441  38.3092722 103.5266090
  77.0545305  35.3214916 118.6098217  77.7644924  34.6808109 118.5684836
  77.0114613  35.5727811 119.5324398  85.0432084  42.2582270 121.5304796
  84.9844630  41.5741490 120.8635379  85.4451602  43.0001260 121.0785422
  75.7674239  32.3080134 120.4293857  75.2311596  31.8570873 121.0815453
  75.1790948  32.4426043 119.6864321  74.0622783  49.0744184 114.3238515
  74.3019381  49.7062708 115.0017534  73.2191979  48.7232224 114.6103874
  75.1776498  31.7668786 102.9920320  74.3005964  31.6457587 102.6282567
  75.6534251  30.9754864 102.7399209  85.0449491  40.2221854 119.7618776
  84.1576270  39.8847776 119.8845175  85.6148042  39.4904885 119.9987541
  66.6978638  36.5545945 113.0861827  67.3849678  36.2407676 112.4982843
  66.5426767  37.4587310 112.8129079  71.5013360  31.4436142 117.5146851
  71.4171549  30.8361812 116.7797261  70.6796067  31.9345160 117.5156347
  78.5750644  44.8823306 116.7280019  78.5020816  45.6878278 117.2399324
  78.1328038  45.0815272 115.9028041  78.3640424  44.1195076 110.2382841
  77.5807946  44.6616756 110.3321065  79.0633169  44.6369056 110.6377082
  81.6737074  29.9289706 112.8817046  82.1705774  29.1759668 112.5618116
  80.9024056  29.9654022 112.3160255  89.5266832  35.6330071 114.5235338
  89.5156708  36.5154787 114.1529271  88.6584211  35.2801622 114.3289875
  81.0349328  44.7810140 118.8838178  81.7477300  45.4157605 118.8114079
  80.5439357  44.8774006 118.0678180  82.7566855  38.6861393 110.4555469
  81.8223134  38.8062855 110.2860174  82.9343523  37.7833860 110.1915479
  78.2572043  32.0707089 112.6088731  77.8869830  31.5178129 113.2969636
  78.7531135  31.4665222 112.0563731  86.1439406  34.5278712 110.9905504
  86.6099858  35.3606704 110.9165806  86.5946907  34.0623694 111.6950762
  76.0861242  42.5304584 119.7043749  76.7870701  43.1641067 119.8573143
  75.6156357  42.8719315 118.9439388  84.2115637  40.8722533 107.9891656
  84.4875481  40.7579128 108.8985530  83.3420136  40.4740018 107.9503829
  84.1156069  26.8959299 115.0296405  83.2019149  27.1263526 115.1978612
  84.5449170  26.9797743 115.8810437  83.8862528  35.0849191 117.5296299
  83.2333978  35.3325098 116.8748752  84.2642907  34.2713329 117.1958776
  80.8469701  45.1208884 111.6324469  81.0292096  44.3030540 112.0952222
  81.6702687  45.3376576 111.1949359  81.1811867  44.0477069 108.8939518
  81.7099633  43.5369524 108.2809680  81.4440086  43.7319600 109.7585051
  79.9350101  35.8269002 124.0162336  79.2590738  35.7263131 124.6864711
  80.7577734  35.6708216 124.4798333  71.6828960  42.0640939 116.6374851
  72.2682396  41.3184627 116.7702756  71.4853798  42.3744895 117.5211515
  74.5367615  45.0992186 111.6537294  73.8677990  45.5838314 111.1701334
  74.3980485  45.3461406 112.5680672  66.2746614  34.6346539 115.3579294
  66.3130714  34.1010130 116.1516413  65.7686907  34.1081744 114.7390272
  78.6772883  47.1335930 118.2519952  79.2291191  47.2967551 119.0169037
  79.0179077  47.7240367 117.5799977  73.6537377  29.4811079 118.8541837
  73.7178703  30.3425910 118.4419234  73.5904497  28.8685081 118.1214195
  73.1289649  31.5534212 122.5014871  73.7561688  31.1711289 123.1152395
  72.2717568  31.3348414 122.8670564  83.5283758  41.9597187 124.1068607
  84.0723662  42.5727145 123.6123561  82.9470603  42.5176765 124.6235620
  69.9055192  33.3610641 108.4333226  70.2008633  32.4521319 108.3800280
  69.0043228  33.3398380 108.1114228  81.8141271  45.0817905 115.2383634
  81.6892410  44.2807645 114.7294580  82.4720362  45.5764098 114.7497604
  73.4349439  31.4366638 114.4160774  72.7136025  32.0502605 114.2768248
  74.2242695  31.9724402 114.3377420  83.8776179  42.8826925 116.8663184
  82.9306515  42.7632276 116.7941511  84.2258952  41.9949423 116.9489446
  76.2375752  28.7721064 120.6901426  76.7610154  29.0183361 121.4527736
  76.0188086  29.6041099 120.2704564  71.6343033  31.0424739 108.5572551
  71.3055740  30.1622118 108.3747657  71.9882404  30.9872407 109.4448940
  80.8822612  42.6779641 113.0667537  80.7347575  41.7496349 113.2475107
  81.7076106  42.6999732 112.5824612  74.7484857  31.3297708 108.9248029
  75.0880929  31.8583630 108.2026637  75.1956977  31.6678115 109.7006595
  84.4856734  43.5008200 114.1532409  85.4103282  43.2951061 114.0156860
  84.3172038  43.2524601 115.0621751  77.4428297  29.7134759 118.3751097
  77.1025118  28.9142572 118.7771777  76.7367304  30.0136470 117.8027930
  78.0944769  26.7984072 116.8278420  78.9170839  26.3244550 116.7057310
  78.3382833  27.5774555 117.3277106  76.7353004  29.8272330 107.1241321
  77.4561366  30.2053583 106.6205038  76.1118308  30.5461207 107.2276299
  80.8784127  30.5317479 108.0599654  81.0947741  31.4142117 107.7588482
  80.3978194  30.1403692 107.3305296  75.6183348  33.4903192 114.6370398
  75.4727929  33.8043495 115.5294680  75.1408552  34.1088093 114.0841297
  77.4779731  30.4805740 114.6851288  77.4641300  29.5846834 114.3483586
  78.1952159  30.4876404 115.3189574  79.3305862  30.9143080 116.7304415
  79.0723639  31.8360151 116.7288746  78.7990902  30.5173515 117.4204880
  84.2752050  44.0193868 109.5094501  84.4488928  43.4540290 108.7568353
  84.7680942  44.8194762 109.3273991  70.0929010  36.0308537 117.5758060
  69.5482478  36.8068345 117.7078334  70.9708360  36.3779341 117.4177181
  76.8816627  29.3620121 109.9538858  77.0032538  28.4336767 110.1529746
  76.5918669  29.3758806 109.0417174  79.7507817  27.0475031 113.0905578
  79.7729514  27.1114364 112.1357557  80.1675876  26.2079540 113.2846084
  90.1291442  36.7830291 111.1284800  90.5722588  36.0337616 110.7303924
  89.2517952  36.7740427 110.7458532  85.2627223  43.3360632 106.6091399
  85.9578128  43.9567325 106.8278714  85.6050373  42.4855983 106.8843777
  70.8795032  35.1578433 120.4688216  70.1376768  35.3061068 121.0552847
  70.5587776  35.4186699 119.6054966  87.1618646  40.7860337 108.1378730
  87.6869970  41.1247610 107.4128050  87.0740999  39.8507353 107.9541864
  78.8238695  44.6994411 120.2668606  79.1325821  44.4543558 121.1391306
  79.6214177  44.9041050 119.7787477  78.8459307  46.8532321 112.4973983
  78.4064297  46.3608699 113.1906840  79.5967424  46.3105288 112.2566058
  71.3251646  43.0443862 112.4998611  72.1509666  42.7447634 112.1197255
  70.9745698  42.2751484 112.9488400  76.2933179  42.3970330 114.5696285
  75.6713188  41.7341035 114.2698513  76.9638046  42.4231462 113.8869932
  69.5260251  40.9630188 113.4587545  68.6892159  40.5352362 113.2771546
  69.4983896  41.1562631 114.3958336  76.3657706  30.8752118 124.1628791
  76.4145862  31.7514241 123.7806560  76.9080221  30.3329511 123.5900434
  86.8512552  41.4193241 123.4429928  86.0608096  41.4017380 122.9034427
  86.6145907  41.9581535 124.1978964  86.9710427  38.2685708 120.7562656
  87.0208432  38.1035715 121.6978179  86.8624350  37.4012967 120.3660537
  75.8546686  40.9474253 108.0454745  76.0034806  41.6309718 107.3921418
  76.6613129  40.9279343 108.5604201  84.2614190  34.2516636 122.0721963
  85.1624052  34.1123100 121.7805961  84.3362164  34.4171090 123.0120140
  78.5956995  31.6283490 120.9175149  77.7260304  31.9217056 120.6457738
  78.8316475  32.2123935 121.6382413  88.4728624  40.6882649 121.0004678
  88.1813432  41.0512630 121.8368139  87.8600755  39.9749657 120.8218010
  89.6724306  38.2535529 113.5207248  90.5071198  38.6925333 113.6844808
  89.8083435  37.7774182 112.7015494  86.7215812  35.8115264 119.4684736
  87.1969934  36.0042910 118.6603587  85.7981378  35.8674449 119.2228119
  73.6099319  36.9739431 109.0515814  73.3645361  36.0701761 109.2496024
  73.7795233  36.9756581 108.1095292  81.2996029  27.8463107 118.4340570
  81.8177973  28.5824134 118.1087058  80.9451161  28.1527101 119.2687329
  72.8794966  32.7067788 106.5501976  72.1864211  32.7812143 105.8942012
  72.6346718  31.9428132 107.0723492  81.5508623  24.2663390 113.9541466
  81.8310377  23.5986579 114.5801893  82.3359230  24.4592485 113.4416130
  79.3542091  43.4422384 105.5166493  78.7816058  44.0612571 105.0636964
  79.9274885  43.9921745 106.0506415  85.4217481  32.6881024 117.7013041
  86.3734904  32.7879121 117.7225265  85.2520932  31.8959292 118.2111126
  83.4431861  29.7736607 117.8872442  82.8481793  30.0541620 117.1918931
  83.1581557  30.2630508 118.6589183  82.5739351  43.7259534 106.6475075
  83.5070024  43.6605095 106.8507950  82.4862564  44.5615801 106.1889608
  85.2027368  43.0425404 103.6079022  85.1240999  42.7085268 104.5014780
  86.0237035  43.5347172 103.6070495  87.9005559  35.9087143 116.8155341
  87.8681879  34.9703144 117.0015025  88.5106183  35.9871180 116.0821166
  79.7388890  34.7783196 102.8582545  80.6847995  34.6489405 102.9270963
  79.3603135  34.0397858 103.3351973  88.0500047  32.6998187 116.8613624
  87.5339096  31.9156643 116.6743553  88.9339996  32.3716903 117.0260144
  85.7110774  26.4439202 112.8209437  85.5135596  26.1354291 113.7052769
  86.3210480  27.1700841 112.9507367  93.7182109  36.9703150 115.9561378
  94.4485497  36.7088438 116.5169081  93.1089054  36.2331872 115.9963446
  91.7997406  35.1111013 116.5535829  91.0730570  34.9766978 115.9452321
  91.3844693  35.4187841 117.3592547  79.6227582  38.8300943 124.3183202
  80.5430592  39.0079542 124.5123249  79.5877165  37.8856988 124.1662901
  77.9231807  32.7033173 102.7937430  77.0163262  32.4066286 102.8700144
  78.2007788  32.4062991 101.9271717  68.8409747  34.0239536 113.2436477
  68.5212532  33.1704844 112.9510851  68.2943176  34.2388114 113.9994444
  72.6189655  36.7401977 116.9605983  72.8375665  37.6719085 116.9794017
  73.0315429  36.3809952 117.7460787  79.5393873  27.2470063 108.9481672
  78.7294601  26.9017147 109.3236918  80.2278290  26.9377606 109.5369283
  81.4684421  26.3248109 110.5705968  82.0215460  26.7443563 111.2295991
  81.7054507  25.3983857 110.6128924  77.4917520  32.3135183 126.3508732
  77.3914247  33.2629540 126.2820823  77.2739062  31.9853422 125.4784802
  76.6930592  29.5620108 102.9349410  77.5549756  29.8875006 103.1945227
  76.8780936  28.7751604 102.4222475  68.7098007  37.6442448 115.2129598
  68.0161479  37.2296400 114.6999553  69.4570998  37.6862984 114.6163017
  84.8463228  28.4348634 110.0784633  84.2661897  29.0933439 109.6962685
  84.5799161  27.6125979 109.6672050  83.2966794  27.8353692 112.2805953
  83.7966573  27.9470227 111.4720272  83.9402402  27.5314745 112.9206761
  77.3548790  35.7432322 125.1673794  76.8715872  36.5432682 125.3737683
  77.4409729  35.7540267 124.2141238  70.6234750  37.5760701 113.0895613
  70.6005438  37.6748389 112.1377496  70.9335386  38.4225852 113.4112779
  73.2822128  39.6336856 117.2042228  74.2365381  39.6020799 117.1372159
  73.0834651  39.1727480 118.0192454  73.8721510  38.2037973 119.7713025
  74.6914399  38.6982051 119.7947863  74.1458318  37.2869941 119.7430593
  83.6288106  30.5948725 109.1340981  82.7413961  30.8798375 108.9161176
  84.0442095  30.4342488 108.2868258  86.9802642  30.6195246 112.8495320
  87.7563032  31.1091698 113.1219937  86.2550776  31.0453300 113.3067190
  89.4175201  31.3322865 113.9069261  90.0119692  31.0918601 113.1962569
  89.4901785  30.6129996 114.5342797  71.6372357  45.1756476 114.2212425
  71.5026825  44.4156877 113.6550424  71.2204419  45.8997376 113.7541214
  82.7731320  40.3593400 103.2289001  83.4767170  40.5643402 103.8446656
  82.0493968  40.9270161 103.4938084  83.6029130  36.1103261 109.3491271
  83.5464331  36.5671812 108.5098903  84.1557472  35.3493945 109.1714114
  87.4133936  31.8992993 110.1741390  87.1570870  31.4989628 111.0049598
  86.7886804  32.6136787 110.0491530  91.7246274  34.6389066 112.6812682
  91.1645832  34.7082255 113.4544244  91.1189777  34.4630051 111.9612178
  74.7941482  46.0725793 114.4330868  74.6773867  47.0171225 114.3309558
  73.9733929  45.7699355 114.8216667  84.6818017  40.7975929 105.2787461
  85.5163621  40.3657127 105.0964936  84.5202360  40.6257942 106.2064355
  84.3363909  37.3008042 106.6443800  84.2812713  37.1352313 105.7032244
  83.7109964  38.0084075 106.8005990  69.1256424  32.5376106 120.4705222
  69.7715288  32.0275060 120.9592448  68.9173575  33.2744788 121.0448648
  81.6509816  39.6056954 125.9697363  82.5200976  39.7797606 125.6083998
  81.1716568  40.4251371 125.8473092  77.6460035  26.8016151 106.2229119
  77.6338704  27.7457991 106.3797389  78.5383457  26.6186296 105.9288580
  75.8195997  46.7254055 117.6486797  76.7223243  46.7577665 117.9653292
  75.5933367  45.7954506 117.6633132  77.5749599  45.4785041 114.3096875
  76.6245230  45.4786903 114.1961247  77.8782085  44.7317776 113.7932910
  81.4612154  23.3958928 110.4775055  80.6944550  22.8417414 110.6231738
  81.8722859  23.4680796 111.3389207  73.4653915  29.6843723 124.5680237
  74.3285377  29.3280528 124.7783561  72.8919326  29.3457618 125.2555641
  93.3102292  51.3145580 115.3742638  93.9480702  51.1952327 114.6705978
  93.1923135  52.2626424 115.4330590  90.1191998  51.2673008 115.3104162
  89.7810510  51.1514073 114.4224697  90.9881767  50.8664173 115.2905168
  85.9778814  53.1208484 111.3001053  85.4143679  53.0298421 110.5317341
  85.8631209  52.3008389 111.7803546  90.6011781  52.4207860 121.2690368
  90.5900422  52.0260658 120.3970871  90.7632421  51.6873932 121.8624139
  83.5243246  54.6159676 114.1385274  84.3164538  54.2750501 113.7231573
  83.7639896  54.7254651 115.0587427  91.5578373  56.7879452 106.6115518
  90.9066353  57.3733532 106.2249532  92.3522736  57.3185647 106.6710556
  85.4834000  53.8768589 107.0102652  86.2564876  53.3297576 106.8715528
  85.8359399  54.7412839 107.2217114  87.3219043  55.2044971 120.2169552
  87.0308908  56.1090602 120.1016218  87.9576027  55.2461499 120.9313621
  88.2475249  52.5821820 116.8070911  88.8438822  52.3577842 116.0927874
  88.3050221  51.8406565 117.4096359  87.8200278  50.0361255 104.6421102
  88.0725798  49.5142777 103.8804565  86.8824837  49.8727401 104.7447786
  92.8643561  49.0397034 112.4495846  93.6506650  48.6216457 112.0986263
  93.1282265  49.9443126 112.6177494  93.0353638  54.4769884 107.1484502
  92.3999471  54.5504511 107.8605407  92.7051044  55.0663483 106.4703582
  98.2651988  48.9772267 113.3528824  98.9977160  48.4071484 113.5866654
  97.5091343  48.5893867 113.7935330  87.5396567  51.9389361 106.8445477
  87.4232825  51.2634265 107.5126562  87.6498826  51.4521735 106.0277630
  89.8828107  51.3999508 110.5492167  89.5186315  50.8730129 111.2605088
  90.7395223  51.0097977 110.3758652  95.7877408  42.6893841 117.8123433
  95.4560733  43.5589252 117.5884648  95.1923021  42.3730125 118.4917463
  89.5233594  46.4289408 105.5453515  89.6907997  47.2969644 105.9123986
  89.3330763  46.5916690 104.6214804  92.2808928  54.8906387 117.2119345
  91.9809651  55.7931426 117.1035153  91.9359987  54.6238570 118.0640498
  85.7321409  51.3420184 113.2456050  84.8071906  51.2096398 113.4533742
  85.9805822  52.1214403 113.7425992  95.6806071  47.4088927 114.8916783
  94.7722949  47.3404336 114.5975544  95.6293667  47.8860872 115.7198608
  89.5022815  48.8847066 106.5300182  89.3822440  49.3304116 107.3685662
  88.8075404  49.2332383 105.9713720  83.0930220  50.9853457 114.0799839
  83.2222601  51.2387936 114.9939251  82.4127671  51.5781165 113.7604494
  87.2629707  61.6550707 110.1790313  87.1853737  62.6058532 110.2578794
  86.6591351  61.3096580 110.8365239  89.7546937  48.8278573 122.8351680
  88.9780271  49.3872493 122.8254545  90.3937500  49.3135356 123.3566550
  97.5467718  45.6105366 116.6694657  96.9042098  45.9037899 116.0234451
  97.0422646  45.4958286 117.4747853  95.2007881  49.3568539 107.3580516
  96.1125738  49.5895926 107.1828214  94.6917529  49.9405583 106.7955595
  88.0093309  51.6364026 122.3969647  88.7507994  52.1749070 122.1204471
  87.3030295  52.2630315 122.5541199  93.4848649  53.7793167 120.9941809
  93.8932005  53.3375577 120.2496441  92.7625911  53.2045794 121.2476001
  89.8379719  48.7165773 118.3675366  90.6840914  49.1405187 118.5110015
  89.7778357  48.0599398 119.0613929  93.8077464  54.3394357 114.7494097
  93.1786326  54.5040071 114.0470165  93.4203126  54.7535967 115.5205061
  97.6866696  55.2748795 112.1038461  97.0017734  55.6547696 111.5535495
  97.7710545  55.8844122 112.8370409  92.9879164  46.3770142 120.0256539
  92.7440096  47.1312202 119.4890815  93.2639095  46.7555489 120.8603786
  94.9417627  52.9208754 118.7033805  95.1534522  53.5640514 118.0268186
  94.8947376  52.0871071 118.2355735  92.5443856  45.5326575 115.6070377
  91.6828335  45.8307828 115.8987114  92.5706291  45.7496974 114.6751410
  89.3605426  54.0768765 112.0144183  89.8243771  54.3556468 111.2248805
  89.0962224  53.1752210 111.8317273  86.2529507  53.6240247 114.9523946
  86.8230864  54.0527515 114.3141430  86.8437619  53.3422832 115.6508131
  88.2974312  50.1991918 108.8233748  88.9998355  50.6512961 109.2907674
  87.9654940  49.5575737 109.4513641  86.7454673  48.7903674 123.1984957
  86.1153334  49.4719955 123.4320354  86.6390761  48.6786756 122.2538095
  82.0399646  48.4575470 114.1250881  81.2498700  48.7132999 113.6490992
  82.5310893  49.2723808 114.2302922  96.0563455  55.7980710 116.8756162
  96.8780899  55.3960897 116.5938844  96.0525858  55.6948944 117.8272278
  83.9914391  48.8220050 111.0834358  83.1945554  48.9338744 111.6017854
  83.7639983  49.1606702 110.2175248  89.8220059  55.3464753 119.0316873
  89.8864491  55.8085160 119.8675044  89.1130983  54.7162118 119.1599182
  80.3237349  48.7105961 116.5565872  80.5745387  49.5952971 116.8223448
  80.8596897  48.5310562 115.7840964 104.1469448  52.1419458 113.2241134
 103.3933157  51.5726856 113.0685138 104.2816989  52.1082122 114.1711768
  89.5368076  57.0132860 108.8995853  89.4013751  57.8584396 109.3280701
  90.0777889  57.2152138 108.1361787  86.0235416  43.0924440 125.5610208
  85.6302362  42.5390639 126.2357852  86.8401556  43.4035019 125.9516726
  82.9897474  54.5308298 109.4723778  83.5021994  55.3251549 109.6229343
  83.6420187  53.8334589 109.4057379  84.7992358  57.6474055 111.5546531
  84.9758987  58.5692019 111.3667515  85.5949192  57.3332474 111.9840911
  88.9403377  44.5082319 123.1530465  89.6813090  45.1089472 123.0734927
  89.1721300  43.7659957 122.5948507  84.0844715  49.6938686 121.4308694
  83.9698230  48.7923944 121.7315793  83.2289233  49.9402383 121.0793511
  91.1636553  57.6356427 123.0296195  90.7200407  56.8492805 122.7117099
  91.8253766  57.8235577 122.3640086  85.9223674  59.1652228 117.5556873
  86.4731099  59.0369292 116.7833867  85.0835150  59.4647117 117.2051766
  93.2617791  57.9159227 121.0577596  93.2436266  58.7368108 120.5657865
  94.1837711  57.7913302 121.2827737  89.7190845  55.4303356 121.9001105
  90.2519182  54.6691644 121.6700413  89.1904926  55.1377008 122.6425259
  92.8860540  40.5363422 117.4294746  92.5424809  41.4265064 117.3533857
  93.2539502  40.3465080 116.5664331  80.9546390  52.8596953 110.2483349
  81.7921612  53.2693961 110.0317056  81.1324658  51.9196395 110.2183542
  92.8510823  50.5272033 105.9367181  92.3357446  51.2976638 106.1755569
  92.5788131  49.8537169 106.5600243  90.4357934  45.3721734 110.9952420
  89.5799530  44.9828584 110.8158059  90.8484885  45.4513695 110.1352205
  91.9657080  42.9068077 115.3943980  91.4621876  42.8698212 114.5811785
  92.2587687  43.8160820 115.4540636  88.2099966  42.9906807 114.4010161
  89.0752963  42.7949616 114.0416051  88.2777475  42.7617159 115.3279518
  97.8245097  53.2804388 107.8720355  97.0474539  52.9415547 107.4275517
  98.5036578  53.2857011 107.1975320  92.6397126  48.3999125 107.7626963
  92.3347261  48.7145275 108.6137106  93.5927568  48.4780545 107.8054296
  91.0843558  54.5589349 109.4119917  90.5564919  53.8242108 109.0993154
  90.5831060  55.3364025 109.1659885  96.0636404  52.7538369 114.5286963
  95.4060078  53.4437631 114.6167092  96.8676803  53.1434801 114.8720949
  85.8162285  45.2209015 111.7726528  86.3906037  44.9984196 111.0399721
  86.4033268  45.2897709 112.5255129  94.8741862  51.1082742 112.5790905
  95.3873744  51.7412734 113.0812614  95.5243086  50.5083937 112.2134265
  86.1431872  47.2513476 105.7922413  85.3069185  47.5888163 106.1131688
  86.0036642  47.1162456 104.8549550  88.1184953  42.0950264 110.5001598
  87.4649365  41.7799281 109.8758212  88.0765427  41.4726004 111.2261421
  89.2296158  52.3769559 102.4154890  88.3223220  52.1458812 102.6146039
  89.7267190  51.5807178 102.6028871  92.1364237  61.0867066 105.3351576
  91.4625935  61.3898763 105.9436534  92.5230059  61.8896146 104.9857033
  91.3522693  48.5832197 114.8249245  90.4345255  48.8047144 114.6670933
  91.7682837  48.6578508 113.9660953  92.1357741  49.9823613 109.9551925
  92.8829560  50.4945010 109.6459048  92.4049331  49.6607666 110.8156319
  90.4084391  52.4782154 106.9378880  89.4995610  52.1941187 107.0351350
  90.4379475  52.8981232 106.0782187  95.6403659  56.0888743 110.7070047
  95.1865986  55.2479653 110.7635238  95.0097625  56.7250142 111.0444827
  94.5836578  47.0180729 111.9370715  93.8459335  46.5058116 112.2680957
  94.8363352  46.5781111 111.1253992  94.0836598  57.9265240 111.6419865
  94.3759572  58.4870297 110.9232231  94.5935218  58.2193801 112.3973025
  94.6848206  39.7956981 112.5312484  94.9907082  38.9354345 112.2438399
  95.4100810  40.3874602 112.3311478  80.9772562  50.1987668 110.9194082
  80.7796961  49.6057029 110.1945149  80.4219226  49.8939878 111.6370021
  88.9569285  50.0910774 113.0388675  89.0117895  49.1384611 112.9631152
  88.1460487  50.2470214 113.5229974  90.1060479  54.0190897 104.2766958
  89.6679909  53.3026756 103.8172596  90.8470920  54.2467012 103.7152050
  86.8961645  48.7087834 110.7979054  86.0829511  49.0082005 111.2044246
  87.3920639  48.3143523 111.5153536  89.0470223  58.7045591 112.7313319
  89.0046402  58.9306437 111.8021851  89.9632922  58.4708966 112.8799120
  92.4935857  49.1729659 119.6293948  92.8485245  49.4001132 120.4888414
  93.1407988  49.5048035 119.0071203  98.2233594  52.2948095 110.3343277
  98.0851492  52.4849691 109.4064466  97.8669813  53.0567477 110.7911328
  86.3875720  46.2806190 116.4140289  87.0275099  46.1394949 115.7163252
  85.5553250  45.9940703 116.0378891  98.2502973  54.3624622 115.3454548
  98.6839480  54.2699911 116.1937602  98.9634554  54.3382122 114.7074564
  87.1636024  55.5808620 112.5275281  87.9576622  55.0858940 112.3257856
  86.4527716  55.0526483 112.1642987  91.9830868  57.9626716 116.8787649
  92.0367891  58.5317652 117.6465365  91.1145650  58.1328601 116.5141686
  83.4718787  49.7251702 108.6035034  82.5416375  49.6636157 108.8204996
  83.5676259  49.2027655 107.8071675  83.3904336  46.2506515 111.1913276
  83.6511154  47.1651848 111.0822436  84.2121509  45.7830957 111.3409889
  84.8629262  47.6644272 118.3612100  85.5352315  47.4561634 117.7124749
  84.0359048  47.4666358 117.9217333  99.1118523  54.4048322 117.8787434
  99.3054413  55.3094133 118.1246709  99.0119141  53.9455741 118.7126019
  90.7654834  44.2906213 120.3777761  90.1182749  44.9896162 120.2842238
  91.5355849  44.7242357 120.7454009  94.1733632  54.5555065 123.4528314
  94.0219138  54.3265617 122.5358398  94.1638311  55.5125666 123.4659659
  90.9418968  52.1286978 118.4374581  91.8711028  52.2798137 118.2643548
  90.5209998  52.2170998 117.5823227  89.7407300  56.1537642 116.2073118
  89.6018386  55.7856426 117.0799057  88.9521896  56.6685282 116.0357076
  90.3355452  61.2546739 107.5498655  90.5107208  60.7834782 108.3644278
  89.6488240  61.8812505 107.7779916  91.2912515  55.5319245 113.5961956
  90.9562348  55.4920015 114.4919606  90.7916461  54.8663961 113.1232366
  85.2656759  50.9386875 119.1214537  85.1276557  50.2067114 119.7226076
  86.1761682  50.8495775 118.8398725  94.2271707  52.8775279 103.8699016
  93.6100877  52.1522107 103.7732069  93.7588195  53.6384639 103.5266090
  87.8939060  50.6506834 118.6098217  88.6038678  50.0100026 118.5684836
  87.8508368  50.9019729 119.5324398  95.8825838  57.5874187 121.5304796
  95.8238384  56.9033408 120.8635379  96.2845357  58.3293177 121.0785422
  86.6067994  47.6372052 120.4293857  86.0705351  47.1862790 121.0815453
  86.0184702  47.7717961 119.6864321  84.9016537  64.4036101 114.3238515
  85.1413135  65.0354625 115.0017534  84.0585734  64.0524141 114.6103874
  86.0170253  47.0960703 102.9920320  85.1399719  46.9749504 102.6282567
  86.4928006  46.3046782 102.7399209  95.8843246  55.5513771 119.7618776
  94.9970024  55.2139693 119.8845175  96.4541797  54.8196803 119.9987541
  77.5372393  51.8837863 113.0861827  78.2243433  51.5699593 112.4982843
  77.3820521  52.7879228 112.8129079  82.3407115  46.7728060 117.5146851
  82.2565304  46.1653729 116.7797261  81.5189821  47.2637078 117.5156347
  89.4144399  60.2115224 116.7280019  89.3414570  61.0170195 117.2399324
  88.9721792  60.4107190 115.9028041  89.2034179  59.4486994 110.2382841
  88.4201700  59.9908674 110.3321065  89.9026924  59.9660973 110.6377082
  92.5130829  45.2581623 112.8817046  93.0099528  44.5051586 112.5618116
  91.7417810  45.2945940 112.3160255 100.3660586  50.9621989 114.5235338
 100.3550462  51.8446704 114.1529271  99.4977966  50.6093540 114.3289875
  91.8743082  60.1102058 118.8838178  92.5871055  60.7449523 118.8114079
  91.3833111  60.2065924 118.0678180  93.5960609  54.0153310 110.4555469
  92.6616888  54.1354773 110.2860174  93.7737278  53.1125777 110.1915479
  89.0965797  47.3999006 112.6088731  88.7263585  46.8470047 113.2969636
  89.5924890  46.7957140 112.0563731  96.9833161  49.8570630 110.9905504
  97.4493613  50.6898621 110.9165806  97.4340661  49.3915611 111.6950762
  86.9254996  57.8596501 119.7043749  87.6264456  58.4932984 119.8573143
  86.4550111  58.2011233 118.9439388  95.0509392  56.2014451 107.9891656
  95.3269236  56.0871046 108.8985530  94.1813891  55.8031936 107.9503829
  94.9549823  42.2251217 115.0296405  94.0412903  42.4555444 115.1978612
  95.3842925  42.3089661 115.8810437  94.7256282  50.4141109 117.5296299
  94.0727732  50.6617016 116.8748752  95.1036662  49.6005247 117.1958776
  91.6863456  60.4500802 111.6324469  91.8685850  59.6322458 112.0952222
  92.5096442  60.6668494 111.1949359  92.0205621  59.3768987 108.8939518
  92.5493388  58.8661442 108.2809680  92.2833841  59.0611517 109.7585051
  90.7743855  51.1560920 124.0162336  90.0984492  51.0555049 124.6864711
  91.5971489  51.0000134 124.4798333  82.5222714  57.3932856 116.6374851
  83.1076151  56.6476544 116.7702756  82.3247553  57.7036813 117.5211515
  85.3761369  60.4284104 111.6537294  84.7071745  60.9130231 111.1701334
  85.2374239  60.6753324 112.5680672  77.1140369  49.9638457 115.3579294
  77.1524468  49.4302047 116.1516413  76.6080662  49.4373662 114.7390272
  89.5166638  62.4627847 118.2519952  90.0684946  62.6259469 119.0169037
  89.8572831  63.0532285 117.5799977  84.4931131  44.8102997 118.8541837
  84.5572458  45.6717828 118.4419234  84.4298251  44.1976999 118.1214195
  83.9683404  46.8826130 122.5014871  84.5955442  46.5003207 123.1152395
  83.1111323  46.6640332 122.8670564  94.3677512  57.2889105 124.1068607
  94.9117416  57.9019063 123.6123561  93.7864357  57.8468683 124.6235620
  80.7448946  48.6902559 108.4333226  81.0402387  47.7813237 108.3800280
  79.8436982  48.6690298 108.1114228  92.6535025  60.4109823 115.2383634
  92.5286165  59.6099563 114.7294580  93.3114116  60.9056016 114.7497604
  84.2743193  46.7658555 114.4160774  83.5529779  47.3794523 114.2768248
  85.0636449  47.3016320 114.3377420  94.7169934  58.2118843 116.8663184
  93.7700269  58.0924194 116.7941511  95.0652707  57.3241341 116.9489446
  87.0769507  44.1012982 120.6901426  87.6003909  44.3475278 121.4527736
  86.8581840  44.9333017 120.2704564  82.4736788  46.3716656 108.5572551
  82.1449494  45.4914035 108.3747657  82.8276159  46.3164325 109.4448940
  91.7216367  58.0071559 113.0667537  91.5741329  57.0788266 113.2475107
  92.5469860  58.0291650 112.5824612  85.5878611  46.6589626 108.9248029
  85.9274684  47.1875547 108.2026637  86.0350732  46.9970032 109.7006595
  95.3250489  58.8300118 114.1532409  96.2497036  58.6242979 114.0156860
  95.1565792  58.5816519 115.0621751  88.2822052  45.0426677 118.3751097
  87.9418872  44.2434490 118.7771777  87.5761058  45.3428388 117.8027930
  88.9338524  42.1275989 116.8278420  89.7564593  41.6536467 116.7057310
  89.1776587  42.9066473 117.3277106  87.5746758  45.1564248 107.1241321
  88.2955121  45.5345501 106.6205038  86.9512062  45.8753125 107.2276299
  91.7177881  45.8609397 108.0599654  91.9341496  46.7434035 107.7588482
  91.2371948  45.4695610 107.3305296  86.4577103  48.8195110 114.6370398
  86.3121683  49.1335413 115.5294680  85.9802306  49.4380010 114.0841297
  88.3173485  45.8097658 114.6851288  88.3035054  44.9138751 114.3483586
  89.0345914  45.8168322 115.3189574  90.1699616  46.2434998 116.7304415
  89.9117394  47.1652069 116.7288746  89.6384657  45.8465433 117.4204880
  95.1145805  59.3485785 109.5094501  95.2882682  58.7832208 108.7568353
  95.6074696  60.1486680 109.3273991  80.9322765  51.3600454 117.5758060
  80.3876233  52.1360262 117.7078334  81.8102115  51.7071259 117.4177181
  87.7210381  44.6912038 109.9538858  87.8426293  43.7628684 110.1529746
  87.4312424  44.7050724 109.0417174  90.5901572  42.3766949 113.0905578
  90.6123269  42.4406282 112.1357557  91.0069631  41.5371457 113.2846084
 100.9685196  52.1122208 111.1284800 101.4116342  51.3629533 110.7303924
 100.0911706  52.1032345 110.7458532  96.1020977  58.6652550 106.6091399
  96.7971882  59.2859242 106.8278714  96.4444128  57.8147901 106.8843777
  81.7188787  50.4870351 120.4688216  80.9770523  50.6352986 121.0552847
  81.3981531  50.7478616 119.6054966  98.0012401  56.1152255 108.1378730
  98.5263725  56.4539528 107.4128050  97.9134753  55.1799270 107.9541864
  89.6632449  60.0286329 120.2668606  89.9719576  59.7835476 121.1391306
  90.4607931  60.2332967 119.7787477  89.6853061  62.1824238 112.4973983
  89.2458052  61.6900617 113.1906840  90.4361178  61.6397206 112.2566058
  82.1645400  58.3735779 112.4998611  82.9903420  58.0739551 112.1197255
  81.8139452  57.6043402 112.9488400  87.1326933  57.7262248 114.5696285
  86.5106943  57.0632953 114.2698513  87.8031800  57.7523379 113.8869932
  80.3654005  56.2922106 113.4587545  79.5285914  55.8644280 113.2771546
  80.3377651  56.4854549 114.3958336  87.2051461  46.2044036 124.1628791
  87.2539616  47.0806158 123.7806560  87.7473975  45.6621429 123.5900434
  97.6906307  56.7485159 123.4429928  96.9001850  56.7309298 122.9034427
  97.4539661  57.2873453 124.1978964  97.8104182  53.5977625 120.7562656
  97.8602187  53.4327633 121.6978179  97.7018105  52.7304884 120.3660537
  86.6940440  56.2766171 108.0454745  86.8428561  56.9601635 107.3921418
  87.5006884  56.2571261 108.5604201  95.1007944  49.5808553 122.0721963
  96.0017807  49.4415018 121.7805961  95.1755919  49.7463008 123.0120140
  89.4350749  46.9575408 120.9175149  88.5654059  47.2508974 120.6457738
  89.6710230  47.5415853 121.6382413  99.3122378  56.0174567 121.0004678
  99.0207187  56.3804547 121.8368139  98.6994510  55.3041575 120.8218010
 100.5118061  53.5827446 113.5207248 101.3464952  54.0217251 113.6844808
 100.6477190  53.1066100 112.7015494  97.5609567  51.1407181 119.4684736
  98.0363688  51.3334828 118.6603587  96.6375132  51.1966367 119.2228119
  84.4493073  52.3031349 109.0515814  84.2039115  51.3993679 109.2496024
  84.6188988  52.3048499 108.1095292  92.1389783  43.1755025 118.4340570
  92.6571727  43.9116052 118.1087058  91.7844916  43.4819018 119.2687329
  83.7188721  48.0359706 106.5501976  83.0257966  48.1104061 105.8942012
  83.4740473  47.2720050 107.0723492  92.3902377  39.5955307 113.9541466
  92.6704131  38.9278496 114.5801893  93.1752984  39.7884403 113.4416130
  90.1935846  58.7714301 105.5166493  89.6209813  59.3904488 105.0636964
  90.7668640  59.3213663 106.0506415  96.2611236  48.0172941 117.7013041
  97.2128659  48.1171039 117.7225265  96.0914686  47.2251210 118.2111126
  94.2825615  45.1028525 117.8872442  93.6875547  45.3833537 117.1918931
  93.9975312  45.5922426 118.6589183  93.4133106  59.0551451 106.6475075
  94.3463779  58.9897013 106.8507950  93.3256318  59.8907718 106.1889608
  96.0421122  58.3717322 103.6079022  95.9634754  58.0377185 104.5014780
  96.8630789  58.8639090 103.6070495  98.7399313  51.2379061 116.8155341
  98.7075634  50.2995062 117.0015025  99.3499937  51.3163098 116.0821166
  90.5782644  50.1075114 102.8582545  91.5241749  49.9781322 102.9270963
  90.1996889  49.3689776 103.3351973  98.8893802  48.0290105 116.8613624
  98.3732851  47.2448561 116.6743553  99.7733750  47.7008821 117.0260144
  96.5504529  41.7731120 112.8209437  96.3529350  41.4646208 113.7052769
  97.1604234  42.4992759 112.9507367 104.5575863  52.2995068 115.9561378
 105.2879252  52.0380356 116.5169081 103.9482809  51.5623790 115.9963446
 102.6391160  50.4402931 116.5535829 101.9124324  50.3058895 115.9452321
 102.2238447  50.7479759 117.3592547  90.4621337  54.1592860 124.3183202
  91.3824346  54.3371459 124.5123249  90.4270920  53.2148906 124.1662901
  88.7625562  48.0325090 102.7937430  87.8557017  47.7358203 102.8700144
  89.0401543  47.7354909 101.9271717  79.6803502  49.3531454 113.2436477
  79.3606286  48.4996762 112.9510851  79.1336930  49.5680032 113.9994444
  83.4583409  52.0693895 116.9605983  83.6769419  53.0011003 116.9794017
  83.8709183  51.7101869 117.7460787  90.3787627  42.5761980 108.9481672
  89.5688356  42.2309065 109.3236918  91.0672044  42.2669524 109.5369283
  92.3078176  41.6540027 110.5705968  92.8609214  42.0735480 111.2295991
  92.5448262  40.7275775 110.6128924  88.3311275  47.6427101 126.3508732
  88.2308002  48.5921458 126.2820823  88.1132817  47.3145340 125.4784802
  87.5324346  44.8912026 102.9349410  88.3943510  45.2166924 103.1945227
  87.7174690  44.1043522 102.4222475  79.5491762  52.9734365 115.2129598
  78.8555233  52.5588318 114.6999553  80.2964753  53.0154902 114.6163017
  95.6856983  43.7640552 110.0784633  95.1055652  44.4225356 109.6962685
  95.4192915  42.9417897 109.6672050  94.1360549  43.1645610 112.2805953
  94.6360327  43.2762144 111.4720272  94.7796157  42.8606663 112.9206761
  88.1942545  51.0724239 125.1673794  87.7109627  51.8724600 125.3737683
  88.2803484  51.0832184 124.2141238  81.4628504  52.9052619 113.0895613
  81.4399193  53.0040306 112.1377496  81.7729141  53.7517770 113.4112779
  84.1215882  54.9628774 117.2042228  85.0759136  54.9312717 117.1372159
  83.9228406  54.5019398 118.0192454  84.7115264  53.5329890 119.7713025
  85.5308153  54.0273969 119.7947863  84.9852072  52.6161858 119.7430593
  94.4681861  45.9240643 109.1340981  93.5807716  46.2090293 108.9161176
  94.8835850  45.7634406 108.2868258  97.8196397  45.9487164 112.8495320
  98.5956787  46.4383616 113.1219937  97.0944531  46.3745218 113.3067190
 100.2568955  46.6614783 113.9069261 100.8513446  46.4210519 113.1962569
 100.3295539  45.9421913 114.5342797  82.4766111  60.5048394 114.2212425
  82.3420579  59.7448795 113.6550424  82.0598173  61.2289294 113.7541214
  93.6125074  55.6885317 103.2289001  94.3160924  55.8935320 103.8446656
  92.8887723  56.2562079 103.4938084  94.4422884  51.4395178 109.3491271
  94.3858086  51.8963730 108.5098903  94.9951227  50.6785863 109.1714114
  98.2527690  47.2284910 110.1741390  97.9964625  46.8281546 111.0049598
  97.6280558  47.9428704 110.0491530 102.5640028  49.9680984 112.6812682
 102.0039586  50.0374173 113.4544244 101.9583531  49.7921968 111.9612178
  85.6335237  61.4017711 114.4330868  85.5167621  62.3463143 114.3309558
  84.8127683  61.0991272 114.8216667  95.5211771  56.1267846 105.2787461
  96.3557375  55.6949045 105.0964936  95.3596114  55.9549860 106.2064355
  95.1757664  52.6299960 106.6443800  95.1206467  52.4644231 105.7032244
  94.5503719  53.3375993 106.8005990  79.9650179  47.8668024 120.4705222
  80.6109042  47.3566978 120.9592448  79.7567330  48.6036706 121.0448648
  92.4903571  54.9348872 125.9697363  93.3594730  55.1089524 125.6083998
  92.0110322  55.7543288 125.8473092  88.4853789  42.1308069 106.2229119
  88.4732459  43.0749909 106.3797389  89.3777211  41.9478214 105.9288580
  86.6589751  62.0545973 117.6486797  87.5616998  62.0869583 117.9653292
  86.4327121  61.1246424 117.6633132  88.4143353  60.8076959 114.3096875
  87.4638984  60.8078821 114.1961247  88.7175839  60.0609694 113.7932910
  92.3005909  38.7250845 110.4775055  91.5338304  38.1709332 110.6231738
  92.7116614  38.7972714 111.3389207  84.3047670  45.0135641 124.5680237
  85.1679131  44.6572446 124.7783561  83.7313080  44.6749536 125.2555641
 104.1496047  66.6437498 115.3742638 104.7874457  66.5244245 114.6705978
 104.0316889  67.5918341 115.4330590 100.9585753  66.5964926 115.3104162
 100.6204264  66.4805990 114.4224697 101.8275521  66.1956091 115.2905168
  96.8172569  68.4500402 111.3001053  96.2537434  68.3590339 110.5317341
  96.7024964  67.6300306 111.7803546 101.4405536  67.7499777 121.2690368
 101.4294177  67.3552576 120.3970871 101.6026175  67.0165850 121.8624139
  94.3637000  69.9451594 114.1385274  95.1558292  69.6042418 113.7231573
  94.6033651  70.0546569 115.0587427 102.3972127  72.1171370 106.6115518
 101.7460107  72.7025450 106.2249532 103.1916490  72.6477565 106.6710556
  96.3227754  69.2060507 107.0102652  97.0958630  68.6589494 106.8715528
  96.6753153  70.0704756 107.2217114  98.1612797  70.5336889 120.2169552
  97.8702663  71.4382520 120.1016218  98.7969781  70.5753417 120.9313621
  99.0869004  67.9113738 116.8070911  99.6832576  67.6869760 116.0927874
  99.1443975  67.1698483 117.4096359  98.6594032  65.3653173 104.6421102
  98.9119553  64.8434694 103.8804565  97.7218591  65.2019318 104.7447786
 103.7037315  64.3688951 112.4495846 104.4900404  63.9508375 112.0986263
 103.9676019  65.2735044 112.6177494 103.8747392  69.8061802 107.1484502
 103.2393225  69.8796428 107.8605407 103.5444799  70.3955401 106.4703582
 109.1045742  64.3064185 113.3528824 109.8370914  63.7363401 113.5866654
 108.3485098  63.9185785 113.7935330  98.3790321  67.2681279 106.8445477
  98.2626579  66.5926182 107.5126562  98.4892581  66.7813653 106.0277630
 100.7221862  66.7291426 110.5492167 100.3580069  66.2022047 111.2605088
 101.5788978  66.3389895 110.3758652 106.6271163  58.0185759 117.8123433
 106.2954487  58.8881170 117.5884648 106.0316776  57.7022043 118.4917463
 100.3627349  61.7581326 105.5453515 100.5301751  62.6261562 105.9123986
 100.1724518  61.9208607 104.6214804 103.1202682  70.2198305 117.2119345
 102.8203405  71.1223343 117.1035153 102.7753742  69.9530488 118.0640498
  96.5715164  66.6712102 113.2456050  95.6465660  66.5388316 113.4533742
  96.8199577  67.4506321 113.7425992 106.5199826  62.7380845 114.8916783
 105.6116703  62.6696253 114.5975544 106.4687422  63.2152790 115.7198608
 100.3416570  64.2138983 106.5300182 100.2216195  64.6596034 107.3685662
  99.6469158  64.5624301 105.9713720  93.9323975  66.3145375 114.0799839
  94.0616356  66.5679854 114.9939251  93.2521426  66.9073083 113.7604494
  98.1023462  76.9842625 110.1790313  98.0247492  77.9350450 110.2578794
  97.4985105  76.6388498 110.8365239 100.5940692  64.1570490 122.8351680
  99.8174026  64.7164411 122.8254545 101.2331255  64.6427273 123.3566550
 108.3861472  60.9397283 116.6694657 107.7435853  61.2329816 116.0234451
 107.8816401  60.8250204 117.4747853 106.0401636  64.6860456 107.3580516
 106.9519492  64.9187843 107.1828214 105.5311283  65.2697501 106.7955595
  98.8487064  66.9655944 122.3969647  99.5901748  67.5040988 122.1204471
  98.1424049  67.5922233 122.5541199 104.3242404  69.1085084 120.9941809
 104.7325760  68.6667495 120.2496441 103.6019665  68.5337712 121.2476001
 100.6773474  64.0457691 118.3675366 101.5234669  64.4697105 118.5110015
 100.6172111  63.3891315 119.0613929 104.6471218  69.6686275 114.7494097
 104.0180081  69.8331989 114.0470165 104.2596880  70.0827884 115.5205061
 108.5260450  70.6040713 112.1038461 107.8411488  70.9839614 111.5535495
 108.6104299  71.2136039 112.8370409 103.8272919  61.7062059 120.0256539
 103.5833851  62.4604120 119.4890815 104.1032849  62.0847407 120.8603786
 105.7811382  68.2500672 118.7033805 105.9928277  68.8932432 118.0268186
 105.7341130  67.4162988 118.2355735 103.3837611  60.8618492 115.6070377
 102.5222090  61.1599746 115.8987114 103.4100045  61.0788891 114.6751410
 100.1999180  69.4060683 112.0144183 100.6637526  69.6848386 111.2248805
  99.9355978  68.5044128 111.8317273  97.0923261  68.9532165 114.9523946
  97.6624618  69.3819433 114.3141430  97.6831373  68.6714749 115.6508131
  99.1368066  65.5283835 108.8233748  99.8392110  65.9804879 109.2907674
  98.8048695  64.8867654 109.4513641  97.5848428  64.1195592 123.1984957
  96.9547088  64.8011873 123.4320354  97.4784516  64.0078674 122.2538095
  92.8793400  63.7867388 114.1250881  92.0892454  64.0424917 113.6490992
  93.3704648  64.6015726 114.2302922 106.8957210  71.1272627 116.8756162
 107.7174653  70.7252814 116.5938844 106.8919613  71.0240861 117.8272278
  94.8308146  64.1511967 111.0834358  94.0339309  64.2630662 111.6017854
  94.6033738  64.4898619 110.2175248 100.6613813  70.6756670 119.0316873
 100.7258246  71.1377078 119.8675044  99.9524737  70.0454035 119.1599182
  91.1631103  64.0397878 116.5565872  91.4139142  64.9244888 116.8223448
  91.6990652  63.8602480 115.7840964 114.9863203  67.4711376 113.2241134
 114.2326911  66.9018774 113.0685138 115.1210744  67.4374040 114.1711768
 100.3761831  72.3424778 108.8995853 100.2407506  73.1876314 109.3280701
 100.9171643  72.5444056 108.1361787  96.8629170  58.4216358 125.5610208
  96.4696116  57.8682556 126.2357852  97.6795311  58.7326936 125.9516726
  93.8291228  69.8600216 109.4723778  94.3415749  70.6543466 109.6229343
  94.4813941  69.1626506 109.4057379  95.6386113  72.9765972 111.5546531
  95.8152741  73.8983937 111.3667515  96.4342946  72.6624391 111.9840911
  99.7797131  59.8374237 123.1530465 100.5206845  60.4381390 123.0734927
 100.0115054  59.0951875 122.5948507  94.9238469  65.0230604 121.4308694
  94.8091985  64.1215861 121.7315793  94.0682987  65.2694301 121.0793511
 102.0030307  72.9648344 123.0296195 101.5594161  72.1784723 122.7117099
 102.6647521  73.1527495 122.3640086  96.7617428  74.4944146 117.5556873
  97.3124853  74.3661209 116.7833867  95.9228904  74.7939035 117.2051766
 104.1011545  73.2451144 121.0577596 104.0830021  74.0660025 120.5657865
 105.0231465  73.1205220 121.2827737 100.5584599  70.7595274 121.9001105
 101.0912936  69.9983562 121.6700413 100.0298680  70.4668926 122.6425259
 103.7254294  55.8655340 117.4294746 103.3818564  56.7556982 117.3533857
 104.0933257  55.6756997 116.5664331  91.7940145  68.1888870 110.2483349
  92.6315367  68.5985879 110.0317056  91.9718413  67.2488312 110.2183542
 103.6904577  65.8563951 105.9367181 103.1751201  66.6268556 106.1755569
 103.4181886  65.1829087 106.5600243 101.2751688  60.7013652 110.9952420
 100.4193284  60.3120502 110.8158059 101.6878640  60.7805613 110.1352205
 102.8050835  58.2359995 115.3943980 102.3015630  58.1990130 114.5811785
 103.0981442  59.1452738 115.4540636  99.0493721  58.3198725 114.4010161
  99.9146717  58.1241533 114.0416051  99.1171230  58.0909076 115.3279518
 108.6638851  68.6096306 107.8720355 107.8868294  68.2707465 107.4275517
 109.3430332  68.6148929 107.1975320 103.4790880  63.7291043 107.7626963
 103.1741016  64.0437192 108.6137106 104.4321322  63.8072463 107.8054296
 101.9237312  69.8881266 109.4119917 101.3958674  69.1534026 109.0993154
 101.4224815  70.6655943 109.1659885 106.9030158  68.0830287 114.5286963
 106.2453833  68.7729548 114.6167092 107.7070557  68.4726719 114.8720949
  96.6556040  60.5500933 111.7726528  97.2299792  60.3276114 111.0399721
  97.2427022  60.6189627 112.5255129 105.7135617  66.4374660 112.5790905
 106.2267499  67.0704651 113.0812614 106.3636841  65.8375855 112.2134265
  96.9825627  62.5805394 105.7922413  96.1462939  62.9180080 106.1131688
  96.8430396  62.4454373 104.8549550  98.9578707  57.4242182 110.5001598
  98.3043120  57.1091199 109.8758212  98.9159182  56.8017922 111.2261421
 100.0689912  67.7061477 102.4154890  99.1616974  67.4750730 102.6146039
 100.5660944  66.9099096 102.6028871 102.9757991  76.4158984 105.3351576
 102.3019690  76.7190681 105.9436534 103.3623813  77.2188064 104.9857033
 102.1916448  63.9124115 114.8249245 101.2739009  64.1339062 114.6670933
 102.6076591  63.9870426 113.9660953 102.9751496  65.3115531 109.9551925
 103.7223314  65.8236928 109.6459048 103.2443085  64.9899584 110.8156319
 101.2478146  67.8074072 106.9378880 100.3389365  67.5233104 107.0351350
 101.2773230  68.2273150 106.0782187 106.4797413  71.4180661 110.7070047
 106.0259740  70.5771571 110.7635238 105.8491380  72.0542059 111.0444827
 105.4230333  62.3472647 111.9370715 104.6853089  61.8350033 112.2680957
 105.6757106  61.9073029 111.1253992 104.9230352  73.2557158 111.6419865
 105.2153327  73.8162215 110.9232231 105.4328973  73.5485719 112.3973025
 105.5241960  55.1248899 112.5312484 105.8300837  54.2646262 112.2438399
 106.2494565  55.7166519 112.3311478  91.8166316  65.5279586 110.9194082
  91.6190716  64.9348946 110.1945149  91.2612980  65.2231796 111.6370021
  99.7963040  65.4202692 113.0388675  99.8511650  64.4676529 112.9631152
  98.9854242  65.5762131 113.5229974 100.9454234  69.3482815 104.2766958
 100.5073663  68.6318674 103.8172596 101.6864674  69.5758930 103.7152050
  97.7355400  64.0379752 110.7979054  96.9223265  64.3373922 111.2044246
  98.2314394  63.6435441 111.5153536  99.8863978  74.0337509 112.7313319
  99.8440156  74.2598355 111.8021851 100.8026676  73.8000883 112.8799120
 103.3329611  64.5021576 119.6293948 103.6878999  64.7293049 120.4888414
 103.9801743  64.8339953 119.0071203 109.0627348  67.6240012 110.3343277
 108.9245247  67.8141608 109.4064466 108.7063567  68.3859395 110.7911328
  97.2269474  61.6098107 116.4140289  97.8668854  61.4686866 115.7163252
  96.3947005  61.3232621 116.0378891 109.0896728  69.6916539 115.3454548
 109.5233235  69.5991828 116.1937602 109.8028309  69.6674040 114.7074564
  98.0029778  70.9100538 112.5275281  98.7970377  70.4150858 112.3257856
  97.2921471  70.3818401 112.1642987 102.8224623  73.2918633 116.8787649
 102.8761645  73.8609570 117.6465365 101.9539404  73.4620518 116.5141686
  94.3112542  65.0543620 108.6035034  93.3810130  64.9928075 108.8204996
  94.4070014  64.5319572 107.8071675  94.2298091  61.5798432 111.1913276
  94.4904908  62.4943766 111.0822436  95.0515263  61.1122875 111.3409889
  95.7023016  62.9936190 118.3612100  96.3746070  62.7853552 117.7124749
  94.8752803  62.7958276 117.9217333 109.9512277  69.7340240 117.8787434
 110.1448168  70.6386050 118.1246709 109.8512896  69.2747659 118.7126019
 101.6048588  59.6198130 120.3777761 100.9576503  60.3188080 120.2842238
 102.3749604  60.0534274 120.7454009 105.0127386  69.8846983 123.4528314
 104.8612893  69.6557534 122.5358398 105.0032066  70.8417584 123.4659659
 101.7812723  67.4578895 118.4374581 102.7104783  67.6090055 118.2643548
 101.3603753  67.5462916 117.5823227 100.5801054  71.4829560 116.2073118
 100.4412140  71.1148344 117.0799057  99.7915651  71.9977199 116.0357076
 101.1749206  76.5838656 107.5498655 101.3500962  76.1126699 108.3644278
 100.4881994  77.2104422 107.7779916 102.1306269  70.8611162 113.5961956
 101.7956102  70.8211932 114.4919606 101.6310215  70.1955878 113.1232366
  96.1050513  66.2678793 119.1214537  95.9670311  65.5359031 119.7226076
  97.0155437  66.1787693 118.8398725 105.0665461  68.2067197 103.8699016
 104.4494632  67.4814025 103.7732069 104.5981950  68.9676557 103.5266090
  98.7332814  65.9798752 118.6098217  99.4432433  65.3391944 118.5684836
  98.6902122  66.2311647 119.5324398 106.7219593  72.9166105 121.5304796
 106.6632139  72.2325325 120.8635379 107.1239111  73.6585095 121.0785422
  97.4461748  62.9663970 120.4293857  96.9099105  62.5154708 121.0815453
  96.8578457  63.1009879 119.6864321  95.7410292  79.7328019 114.3238515
  95.9806890  80.3646543 115.0017534  94.8979488  79.3816059 114.6103874
  96.8564007  62.4252621 102.9920320  95.9793473  62.3041422 102.6282567
  97.3321760  61.6338699 102.7399209 106.7237000  70.8805689 119.7618776
 105.8363779  70.5431611 119.8845175 107.2935551  70.1488720 119.9987541
  88.3766147  67.2129781 113.0861827  89.0637187  66.8991511 112.4982843
  88.2214276  68.1171145 112.8129079  93.1800869  62.1019977 117.5146851
  93.0959058  61.4945647 116.7797261  92.3583576  62.5928996 117.5156347
 100.2538153  75.5407141 116.7280019 100.1808325  76.3462113 117.2399324
  99.8115547  75.7399107 115.9028041 100.0427933  74.7778911 110.2382841
  99.2595455  75.3200592 110.3321065 100.7420678  75.2952891 110.6377082
 103.3524583  60.5873541 112.8817046 103.8493283  59.8343503 112.5618116
 102.5811565  60.6237858 112.3160255 111.2054341  66.2913906 114.5235338
 111.1944217  67.1738622 114.1529271 110.3371720  65.9385457 114.3289875
 102.7136837  75.4393975 118.8838178 103.4264809  76.0741440 118.8114079
 102.2226866  75.5357841 118.0678180 104.4354364  69.3445228 110.4555469
 103.5010643  69.4646691 110.2860174 104.6131032  68.4417695 110.1915479
  99.9359552  62.7290924 112.6088731  99.5657339  62.1761964 113.2969636
 100.4318644  62.1249057 112.0563731 107.8226915  65.1862547 110.9905504
 108.2887367  66.0190539 110.9165806 108.2734416  64.7207529 111.6950762
  97.7648751  73.1888419 119.7043749  98.4658210  73.8224902 119.8573143
  97.2943866  73.5303150 118.9439388 105.8903146  71.5306369 107.9891656
 106.1662990  71.4162963 108.8985530 105.0207645  71.1323854 107.9503829
 105.7943578  57.5543134 115.0296405 104.8806658  57.7847361 115.1978612
 106.2236679  57.6381578 115.8810437 105.5650036  65.7433026 117.5296299
 104.9121487  65.9908934 116.8748752 105.9430416  64.9297165 117.1958776
 102.5257210  75.7792720 111.6324469 102.7079605  74.9614376 112.0952222
 103.3490196  75.9960412 111.1949359 102.8599376  74.7060905 108.8939518
 103.3887142  74.1953359 108.2809680 103.1227595  74.3903435 109.7585051
 101.6137609  66.4852837 124.0162336 100.9378247  66.3846967 124.6864711
 102.4365243  66.3292051 124.4798333  93.3616469  72.7224774 116.6374851
  93.9469905  71.9768462 116.7702756  93.1641307  73.0328731 117.5211515
  96.2155124  75.7576021 111.6537294  95.5465499  76.2422149 111.1701334
  96.0767993  76.0045242 112.5680672  87.9534123  65.2930374 115.3579294
  87.9918223  64.7593965 116.1516413  87.4474416  64.7665580 114.7390272
 100.3560392  77.7919765 118.2519952 100.9078700  77.9551386 119.0169037
 100.6966586  78.3824203 117.5799977  95.3324886  60.1394915 118.8541837
  95.3966212  61.0009746 118.4419234  95.2692006  59.5268916 118.1214195
  94.8077158  62.2118047 122.5014871  95.4349197  61.8295125 123.1152395
  93.9505077  61.9932249 122.8670564 105.2071267  72.6181022 124.1068607
 105.7511171  73.2310981 123.6123561 104.6258112  73.1760601 124.6235620
  91.5842701  64.0194476 108.4333226  91.8796142  63.1105155 108.3800280
  90.6830737  63.9982216 108.1114228 103.4928780  75.7401740 115.2383634
 103.3679919  74.9391480 114.7294580 104.1507871  76.2347934 114.7497604
  95.1136948  62.0950473 114.4160774  94.3923534  62.7086441 114.2768248
  95.9030204  62.6308238 114.3377420 105.5563688  73.5410761 116.8663184
 104.6094024  73.4216112 116.7941511 105.9046461  72.6533259 116.9489446
  97.9163261  59.4304899 120.6901426  98.4397663  59.6767196 121.4527736
  97.6975595  60.2624934 120.2704564  93.3130542  61.7008574 108.5572551
  92.9843249  60.8205953 108.3747657  93.6669913  61.6456243 109.4448940
 102.5610121  73.3363477 113.0667537 102.4135084  72.4080184 113.2475107
 103.3863615  73.3583567 112.5824612  96.4272366  61.9881544 108.9248029
  96.7668438  62.5167465 108.2026637  96.8744486  62.3261950 109.7006595
 106.1644243  74.1592035 114.1532409 107.0890791  73.9534897 114.0156860
 105.9959547  73.9108437 115.0621751  99.1215806  60.3718595 118.3751097
  98.7812627  59.5726408 118.7771777  98.4154813  60.6720305 117.8027930
  99.7732278  57.4567907 116.8278420 100.5958348  56.9828385 116.7057310
 100.0170342  58.2358391 117.3277106  98.4140513  60.4856165 107.1241321
  99.1348875  60.8637418 106.6205038  97.7905817  61.2045042 107.2276299
 102.5571636  61.1901314 108.0599654 102.7735250  62.0725952 107.7588482
 102.0765703  60.7987528 107.3305296  97.2970857  64.1487028 114.6370398
  97.1515438  64.4627331 115.5294680  96.8196061  64.7671928 114.0841297
  99.1567240  61.1389576 114.6851288  99.1428809  60.2430669 114.3483586
  99.8739668  61.1460239 115.3189574 101.0093371  61.5726916 116.7304415
 100.7511148  62.4943986 116.7288746 100.4778411  61.1757350 117.4204880
 105.9539559  74.6777703 109.5094501 106.1276437  74.1124125 108.7568353
 106.4468451  75.4778598 109.3273991  91.7716519  66.6892372 117.5758060
  91.2269987  67.4652180 117.7078334  92.6495869  67.0363176 117.4177181
  98.5604136  60.0203956 109.9538858  98.6820047  59.0920602 110.1529746
  98.2706178  60.0342642 109.0417174 101.4295326  57.7058866 113.0905578
 101.4517023  57.7698199 112.1357557 101.8463385  56.8663375 113.2846084
 111.8078951  67.4414126 111.1284800 112.2510097  66.6921451 110.7303924
 110.9305461  67.4324262 110.7458532 106.9414732  73.9944467 106.6091399
 107.6365637  74.6151160 106.8278714 107.2837882  73.1439819 106.8843777
  92.5582541  65.8162268 120.4688216  91.8164277  65.9644904 121.0552847
  92.2375285  66.0770534 119.6054966 108.8406155  71.4444173 108.1378730
 109.3657479  71.7831446 107.4128050 108.7528508  70.5091188 107.9541864
 100.5026204  75.3578246 120.2668606 100.8113330  75.1127393 121.1391306
 101.3001686  75.5624885 119.7787477 100.5246816  77.5116156 112.4973983
 100.0851806  77.0192535 113.1906840 101.2754933  76.9689124 112.2566058
  93.0039155  73.7027697 112.4998611  93.8297175  73.4031469 112.1197255
  92.6533207  72.9335319 112.9488400  97.9720688  73.0554165 114.5696285
  97.3500697  72.3924870 114.2698513  98.6425555  73.0815297 113.8869932
  91.2047760  71.6214023 113.4587545  90.3679668  71.1936198 113.2771546
  91.1771405  71.8146467 114.3958336  98.0445215  61.5335953 124.1628791
  98.0933371  62.4098076 123.7806560  98.5867730  60.9913346 123.5900434
 108.5300061  72.0777076 123.4429928 107.7395605  72.0601215 122.9034427
 108.2933416  72.6165370 124.1978964 108.6497936  68.9269543 120.7562656
 108.6995941  68.7619550 121.6978179 108.5411859  68.0596802 120.3660537
  97.5334195  71.6058089 108.0454745  97.6822315  72.2893553 107.3921418
  98.3400638  71.5863179 108.5604201 105.9401699  64.9100471 122.0721963
 106.8411561  64.7706936 121.7805961 106.0149673  65.0754926 123.0120140
 100.2744504  62.2867326 120.9175149  99.4047813  62.5800892 120.6457738
 100.5103984  62.8707771 121.6382413 110.1516133  71.3466484 121.0004678
 109.8600941  71.7096465 121.8368139 109.5388264  70.6333493 120.8218010
 111.3511815  68.9119364 113.5207248 112.1858707  69.3509168 113.6844808
 111.4870944  68.4358017 112.7015494 108.4003321  66.4699099 119.4684736
 108.8757443  66.6626745 118.6603587 107.4768887  66.5258285 119.2228119
  95.2886828  67.6323266 109.0515814  95.0432870  66.7285596 109.2496024
  95.4582742  67.6340417 108.1095292 102.9783538  58.5046943 118.4340570
 103.4965482  59.2407969 118.1087058 102.6238670  58.8110936 119.2687329
  94.5582475  63.3651624 106.5501976  93.8651720  63.4395979 105.8942012
  94.3134227  62.6011967 107.0723492 103.2296132  54.9247225 113.9541466
 103.5097886  54.2570414 114.5801893 104.0146739  55.1176321 113.4416130
 101.0329600  74.1006219 105.5166493 100.4603567  74.7196406 105.0636964
 101.6062394  74.6505581 106.0506415 107.1004990  63.3464859 117.7013041
 108.0522413  63.4462957 117.7225265 106.9308441  62.5543128 118.2111126
 105.1219370  60.4320442 117.8872442 104.5269302  60.7125455 117.1918931
 104.8369066  60.9214343 118.6589183 104.2526860  74.3843369 106.6475075
 105.1857533  74.3188931 106.8507950 104.1650073  75.2199636 106.1889608
 106.8814877  73.7009239 103.6079022 106.8028508  73.3669103 104.5014780
 107.7024544  74.1931007 103.6070495 109.5793068  66.5670979 116.8155341
 109.5469388  65.6286980 117.0015025 110.1893692  66.6455015 116.0821166
 101.4176399  65.4367032 102.8582545 102.3635504  65.3073240 102.9270963
 101.0390644  64.6981694 103.3351973 109.7287556  63.3582022 116.8613624
 109.2126605  62.5740479 116.6743553 110.6127505  63.0300739 117.0260144
 107.3898283  57.1023038 112.8209437 107.1923105  56.7938126 113.7052769
 107.9997989  57.8284677 112.9507367 115.3969618  67.6286986 115.9561378
 116.1273006  67.3672274 116.5169081 114.7876563  66.8915708 115.9963446
 113.4784915  65.7694848 116.5535829 112.7518079  65.6350813 115.9452321
 113.0632202  66.0771677 117.3592547 101.3015091  69.4884778 124.3183202
 102.2218101  69.6663377 124.5123249 101.2664674  68.5440823 124.1662901
  99.6019316  63.3617008 102.7937430  98.6950771  63.0650121 102.8700144
  99.8795297  63.0646826 101.9271717  90.5197256  64.6823372 113.2436477
  90.2000041  63.8288680 112.9510851  89.9730685  64.8971950 113.9994444
  94.2977164  67.3985813 116.9605983  94.5163174  68.3302920 116.9794017
  94.7102938  67.0393787 117.7460787 101.2181382  57.9053898 108.9481672
 100.4082110  57.5600983 109.3236918 101.9065799  57.5961442 109.5369283
 103.1471930  56.9831945 110.5705968 103.7002969  57.4027398 111.2295991
 103.3842016  56.0567693 110.6128924  99.1705029  62.9719018 126.3508732
  99.0701756  63.9213375 126.2820823  98.9526571  62.6437257 125.4784802
  98.3718101  60.2203943 102.9349410  99.2337265  60.5458842 103.1945227
  98.5568445  59.4335439 102.4222475  90.3885516  68.3026283 115.2129598
  89.6948988  67.8880236 114.6999553  91.1358507  68.3446820 114.6163017
 106.5250737  59.0932470 110.0784633 105.9449406  59.7517274 109.6962685
 106.2586670  58.2709814 109.6672050 104.9754303  58.4937528 112.2805953
 105.4754082  58.6054062 111.4720272 105.6189911  58.1898580 112.9206761
  99.0336299  66.4016157 125.1673794  98.5503381  67.2016517 125.3737683
  99.1197238  66.4124102 124.2141238  92.3022259  68.2344537 113.0895613
  92.2792947  68.3332224 112.1377496  92.6122895  69.0809688 113.4112779
  94.9609637  70.2920692 117.2042228  95.9152890  70.2604634 117.1372159
  94.7622160  69.8311316 118.0192454  95.5509019  68.8621808 119.7713025
  96.3701908  69.3565887 119.7947863  95.8245827  67.9453776 119.7430593
 105.3075615  61.2532560 109.1340981 104.4201470  61.5382211 108.9161176
 105.7229604  61.0926324 108.2868258 108.6590151  61.2779081 112.8495320
 109.4350541  61.7675534 113.1219937 107.9338285  61.7037135 113.3067190
 111.0962710  61.9906700 113.9069261 111.6907201  61.7502436 113.1962569
 111.1689294  61.2713831 114.5342797  93.3159866  75.8340311 114.2212425
  93.1814333  75.0740712 113.6550424  92.8991928  76.5581211 113.7541214
 104.4518829  71.0177235 103.2289001 105.1554679  71.2227237 103.8446656
 103.7281477  71.5853997 103.4938084 105.2816639  66.7687096 109.3491271
 105.2251840  67.2255648 108.5098903 105.8344981  66.0077781 109.1714114
 109.0921445  62.5576828 110.1741390 108.8358379  62.1573464 111.0049598
 108.4674313  63.2720622 110.0491530 113.4033783  65.2972901 112.6812682
 112.8433341  65.3666091 113.4544244 112.7977286  65.1213886 111.9612178
  96.4728991  76.7309628 114.4330868  96.3561376  77.6755061 114.3309558
  95.6521438  76.4283190 114.8216667 106.3605526  71.4559764 105.2787461
 107.1951130  71.0240963 105.0964936 106.1989869  71.2841778 106.2064355
 106.0151418  67.9591877 106.6443800 105.9600222  67.7936149 105.7032244
 105.3897473  68.6667910 106.8005990  90.8043933  63.1959942 120.4705222
  91.4502797  62.6858896 120.9592448  90.5961084  63.9328623 121.0448648
 103.3297325  70.2640789 125.9697363 104.1988485  70.4381442 125.6083998
 102.8504077  71.0835206 125.8473092  99.3247544  57.4599986 106.2229119
  99.3126213  58.4041826 106.3797389 100.2170965  57.2770132 105.9288580
  97.4983506  77.3837890 117.6486797  98.4010752  77.4161501 117.9653292
  97.2720876  76.4538341 117.6633132  99.2537108  76.1368877 114.3096875
  98.3032739  76.1370738 114.1961247  99.5569594  75.3901611 113.7932910
 103.1399663  54.0542763 110.4775055 102.3732059  53.5001250 110.6231738
 103.5510368  54.1264632 111.3389207  95.1441424  60.3427559 124.5680237
  96.0072886  59.9864364 124.7783561  94.5706835  60.0041454 125.2555641
 114.9889801  81.9729415 115.3742638 115.6268211  81.8536163 114.6705978
 114.8710644  82.9210259 115.4330590 111.7979507  81.9256843 115.3104162
 111.4598019  81.8097908 114.4224697 112.6669276  81.5248008 115.2905168
 107.6566323  83.7792320 111.3001053 107.0931188  83.6882257 110.5317341
 107.5418718  82.9592224 111.7803546 112.2799290  83.0791695 121.2690368
 112.2687931  82.6844493 120.3970871 112.4419930  82.3457768 121.8624139
 105.2030755  85.2743511 114.1385274 105.9952047  84.9334336 113.7231573
 105.4427405  85.3838486 115.0587427 113.2365882  87.4463287 106.6115518
 112.5853862  88.0317368 106.2249532 114.0310245  87.9769482 106.6710556
 107.1621509  84.5352425 107.0102652 107.9352385  83.9881412 106.8715528
 107.5146908  85.3996674 107.2217114 109.0006551  85.8628807 120.2169552
 108.7096417  86.7674438 120.1016218 109.6363536  85.9045334 120.9313621
 109.9262758  83.2405655 116.8070911 110.5226331  83.0161678 116.0927874
 109.9837730  82.4990401 117.4096359 109.4987787  80.6945091 104.6421102
 109.7513307  80.1726612 103.8804565 108.5612346  80.5311236 104.7447786
 114.5431070  79.6980869 112.4495846 115.3294159  79.2800292 112.0986263
 114.8069774  80.6026961 112.6177494 114.7141147  85.1353719 107.1484502
 114.0786980  85.2088346 107.8605407 114.3838553  85.7247318 106.4703582
 119.9439497  79.6356102 113.3528824 120.6764669  79.0655319 113.5866654
 119.1878852  79.2477703 113.7935330 109.2184075  82.5973197 106.8445477
 109.1020334  81.9218100 107.5126562 109.3286335  82.1105571 106.0277630
 111.5615616  82.0583344 110.5492167 111.1973824  81.5313965 111.2605088
 112.4182732  81.6681813 110.3758652 117.4664917  73.3477676 117.8123433
 117.1348242  74.2173087 117.5884648 116.8710530  73.0313960 118.4917463
 111.2021103  77.0873243 105.5453515 111.3695506  77.9553480 105.9123986
 111.0118272  77.2500525 104.6214804 113.9596437  85.5490222 117.2119345
 113.6597160  86.4515261 117.1035153 113.6147496  85.2822406 118.0640498
 107.4108918  82.0004019 113.2456050 106.4859415  81.8680233 113.4533742
 107.6593331  82.7798238 113.7425992 117.3593580  78.0672763 114.8916783
 116.4510458  77.9988171 114.5975544 117.3081176  78.5444707 115.7198608
 111.1810324  79.5430901 106.5300182 111.0609949  79.9887952 107.3685662
 110.4862913  79.8916219 105.9713720 104.7717729  81.6437293 114.0799839
 104.9010110  81.8971772 114.9939251 104.0915180  82.2365001 113.7604494
 108.9417216  92.3134543 110.1790313 108.8641246  93.2642368 110.2578794
 108.3378860  91.9680415 110.8365239 111.4334446  79.4862408 122.8351680
 110.6567780  80.0456328 122.8254545 112.0725009  79.9719191 123.3566550
 119.2255227  76.2689201 116.6694657 118.5829607  76.5621734 116.0234451
 118.7210155  76.1542121 117.4747853 116.8795390  80.0152374 107.3580516
 117.7913247  80.2479761 107.1828214 116.3705037  80.5989418 106.7955595
 109.6880818  82.2947861 122.3969647 110.4295503  82.8332905 122.1204471
 108.9817804  82.9214150 122.5541199 115.1636158  84.4377002 120.9941809
 115.5719514  83.9959412 120.2496441 114.4413420  83.8629629 121.2476001
 111.5167228  79.3749609 118.3675366 112.3628423  79.7989022 118.5110015
 111.4565866  78.7183233 119.0613929 115.4864973  84.9978193 114.7494097
 114.8573835  85.1623907 114.0470165 115.0990635  85.4119802 115.5205061
 119.3654205  85.9332630 112.1038461 118.6805243  86.3131532 111.5535495
 119.4498054  86.5427957 112.8370409 114.6666673  77.0353977 120.0256539
 114.4227605  77.7896038 119.4890815 114.9426604  77.4139325 120.8603786
 116.6205136  83.5792589 118.7033805 116.8322031  84.2224349 118.0268186
 116.5734884  82.7454906 118.2355735 114.2231365  76.1910410 115.6070377
 113.3615844  76.4891664 115.8987114 114.2493800  76.4080809 114.6751410
 111.0392935  84.7352601 112.0144183 111.5031280  85.0140304 111.2248805
 110.7749733  83.8336045 111.8317273 107.9317016  84.2824082 114.9523946
 108.5018373  84.7111351 114.3141430 108.5225128  84.0006667 115.6508131
 109.9761821  80.8575753 108.8233748 110.6785864  81.3096797 109.2907674
 109.6442449  80.2159572 109.4513641 108.4242182  79.4487510 123.1984957
 107.7940843  80.1303791 123.4320354 108.3178270  79.3370591 122.2538095
 103.7187155  79.1159306 114.1250881 102.9286209  79.3716834 113.6490992
 104.2098402  79.9307644 114.2302922 117.7350964  86.4564545 116.8756162
 118.5568408  86.0544732 116.5938844 117.7313367  86.3532779 117.8272278
 105.6701900  79.4803885 111.0834358 104.8733063  79.5922579 111.6017854
 105.4427492  79.8190537 110.2175248 111.5007568  86.0048588 119.0316873
 111.5652000  86.4668995 119.8675044 110.7918492  85.3745953 119.1599182
 102.0024858  79.3689796 116.5565872 102.2532896  80.2536806 116.8223448
 102.5384406  79.1894398 115.7840964 125.8256957  82.8003293 113.2241134
 125.0720666  82.2310691 113.0685138 125.9604498  82.7665958 114.1711768
 111.2155585  87.6716696 108.8995853 111.0801260  88.5168231 109.3280701
 111.7565398  87.8735973 108.1361787 107.7022925  73.7508275 125.5610208
 107.3089870  73.1974474 126.2357852 108.5189065  74.0618854 125.9516726
 104.6684983  85.1892134 109.4723778 105.1809503  85.9835384 109.6229343
 105.3207696  84.4918424 109.4057379 106.4779867  88.3057890 111.5546531
 106.6546496  89.2275855 111.3667515 107.2736701  87.9916309 111.9840911
 110.6190886  75.1666155 123.1530465 111.3600599  75.7673308 123.0734927
 110.8508809  74.4243792 122.5948507 105.7632224  80.3522522 121.4308694
 105.6485739  79.4507779 121.7315793 104.9076742  80.5986219 121.0793511
 112.8424062  88.2940262 123.0296195 112.3987916  87.5076641 122.7117099
 113.5041275  88.4819413 122.3640086 107.6011183  89.8236064 117.5556873
 108.1518608  89.6953127 116.7833867 106.7622659  90.1230953 117.2051766
 114.9405300  88.5743062 121.0577596 114.9223775  89.3951943 120.5657865
 115.8625220  88.4497137 121.2827737 111.3978354  86.0887192 121.9001105
 111.9306691  85.3275480 121.6700413 110.8692435  85.7960843 122.6425259
 114.5648049  71.1947258 117.4294746 114.2212318  72.0848899 117.3533857
 114.9327011  71.0048915 116.5664331 102.6333899  83.5180788 110.2483349
 103.4709121  83.9277796 110.0317056 102.8112167  82.5780230 110.2183542
 114.5298332  81.1855869 105.9367181 114.0144955  81.9560473 106.1755569
 114.2575640  80.5121005 106.5600243 112.1145443  76.0305569 110.9952420
 111.2587039  75.6412420 110.8158059 112.5272394  76.1097530 110.1352205
 113.6444589  73.5651913 115.3943980 113.1409385  73.5282048 114.5811785
 113.9375196  74.4744655 115.4540636 109.8887475  73.6490642 114.4010161
 110.7540472  73.4533451 114.0416051 109.9564984  73.4200994 115.3279518
 119.5032606  83.9388223 107.8720355 118.7262048  83.5999383 107.4275517
 120.1824087  83.9440846 107.1975320 114.3184635  79.0582961 107.7626963
 114.0134770  79.3729110 108.6137106 115.2715077  79.1364381 107.8054296
 112.7631067  85.2173184 109.4119917 112.2352428  84.4825944 109.0993154
 112.2618569  85.9947860 109.1659885 117.7423913  83.4122205 114.5286963
 117.0847587  84.1021466 114.6167092 118.5464312  83.8018636 114.8720949
 107.4949794  75.8792850 111.7726528 108.0693546  75.6568032 111.0399721
 108.0820777  75.9481545 112.5255129 116.5529371  81.7666577 112.5790905
 117.0661253  82.3996569 113.0812614 117.2030595  81.1667773 112.2134265
 107.8219381  77.9097311 105.7922413 106.9856694  78.2471998 106.1131688
 107.6824151  77.7746291 104.8549550 109.7972462  72.7534099 110.5001598
 109.1436874  72.4383116 109.8758212 109.7552936  72.1309840 111.2261421
 110.9083667  83.0353394 102.4154890 110.0010729  82.8042648 102.6146039
 111.4054699  82.2391014 102.6028871 113.8151746  91.7450901 105.3351576
 113.1413444  92.0482598 105.9436534 114.2017568  92.5479982 104.9857033
 113.0310202  79.2416033 114.8249245 112.1132764  79.4630980 114.6670933
 113.4470346  79.3162343 113.9660953 113.8145250  80.6407448 109.9551925
 114.5617069  81.1528846 109.6459048 114.0836840  80.3191501 110.8156319
 112.0871900  83.1365989 106.9378880 111.1783119  82.8525022 107.0351350
 112.1166984  83.5565068 106.0782187 117.3191168  86.7472579 110.7070047
 116.8653495  85.9063489 110.7635238 116.6885134  87.3833977 111.0444827
 116.2624087  77.6764565 111.9370715 115.5246844  77.1641951 112.2680957
 116.5150861  77.2364946 111.1253992 115.7624107  88.5849075 111.6419865
 116.0547081  89.1454132 110.9232231 116.2722727  88.8777636 112.3973025
 116.3635715  70.4540817 112.5312484 116.6694591  69.5938180 112.2438399
 117.0888319  71.0458437 112.3311478 102.6560071  80.8571503 110.9194082
 102.4584470  80.2640864 110.1945149 102.1006735  80.5523713 111.6370021
 110.6356794  80.7494610 113.0388675 110.6905404  79.7968446 112.9631152
 109.8247996  80.9054049 113.5229974 111.7847988  84.6774733 104.2766958
 111.3467418  83.9610592 103.8172596 112.5258429  84.9050848 103.7152050
 108.5749154  79.3671670 110.7979054 107.7617020  79.6665840 111.2044246
 109.0708148  78.9727358 111.5153536 110.7257732  89.3629426 112.7313319
 110.6833911  89.5890273 111.8021851 111.6420431  89.1292801 112.8799120
 114.1723366  79.8313494 119.6293948 114.5272754  80.0584967 120.4888414
 114.8195497  80.1631871 119.0071203 119.9021103  82.9531930 110.3343277
 119.7639001  83.1433526 109.4064466 119.5457322  83.7151313 110.7911328
 108.0663229  76.9390025 116.4140289 108.7062608  76.7978784 115.7163252
 107.2340759  76.6524538 116.0378891 119.9290482  85.0208457 115.3454548
 120.3626989  84.9283746 116.1937602 120.6422063  84.9965957 114.7074564
 108.8423533  86.2392455 112.5275281 109.6364131  85.7442776 112.3257856
 108.1315225  85.7110319 112.1642987 113.6618377  88.6210551 116.8787649
 113.7155400  89.1901487 117.6465365 112.7933159  88.7912436 116.5141686
 105.1506296  80.3835537 108.6035034 104.2203884  80.3219993 108.8204996
 105.2463768  79.8611490 107.8071675 105.0691845  76.9090350 111.1913276
 105.3298663  77.8235683 111.0822436 105.8909018  76.4414793 111.3409889
 106.5416771  78.3228107 118.3612100 107.2139824  78.1145469 117.7124749
 105.7146557  78.1250193 117.9217333 120.7906032  85.0632158 117.8787434
 120.9841922  85.9677968 118.1246709 120.6906650  84.6039577 118.7126019
 112.4442343  74.9490048 120.3777761 111.7970258  75.6479998 120.2842238
 113.2143358  75.3826192 120.7454009 115.8521141  85.2138900 123.4528314
 115.7006647  84.9849452 122.5358398 115.8425820  86.1709502 123.4659659
 112.6206477  82.7870813 118.4374581 113.5498537  82.9381973 118.2643548
 112.1997507  82.8754834 117.5823227 111.4194809  86.8121477 116.2073118
 111.2805895  86.4440262 117.0799057 110.6309405  87.3269117 116.0357076
 112.0142961  91.9130574 107.5498655 112.1894716  91.4418617 108.3644278
 111.3275749  92.5396340 107.7779916 112.9700024  86.1903080 113.5961956
 112.6349857  86.1503850 114.4919606 112.4703970  85.5247796 113.1232366
 106.9444268  81.5970710 119.1214537 106.8064066  80.8650949 119.7226076
 107.8549191  81.5079610 118.8398725 115.9059216  83.5359114 103.8699016
 115.2888386  82.8105943 103.7732069 115.4375704  84.2968475 103.5266090
 109.5726569  81.3090670 118.6098217 110.2826187  80.6683862 118.5684836
 109.5295877  81.5603564 119.5324398 117.5613347  88.2458023 121.5304796
 117.5025893  87.5617243 120.8635379 117.9632866  88.9877013 121.0785422
 108.2855503  78.2955887 120.4293857 107.7492860  77.8446626 121.0815453
 107.6972211  78.4301796 119.6864321 107.6957762  77.7544539 102.9920320
 106.8187228  77.6333340 102.6282567 108.1715515  76.9630617 102.7399209
 117.5630755  86.2097607 119.7618776 116.6757533  85.8723529 119.8845175
 118.1329306  85.4780638 119.9987541  99.2159902  82.5421699 113.0861827
  99.9030942  82.2283429 112.4982843  99.0608030  83.4463063 112.8129079
 104.0194624  77.4311895 117.5146851 103.9352813  76.8237565 116.7797261
 103.1977330  77.9220913 117.5156347 111.0931908  90.8699059 116.7280019
 111.0202079  91.6754031 117.2399324 110.6509301  91.0691025 115.9028041
 110.8821688  90.1070829 110.2382841 110.0989209  90.6492509 110.3321065
 111.5814433  90.6244809 110.6377082 114.1918338  75.9165459 112.8817046
 114.6887037  75.1635421 112.5618116 113.4205319  75.9529775 112.3160255
 122.0448095  81.6205824 114.5235338 122.0337971  82.5030540 114.1529271
 121.1765475  81.2677375 114.3289875 113.5530591  90.7685893 118.8838178
 114.2658564  91.4033358 118.8114079 113.0620620  90.8649759 118.0678180
 115.2748118  84.6737146 110.4555469 114.3404397  84.7938608 110.2860174
 115.4524787  83.7709613 110.1915479 110.7753306  78.0582842 112.6088731
 110.4051094  77.5053882 113.2969636 111.2712399  77.4540975 112.0563731
 118.6620670  80.5154465 110.9905504 119.1281122  81.3482457 110.9165806
 119.1128170  80.0499447 111.6950762 108.6042505  88.5180337 119.7043749
 109.3051964  89.1516820 119.8573143 108.1337620  88.8595068 118.9439388
 116.7296901  86.8598286 107.9891656 117.0056745  86.7454881 108.8985530
 115.8601400  86.4615771 107.9503829 116.6337332  72.8835052 115.0296405
 115.7200412  73.1139279 115.1978612 117.0630434  72.9673496 115.8810437
 116.4043791  81.0724944 117.5296299 115.7515241  81.3200852 116.8748752
 116.7824171  80.2589082 117.1958776 113.3650965  91.1084637 111.6324469
 113.5473359  90.2906293 112.0952222 114.1883951  91.3252330 111.1949359
 113.6993130  90.0352822 108.8939518 114.2280897  89.5245277 108.2809680
 113.9621350  89.7195353 109.7585051 112.4531364  81.8144755 124.0162336
 111.7772001  81.7138884 124.6864711 113.2758998  81.6583969 124.4798333
 104.2010223  88.0516692 116.6374851 104.7863660  87.3060380 116.7702756
 104.0035062  88.3620648 117.5211515  98.7927878  80.6222292 115.3579294
  98.8311977  80.0885883 116.1516413  98.2868171  80.0957497 114.7390272
 111.1954147  93.1211683 118.2519952 111.7472455  93.2843304 119.0169037
 111.5360340  93.7116120 117.5799977 106.1718640  75.4686832 118.8541837
 106.2359967  76.3301663 118.4419234 106.1085760  74.8560834 118.1214195
 105.6470913  77.5409965 122.5014871 106.2742951  77.1587042 123.1152395
 104.7898831  77.3224167 122.8670564 116.0465021  87.9472940 124.1068607
 116.5904925  88.5602898 123.6123561 115.4651866  88.5052519 124.6235620
 102.4236455  79.3486394 108.4333226 102.7189896  78.4397072 108.3800280
 101.5224491  79.3274133 108.1114228 114.3322534  91.0693658 115.2383634
 114.2073674  90.2683398 114.7294580 114.9901625  91.5639851 114.7497604
 105.9530702  77.4242391 114.4160774 105.2317288  78.0378358 114.2768248
 106.7423958  77.9600155 114.3377420 116.3957443  88.8702678 116.8663184
 115.4487778  88.7508029 116.7941511 116.7440216  87.9825176 116.9489446
 108.7557016  74.7596817 120.6901426 109.2791418  75.0059114 121.4527736
 108.5369349  75.5916852 120.2704564 104.1524297  77.0300492 108.5572551
 103.8237003  76.1497871 108.3747657 104.5063668  76.9748160 109.4448940
 113.4003876  88.6655394 113.0667537 113.2528838  87.7372102 113.2475107
 114.2257369  88.6875485 112.5824612 107.2666120  77.3173461 108.9248029
 107.6062193  77.8459383 108.2026637 107.7138241  77.6553868 109.7006595
 117.0037998  89.4883953 114.1532409 117.9284545  89.2826814 114.0156860
 116.8353301  89.2400354 115.0621751 109.9609561  75.7010512 118.3751097
 109.6206381  74.9018325 118.7771777 109.2548567  76.0012223 117.8027930
 110.6126033  72.7859825 116.8278420 111.4352102  72.3120303 116.7057310
 110.8564096  73.5650308 117.3277106 109.2534267  75.8148083 107.1241321
 109.9742630  76.1929336 106.6205038 108.6299571  76.5336960 107.2276299
 113.3965390  76.5193232 108.0599654 113.6129005  77.4017870 107.7588482
 112.9159457  76.1279445 107.3305296 108.1364612  79.4778945 114.6370398
 107.9909192  79.7919248 115.5294680 107.6589815  80.0963846 114.0841297
 109.9960994  76.4681493 114.6851288 109.9822563  75.5722587 114.3483586
 110.7133423  76.4752157 115.3189574 111.8487125  76.9018833 116.7304415
 111.5904903  77.8235904 116.7288746 111.3172165  76.5049268 117.4204880
 116.7933314  90.0069621 109.5094501 116.9670191  89.4416043 108.7568353
 117.2862205  90.8070515 109.3273991 102.6110274  82.0184290 117.5758060
 102.0663742  82.7944098 117.7078334 103.4889624  82.3655094 117.4177181
 109.3997890  75.3495874 109.9538858 109.5213802  74.4212520 110.1529746
 109.1099933  75.3634560 109.0417174 112.2689081  73.0350784 113.0905578
 112.2910778  73.0990117 112.1357557 112.6857140  72.1955293 113.2846084
 122.6472705  82.7706044 111.1284800 123.0903851  82.0213369 110.7303924
 121.7699215  82.7616180 110.7458532 117.7808486  89.3236385 106.6091399
 118.4759391  89.9443078 106.8278714 118.1231637  88.4731736 106.8843777
 103.3976296  81.1454186 120.4688216 102.6558032  81.2936821 121.0552847
 103.0769040  81.4062452 119.6054966 119.6799909  86.7736091 108.1378730
 120.2051234  87.1123363 107.4128050 119.5922262  85.8383106 107.9541864
 111.3419958  90.6870164 120.2668606 111.6507085  90.4419311 121.1391306
 112.1395440  90.8916803 119.7787477 111.3640570  92.8408074 112.4973983
 110.9245561  92.3484452 113.1906840 112.1148687  92.2981041 112.2566058
 108.8114442  88.3846083 114.5696285 108.1894452  87.7216788 114.2698513
 109.4819309  88.4107215 113.8869932 102.0441514  86.9505941 113.4587545
 101.2073423  86.5228115 113.2771546 102.0165160  87.1438384 114.3958336
 108.8838970  76.8627871 124.1628791 108.9327125  77.7389994 123.7806560
 109.4261484  76.3205264 123.5900434 119.3693816  87.4068994 123.4429928
 118.5789359  87.3893133 122.9034427 119.1327170  87.9457288 124.1978964
 119.4891691  84.2561461 120.7562656 119.5389696  84.0911468 121.6978179
 119.3805614  83.3888720 120.3660537 108.3727949  86.9350006 108.0454745
 108.5216070  87.6185471 107.3921418 109.1794393  86.9155096 108.5604201
 116.7795453  80.2392389 122.0721963 117.6805316  80.0998853 121.7805961
 116.8543428  80.4046843 123.0120140 111.1138258  77.6159243 120.9175149
 110.2441568  77.9092809 120.6457738 111.3497739  78.1999688 121.6382413
 120.9909887  86.6758402 121.0004678 120.6994696  87.0388383 121.8368139
 120.3782019  85.9625410 120.8218010 122.1905570  84.2411282 113.5207248
 123.0252461  84.6801086 113.6844808 122.3264699  83.7649935 112.7015494
 119.2397076  81.7991017 119.4684736 119.7151197  81.9918663 118.6603587
 118.3162641  81.8550203 119.2228119 106.1280582  82.9615184 109.0515814
 105.8826624  82.0577514 109.2496024 106.2976497  82.9632334 108.1095292
 113.8177292  73.8338860 118.4340570 114.3359236  74.5699887 118.1087058
 113.4632425  74.1402854 119.2687329 105.3976230  78.6943541 106.5501976
 104.7045475  78.7687896 105.8942012 105.1527982  77.9303885 107.0723492
 114.0689886  70.2539143 113.9541466 114.3491640  69.5862332 114.5801893
 114.8540493  70.4468238 113.4416130 111.8723355  89.4298137 105.5166493
 111.2997322  90.0488324 105.0636964 112.4456148  89.9797498 106.0506415
 117.9398745  78.6756777 117.7013041 118.8916168  78.7754874 117.7225265
 117.7702195  77.8835045 118.2111126 115.9613124  75.7612360 117.8872442
 115.3663056  76.0417373 117.1918931 115.6762821  76.2506261 118.6589183
 115.0920615  89.7135287 106.6475075 116.0251288  89.6480848 106.8507950
 115.0043827  90.5491554 106.1889608 117.7208631  89.0301157 103.6079022
 117.6422263  88.6961021 104.5014780 118.5418298  89.5222925 103.6070495
 120.4186822  81.8962896 116.8155341 120.3863143  80.9578897 117.0015025
 121.0287446  81.9746933 116.0821166 112.2570153  80.7658949 102.8582545
 113.2029258  80.6365158 102.9270963 111.8784398  80.0273611 103.3351973
 120.5681311  78.6873940 116.8613624 120.0520360  77.9032397 116.6743553
 121.4521259  78.3592657 117.0260144 118.2292038  72.4314955 112.8209437
 118.0316859  72.1230044 113.7052769 118.8391743  73.1576594 112.9507367
 126.2363372  82.9578903 115.9561378 126.9666761  82.6964191 116.5169081
 125.6270318  82.2207625 115.9963446 124.3178669  81.0986766 116.5535829
 123.5911833  80.9642731 115.9452321 123.9025956  81.4063594 117.3592547
 112.1408846  84.8176696 124.3183202 113.0611855  84.9955295 124.5123249
 112.1058429  83.8732741 124.1662901 110.4413070  78.6908926 102.7937430
 109.5344526  78.3942039 102.8700144 110.7189051  78.3938744 101.9271717
 101.3591011  80.0115289 113.2436477 101.0393795  79.1580597 112.9510851
 100.8124439  80.2263867 113.9994444 105.1370918  82.7277730 116.9605983
 105.3556928  83.6594838 116.9794017 105.5496692  82.3685705 117.7460787
 112.0575136  73.2345816 108.9481672 111.2475865  72.8892901 109.3236918
 112.7459553  72.9253359 109.5369283 113.9865684  72.3123862 110.5705968
 114.5396723  72.7319316 111.2295991 114.2235771  71.3859610 110.6128924
 110.0098784  78.3010936 126.3508732 109.9095511  79.2505293 126.2820823
 109.7920326  77.9729175 125.4784802 109.2111855  75.5495861 102.9349410
 110.0731019  75.8750759 103.1945227 109.3962199  74.7627357 102.4222475
 101.2279271  83.6318201 115.2129598 100.5342742  83.2172154 114.6999553
 101.9752262  83.6738737 114.6163017 117.3644492  74.4224387 110.0784633
 116.7843161  75.0809192 109.6962685 117.0980424  73.6001732 109.6672050
 115.8148058  73.8229445 112.2805953 116.3147836  73.9345980 111.4720272
 116.4583666  73.5190498 112.9206761 109.8730054  81.7308075 125.1673794
 109.3897135  82.5308435 125.3737683 109.9590993  81.7416020 124.2141238
 103.1416013  83.5636455 113.0895613 103.1186701  83.6624142 112.1377496
 103.4516650  84.4101605 113.4112779 105.8003391  85.6212610 117.2042228
 106.7546645  85.5896552 117.1372159 105.6015915  85.1603233 118.0192454
 106.3902773  84.1913726 119.7713025 107.2095662  84.6857804 119.7947863
 106.6639581  83.2745694 119.7430593 116.1469370  76.5824478 109.1340981
 115.2595225  76.8674129 108.9161176 116.5623359  76.4218241 108.2868258
 119.4983906  76.6070999 112.8495320 120.2744296  77.0967451 113.1219937
 118.7732040  77.0329053 113.3067190 121.9356464  77.3198618 113.9069261
 122.5300955  77.0794354 113.1962569 122.0083048  76.6005749 114.5342797
 115.2912583  86.3469153 103.2289001 115.9948433  86.5519155 103.8446656
 114.5675232  86.9145914 103.4938084 116.1210393  82.0979014 109.3491271
 116.0645595  82.5547565 108.5098903 116.6738736  81.3369698 109.1714114
 119.9315199  77.8868746 110.1741390 119.6752133  77.4865381 111.0049598
 119.3068067  78.6012540 110.0491530 124.2427537  80.6264819 112.6812682
 123.6827095  80.6958008 113.4544244 123.6371040  80.4505804 111.9612178
 117.1999280  86.7851682 105.2787461 118.0344884  86.3532880 105.0964936
 117.0383623  86.6133695 106.2064355 116.8545173  83.2883795 106.6443800
 116.7993976  83.1228066 105.7032244 116.2291228  83.9959828 106.8005990
 101.6437688  78.5251859 120.4705222 102.2896551  78.0150813 120.9592448
 101.4354839  79.2620541 121.0448648 114.1691080  85.5932707 125.9697363
 115.0382239  85.7673359 125.6083998 113.6897831  86.4127124 125.8473092
 110.1641298  72.7891904 106.2229119 110.1519968  73.7333744 106.3797389
 111.0564720  72.6062049 105.9288580 108.3377260  92.7129808 117.6486797
 109.2404507  92.7453418 117.9653292 108.1114630  91.7830259 117.6633132
 110.0930862  91.4660794 114.3096875 109.1426493  91.4662656 114.1961247
 110.3963348  90.7193529 113.7932910 113.9793418  69.3834681 110.4775055
 113.2125813  68.8293167 110.6231738 114.3904123  69.4556549 111.3389207
 105.9835179  75.6719477 124.5680237 106.8466640  75.3156281 124.7783561
 105.4100589  75.3333371 125.2555641 125.8283556  97.3021333 115.3742638
 126.4661966  97.1828080 114.6705978 125.7104398  98.2502177 115.4330590
 122.6373262  97.2548761 115.3104162 122.2991773  97.1389826 114.4224697
 123.5063030  96.8539926 115.2905168 118.4960078  99.1084237 111.3001053
 117.9324943  99.0174174 110.5317341 118.3812473  98.2884142 111.7803546
 123.1193045  98.4083613 121.2690368 123.1081686  98.0136411 120.3970871
 123.2813684  97.6749685 121.8624139 116.0424509 100.6035429 114.1385274
 116.8345801 100.2626254 113.7231573 116.2821160 100.7130404 115.0587427
 124.0759636 102.7755205 106.6115518 123.4247616 103.3609285 106.2249532
 124.8703999 103.3061400 106.6710556 118.0015263  99.8644342 107.0102652
 118.7746139  99.3173329 106.8715528 118.3540662 100.7288592 107.2217114
 119.8400306 101.1920724 120.2169552 119.5490172 102.0966355 120.1016218
 120.4757290 101.2337252 120.9313621 120.7656513  98.5697573 116.8070911
 121.3620085  98.3453595 116.0927874 120.8231484  97.8282318 117.4096359
 120.3381541  96.0237008 104.6421102 120.5907062  95.5018530 103.8804565
 119.4006100  95.8603154 104.7447786 125.3824824  95.0272787 112.4495846
 126.1687913  94.6092210 112.0986263 125.6463528  95.9318879 112.6177494
 125.5534901 100.4645637 107.1484502 124.9180734 100.5380264 107.8605407
 125.2232308 101.0539236 106.4703582 130.7833251  94.9648020 113.3528824
 131.5158423  94.3947237 113.5866654 130.0272607  94.5769620 113.7935330
 120.0577830  97.9265114 106.8445477 119.9414088  97.2510018 107.5126562
 120.1680090  97.4397488 106.0277630 122.4009371  97.3875261 110.5492167
 122.0367578  96.8605882 111.2605088 123.2576487  96.9973730 110.3758652
 128.3058672  88.6769594 117.8123433 127.9741996  89.5465005 117.5884648
 127.7104285  88.3605878 118.4917463 122.0414858  92.4165161 105.5453515
 122.2089260  93.2845398 105.9123986 121.8512027  92.5792443 104.6214804
 124.7990191 100.8782140 117.2119345 124.4990914 101.7807179 117.1035153
 124.4541251 100.6114323 118.0640498 118.2502673  97.3295937 113.2456050
 117.3253169  97.1972151 113.4533742 118.4987086  98.1090156 113.7425992
 128.1987335  93.3964680 114.8916783 127.2904212  93.3280089 114.5975544
 128.1474931  93.8736625 115.7198608 122.0204079  94.8722819 106.5300182
 121.9003704  95.3179869 107.3685662 121.3256667  95.2208136 105.9713720
 115.6111484  96.9729210 114.0799839 115.7403865  97.2263689 114.9939251
 114.9308935  97.5656918 113.7604494 119.7810971 107.6426460 110.1790313
 119.7035001 108.5934285 110.2578794 119.1772614 107.2972333 110.8365239
 122.2728201  94.8154326 122.8351680 121.4961535  95.3748246 122.8254545
 122.9118764  95.3011109 123.3566550 130.0648981  91.5981119 116.6694657
 129.4223361  91.8913652 116.0234451 129.5603910  91.4834039 117.4747853
 127.7189145  95.3444292 107.3580516 128.6307001  95.5771679 107.1828214
 127.2098792  95.9281336 106.7955595 120.5274573  97.6239779 122.3969647
 121.2689257  98.1624823 122.1204471 119.8211558  98.2506068 122.5541199
 126.0029913  99.7668920 120.9941809 126.4113269  99.3251330 120.2496441
 125.2807174  99.1921547 121.2476001 122.3560983  94.7041526 118.3675366
 123.2022178  95.1280940 118.5110015 122.2959620  94.0475151 119.0613929
 126.3258727 100.3270110 114.7494097 125.6967590 100.4915824 114.0470165
 125.9384389 100.7411720 115.5205061 130.2047959 101.2624548 112.1038461
 129.5198997 101.6423449 111.5535495 130.2891808 101.8719875 112.8370409
 125.5060428  92.3645895 120.0256539 125.2621360  93.1187955 119.4890815
 125.7820358  92.7431242 120.8603786 127.4598891  98.9084507 118.7033805
 127.6715786  99.5516267 118.0268186 127.4128639  98.0746824 118.2355735
 125.0625120  91.5202328 115.6070377 124.2009599  91.8183581 115.8987114
 125.0887554  91.7372727 114.6751410 121.8786689 100.0644518 112.0144183
 122.3425035 100.3432221 111.2248805 121.6143487  99.1627963 111.8317273
 118.7710770  99.6116000 114.9523946 119.3412127 100.0403268 114.3141430
 119.3618882  99.3298585 115.6508131 120.8155575  96.1867671 108.8233748
 121.5179618  96.6388714 109.2907674 120.4836204  95.5451490 109.4513641
 119.2635937  94.7779427 123.1984957 118.6334597  95.4595708 123.4320354
 119.1572025  94.6662509 122.2538095 114.5580909  94.4451223 114.1250881
 113.7679963  94.7008752 113.6490992 115.0492156  95.2599561 114.2302922
 128.5744719 101.7856463 116.8756162 129.3962162 101.3836650 116.5938844
 128.5707122 101.6824697 117.8272278 116.5095654  94.8095803 111.0834358
 115.7126818  94.9214497 111.6017854 116.2821247  95.1482455 110.2175248
 122.3401322 101.3340506 119.0316873 122.4045755 101.7960913 119.8675044
 121.6312246 100.7037871 119.1599182 112.8418612  94.6981714 116.5565872
 113.0926651  95.5828724 116.8223448 113.3778160  94.5186315 115.7840964
 136.6650712  98.1295211 113.2241134 135.9114420  97.5602609 113.0685138
 136.7998253  98.0957876 114.1711768 122.0549340 103.0008613 108.8995853
 121.9195015 103.8460149 109.3280701 122.5959152 103.2027891 108.1361787
 118.5416679  89.0800193 125.5610208 118.1483625  88.5266392 126.2357852
 119.3582820  89.3910772 125.9516726 115.5078737 100.5184051 109.4723778
 116.0203258 101.3127302 109.6229343 116.1601450  99.8210342 109.4057379
 117.3173622 103.6349808 111.5546531 117.4940250 104.5567772 111.3667515
 118.1130455 103.3208227 111.9840911 121.4584640  90.4958072 123.1530465
 122.1994354  91.0965225 123.0734927 121.6902563  89.7535710 122.5948507
 116.6025978  95.6814440 121.4308694 116.4879494  94.7799697 121.7315793
 115.7470496  95.9278136 121.0793511 123.6817816 103.6232180 123.0296195
 123.2381670 102.8368558 122.7117099 124.3435030 103.8111330 122.3640086
 118.4404937 105.1527981 117.5556873 118.9912362 105.0245045 116.7833867
 117.6016413 105.4522870 117.2051766 125.7799054 103.9034980 121.0577596
 125.7617530 104.7243861 120.5657865 126.7018974 103.7789055 121.2827737
 122.2372108 101.4179109 121.9001105 122.7700445 100.6567397 121.6700413
 121.7086189 101.1252761 122.6425259 125.4041803  86.5239175 117.4294746
 125.0606073  87.4140817 117.3533857 125.7720766  86.3340833 116.5664331
 113.4727654  98.8472706 110.2483349 114.3102876  99.2569714 110.0317056
 113.6505922  97.9072148 110.2183542 125.3692086  96.5147786 105.9367181
 124.8538709  97.2852391 106.1755569 125.0969395  95.8412922 106.5600243
 122.9539197  91.3597487 110.9952420 122.0980793  90.9704337 110.8158059
 123.3666149  91.4389448 110.1352205 124.4838344  88.8943830 115.3943980
 123.9803139  88.8573966 114.5811785 124.7768951  89.8036573 115.4540636
 120.7281230  88.9782560 114.4010161 121.5934226  88.7825369 114.0416051
 120.7958739  88.7492912 115.3279518 130.3426360  99.2680141 107.8720355
 129.5655803  98.9291300 107.4275517 131.0217841  99.2732764 107.1975320
 125.1578389  94.3874878 107.7626963 124.8528525  94.7021028 108.6137106
 126.1108831  94.4656298 107.8054296 123.6024821 100.5465102 109.4119917
 123.0746183  99.8117861 109.0993154 123.1012324 101.3239778 109.1659885
 128.5817667  98.7414122 114.5286963 127.9241342  99.4313384 114.6167092
 129.3858066  99.1310554 114.8720949 118.3343549  91.2084768 111.7726528
 118.9087301  90.9859949 111.0399721 118.9214531  91.2773463 112.5255129
 127.3923126  97.0958495 112.5790905 127.9055008  97.7288487 113.0812614
 128.0424350  96.4959690 112.2134265 118.6613136  93.2389229 105.7922413
 117.8250448  93.5763916 106.1131688 118.5217905  93.1038209 104.8549550
 120.6366216  88.0826017 110.5001598 119.9830629  87.7675034 109.8758212
 120.5946691  87.4601757 111.2261421 121.7477421  98.3645312 102.4154890
 120.8404483  98.1334565 102.6146039 122.2448453  97.5682931 102.6028871
 124.6545500 107.0742819 105.3351576 123.9807199 107.3774516 105.9436534
 125.0411322 107.8771900 104.9857033 123.8703957  94.5707950 114.8249245
 122.9526518  94.7922897 114.6670933 124.2864100  94.6454261 113.9660953
 124.6539005  95.9699366 109.9551925 125.4010823  96.4820763 109.6459048
 124.9230594  95.6483419 110.8156319 122.9265655  98.4657907 106.9378880
 122.0176874  98.1816940 107.0351350 122.9560739  98.8856985 106.0782187
 128.1584922 102.0764496 110.7070047 127.7047249 101.2355406 110.7635238
 127.5278889 102.7125895 111.0444827 127.1017842  93.0056482 111.9370715
 126.3640598  92.4933869 112.2680957 127.3544615  92.5656864 111.1253992
 126.6017861 103.9140993 111.6419865 126.8940836 104.4746050 110.9232231
 127.1116482 104.2069554 112.3973025 127.2029469  85.7832734 112.5312484
 127.5088346  84.9230098 112.2438399 127.9282074  86.3750355 112.3311478
 113.4953825  96.1863421 110.9194082 113.2978225  95.5932782 110.1945149
 112.9400489  95.8815631 111.6370021 121.4750549  96.0786527 113.0388675
 121.5299159  95.1260364 112.9631152 120.6641751  96.2345967 113.5229974
 122.6241743 100.0066651 104.2766958 122.1861172  99.2902509 103.8172596
 123.3652183 100.2342765 103.7152050 119.4142909  94.6963587 110.7979054
 118.6010774  94.9957758 111.2044246 119.9101903  94.3019276 111.5153536
 121.5651487 104.6921344 112.7313319 121.5227665 104.9182190 111.8021851
 122.4814185 104.4584719 112.8799120 125.0117120  95.1605412 119.6293948
 125.3666508  95.3876885 120.4888414 125.6589252  95.4923788 119.0071203
 130.7414857  98.2823848 110.3343277 130.6032756  98.4725444 109.4064466
 130.3851076  99.0443230 110.7911328 118.9056983  92.2681943 116.4140289
 119.5456363  92.1270702 115.7163252 118.0734514  91.9816456 116.0378891
 130.7684237 100.3500375 115.3454548 131.2020744 100.2575664 116.1937602
 131.4815818 100.3257875 114.7074564 119.6817287 101.5684373 112.5275281
 120.4757886 101.0734693 112.3257856 118.9708980 101.0402236 112.1642987
 124.5012132 103.9502469 116.8787649 124.5549154 104.5193405 117.6465365
 123.6326913 104.1204354 116.5141686 115.9900051  95.7127455 108.6035034
 115.0597639  95.6511910 108.8204996 116.0857523  95.1903408 107.8071675
 115.9085600  92.2382268 111.1913276 116.1692417  93.1527601 111.0822436
 116.7302772  91.7706710 111.3409889 117.3810525  93.6520025 118.3612100
 118.0533579  93.4437387 117.7124749 116.5540312  93.4542111 117.9217333
 131.6299786 100.3924075 117.8787434 131.8235677 101.2969886 118.1246709
 131.5300405  99.9331494 118.7126019 123.2836097  90.2781966 120.3777761
 122.6364012  90.9771915 120.2842238 124.0537113  90.7118110 120.7454009
 126.6914895 100.5430818 123.4528314 126.5400402 100.3141370 122.5358398
 126.6819575 101.5001419 123.4659659 123.4600232  98.1162731 118.4374581
 124.3892292  98.2673890 118.2643548 123.0391262  98.2046752 117.5823227
 122.2588563 102.1413395 116.2073118 122.1199649 101.7732180 117.0799057
 121.4703160 102.6561035 116.0357076 122.8536715 107.2422492 107.5498655
 123.0288471 106.7710535 108.3644278 122.1669503 107.8688258 107.7779916
 123.8093778 101.5194998 113.5961956 123.4743611 101.4795768 114.4919606
 123.3097724 100.8539714 113.1232366 117.7838022  96.9262628 119.1214537
 117.6457820  96.1942867 119.7226076 118.6942946  96.8371528 118.8398725
 126.7452970  98.8651032 103.8699016 126.1282141  98.1397860 103.7732069
 126.2769459  99.6260392 103.5266090 120.4120323  96.6382587 118.6098217
 121.1219942  95.9975779 118.5684836 120.3689631  96.8895482 119.5324398
 128.4007102 103.5749941 121.5304796 128.3419648 102.8909161 120.8635379
 128.8026620 104.3168931 121.0785422 119.1249257  93.6247805 120.4293857
 118.5886614  93.1738544 121.0815453 118.5365966  93.7593714 119.6864321
 117.4197801 110.3911854 114.3238515 117.6594399 111.0230379 115.0017534
 116.5766997 110.0399894 114.6103874 118.5351516  93.0836456 102.9920320
 117.6580982  92.9625257 102.6282567 119.0109269  92.2922535 102.7399209
 128.4024509 101.5389524 119.7618776 127.5151288 101.2015446 119.8845175
 128.9723060 100.8072556 119.9987541 110.0553656  97.8713616 113.0861827
 110.7424696  97.5575346 112.4982843 109.9001785  98.7754981 112.8129079
 114.8588378  92.7603813 117.5146851 114.7746567  92.1529482 116.7797261
 114.0371085  93.2512831 117.5156347 121.9325662 106.1990977 116.7280019
 121.8595834 107.0045948 117.2399324 121.4903056 106.3982943 115.9028041
 121.7215442 105.4362747 110.2382841 120.9382964 105.9784427 110.3321065
 122.4208187 105.9536726 110.6377082 125.0312092  91.2457376 112.8817046
 125.5280792  90.4927339 112.5618116 124.2599074  91.2821693 112.3160255
 132.8841850  96.9497742 114.5235338 132.8731726  97.8322457 114.1529271
 132.0159229  96.5969293 114.3289875 124.3924346 106.0977811 118.8838178
 125.1052318 106.7325276 118.8114079 123.9014375 106.1941677 118.0678180
 126.1141873 100.0029064 110.4555469 125.1798152 100.1230526 110.2860174
 126.2918541  99.1001530 110.1915479 121.6147061  93.3874759 112.6088731
 121.2444848  92.8345800 113.2969636 122.1106153  92.7832893 112.0563731
 129.5014424  95.8446383 110.9905504 129.9674876  96.6774374 110.9165806
 129.9521925  95.3791364 111.6950762 119.4436259 103.8472254 119.7043749
 120.1445719 104.4808737 119.8573143 118.9731374 104.1886986 118.9439388
 127.5690655 102.1890204 107.9891656 127.8450499 102.0746799 108.8985530
 126.6995154 101.7907689 107.9503829 127.4731087  88.2126970 115.0296405
 126.5594167  88.4431197 115.1978612 127.9024188  88.2965414 115.8810437
 127.2437545  96.4016862 117.5296299 126.5908996  96.6492769 116.8748752
 127.6217925  95.5881000 117.1958776 124.2044719 106.4376555 111.6324469
 124.3867114 105.6198211 112.0952222 125.0277705 106.6544247 111.1949359
 124.5386885 105.3644740 108.8939518 125.0674651 104.8537195 108.2809680
 124.8015104 105.0487270 109.7585051 123.2925118  97.1436673 124.0162336
 122.6165755  97.0430802 124.6864711 124.1152752  96.9875887 124.4798333
 115.0403978 103.3808609 116.6374851 115.6257414 102.6352297 116.7702756
 114.8428816 103.6912566 117.5211515 117.8942633 106.4159857 111.6537294
 117.2253008 106.9005984 111.1701334 117.7555502 106.6629077 112.5680672
 109.6321632  95.9514210 115.3579294 109.6705732  95.4177800 116.1516413
 109.1261925  95.4249415 114.7390272 122.0347901 108.4503600 118.2519952
 122.5866209 108.6135222 119.0169037 122.3754095 109.0408038 117.5799977
 117.0112395  90.7978750 118.8541837 117.0753721  91.6593581 118.4419234
 116.9479515  90.1852752 118.1214195 116.4864667  92.8701883 122.5014871
 117.1136706  92.4878960 123.1152395 115.6292586  92.6516085 122.8670564
 126.8858776 103.2764858 124.1068607 127.4298680 103.8894816 123.6123561
 126.3045621 103.8344436 124.6235620 113.2630210  94.6778312 108.4333226
 113.5583651  93.7688990 108.3800280 112.3618246  94.6566051 108.1114228
 125.1716289 106.3985576 115.2383634 125.0467428 105.5975316 114.7294580
 125.8295380 106.8931769 114.7497604 116.7924457  92.7534308 114.4160774
 116.0711043  93.3670276 114.2768248 117.5817713  93.2892073 114.3377420
 127.2351197 104.1994596 116.8663184 126.2881533 104.0799947 116.7941511
 127.5833970 103.3117094 116.9489446 119.5950770  90.0888735 120.6901426
 120.1185172  90.3351031 121.4527736 119.3763104  90.9208770 120.2704564
 114.9918051  92.3592409 108.5572551 114.6630758  91.4789788 108.3747657
 115.3457422  92.3040078 109.4448940 124.2397630 103.9947312 113.0667537
 124.0922593 103.0664020 113.2475107 125.0651124 104.0167403 112.5824612
 118.1059875  92.6465379 108.9248029 118.4455947  93.1751300 108.2026637
 118.5531995  92.9845785 109.7006595 127.8431752 104.8175871 114.1532409
 128.7678300 104.6118732 114.0156860 127.6747056 104.5692272 115.0621751
 120.8003315  91.0302430 118.3751097 120.4600136  90.2310243 118.7771777
 120.0942322  91.3304141 117.8027930 121.4519787  88.1151742 116.8278420
 122.2745857  87.6412221 116.7057310 121.6957851  88.8942226 117.3277106
 120.0928022  91.1440001 107.1241321 120.8136384  91.5221254 106.6205038
 119.4693326  91.8628878 107.2276299 124.2359145  91.8485150 108.0599654
 124.4522759  92.7309788 107.7588482 123.7553212  91.4571363 107.3305296
 118.9758366  94.8070863 114.6370398 118.8302947  95.1211166 115.5294680
 118.4983570  95.4255763 114.0841297 120.8354749  91.7973411 114.6851288
 120.8216318  90.9014504 114.3483586 121.5527177  91.8044075 115.3189574
 122.6880880  92.2310751 116.7304415 122.4298657  93.1527822 116.7288746
 122.1565920  91.8341186 117.4204880 127.6327068 105.3361538 109.5094501
 127.8063946 104.7707961 108.7568353 128.1255960 106.1362433 109.3273991
 113.4504028  97.3476207 117.5758060 112.9057496  98.1236015 117.7078334
 114.3283378  97.6947012 117.4177181 120.2391645  90.6787791 109.9538858
 120.3607556  89.7504437 110.1529746 119.9493687  90.6926477 109.0417174
 123.1082835  88.3642702 113.0905578 123.1304532  88.4282035 112.1357557
 123.5250894  87.5247210 113.2846084 133.4866460  98.0997961 111.1284800
 133.9297606  97.3505286 110.7303924 132.6092970  98.0908098 110.7458532
 128.6202241 104.6528303 106.6091399 129.3153145 105.2734995 106.8278714
 128.9625391 103.8023654 106.8843777 114.2370050  96.4746104 120.4688216
 113.4951786  96.6228739 121.0552847 113.9162794  96.7354369 119.6054966
 130.5193664 102.1028008 108.1378730 131.0444988 102.4415281 107.4128050
 130.4316017 101.1675024 107.9541864 122.1813713 106.0162082 120.2668606
 122.4900839 105.7711229 121.1391306 122.9789195 106.2208720 119.7787477
 122.2034325 108.1699991 112.4973983 121.7639315 107.6776370 113.1906840
 122.9542442 107.6272959 112.2566058 114.6826664 104.3611532 112.4998611
 115.5084684 104.0615304 112.1197255 114.3320716 103.5919155 112.9488400
 119.6508197 103.7138001 114.5696285 119.0288206 103.0508706 114.2698513
 120.3213064 103.7399132 113.8869932 112.8835269 102.2797859 113.4587545
 112.0467177 101.8520033 113.2771546 112.8558914 102.4730302 114.3958336
 119.7232724  92.1919789 124.1628791 119.7720880  93.0681911 123.7806560
 120.2655239  91.6497182 123.5900434 130.2087570 102.7360912 123.4429928
 129.4183114 102.7185051 122.9034427 129.9720925 103.2749206 124.1978964
 130.3285445  99.5853378 120.7562656 130.3783450  99.4203386 121.6978179
 130.2199368  98.7180637 120.3660537 119.2121704 102.2641924 108.0454745
 119.3609824 102.9477388 107.3921418 120.0188147 102.2447014 108.5604201
 127.6189207  95.5684306 122.0721963 128.5199070  95.4290771 121.7805961
 127.6937182  95.7338761 123.0120140 121.9532013  92.9451161 120.9175149
 121.0835322  93.2384727 120.6457738 122.1891493  93.5291606 121.6382413
 131.8303642 102.0050320 121.0004678 131.5388450 102.3680300 121.8368139
 131.2175773 101.2917328 120.8218010 133.0299324  99.5703200 113.5207248
 133.8646216 100.0093004 113.6844808 133.1658453  99.0941853 112.7015494
 130.0790830  97.1282934 119.4684736 130.5544952  97.3210581 118.6603587
 129.1556396  97.1842120 119.2228119 116.9674337  98.2907102 109.0515814
 116.7220379  97.3869432 109.2496024 117.1370251  98.2924252 108.1095292
 124.6571047  89.1630778 118.4340570 125.1752991  89.8991805 118.1087058
 124.3026179  89.4694771 119.2687329 116.2369984  94.0235459 106.5501976
 115.5439229  94.0979814 105.8942012 115.9921736  93.2595803 107.0723492
 124.9083641  85.5831060 113.9541466 125.1885395  84.9154250 114.5801893
 125.6934248  85.7760156 113.4416130 122.7117109 104.7590054 105.5166493
 122.1391076 105.3780241 105.0636964 123.2849903 105.3089416 106.0506415
 128.7792499  94.0048694 117.7013041 129.7309922  94.1046792 117.7225265
 128.6095950  93.2126963 118.2111126 126.8006879  91.0904278 117.8872442
 126.2056811  91.3709290 117.1918931 126.5156575  91.5798179 118.6589183
 125.9314369 105.0427204 106.6475075 126.8645042 104.9772766 106.8507950
 125.8437582 105.8783471 106.1889608 128.5602386 104.3593075 103.6079022
 128.4816017 104.0252938 104.5014780 129.3812053 104.8514843 103.6070495
 131.2580577  97.2254814 116.8155341 131.2256897  96.2870815 117.0015025
 131.8681201  97.3038851 116.0821166 123.0963908  96.0950867 102.8582545
 124.0423013  95.9657075 102.9270963 122.7178153  95.3565529 103.3351973
 131.4075065  94.0165858 116.8613624 130.8914114  93.2324314 116.6743553
 132.2915014  93.6884574 117.0260144 129.0685792  87.7606873 112.8209437
 128.8710613  87.4521961 113.7052769 129.6785498  88.4868512 112.9507367
 137.0757127  98.2870821 115.9561378 137.8060515  98.0256109 116.5169081
 136.4664072  97.5499543 115.9963446 135.1572424  96.4278684 116.5535829
 134.4305588  96.2934648 115.9452321 134.7419711  96.7355512 117.3592547
 122.9802600 100.1468613 124.3183202 123.9005610 100.3247212 124.5123249
 122.9452183  99.2024659 124.1662901 121.2806825  94.0200844 102.7937430
 120.3738280  93.7233956 102.8700144 121.5582806  93.7230662 101.9271717
 112.1984765  95.3407207 113.2436477 111.8787550  94.4872515 112.9510851
 111.6518194  95.5555785 113.9994444 115.9764673  98.0569648 116.9605983
 116.1950683  98.9886756 116.9794017 116.3890447  97.6977622 117.7460787
 122.8968891  88.5637733 108.9481672 122.0869619  88.2184818 109.3236918
 123.5853308  88.2545277 109.5369283 124.8259439  87.6415780 110.5705968
 125.3790478  88.0611233 111.2295991 125.0629525  86.7151528 110.6128924
 120.8492538  93.6302854 126.3508732 120.7489265  94.5797211 126.2820823
 120.6314080  93.3021093 125.4784802 120.0505610  90.8787779 102.9349410
 120.9124774  91.2042677 103.1945227 120.2355954  90.0919275 102.4222475
 112.0673025  98.9610118 115.2129598 111.3736497  98.5464071 114.6999553
 112.8146016  99.0030655 114.6163017 128.2038246  89.7516305 110.0784633
 127.6236915  90.4101109 109.6962685 127.9374179  88.9293650 109.6672050
 126.6541812  89.1521363 112.2805953 127.1541591  89.2637897 111.4720272
 127.2977420  88.8482416 112.9206761 120.7123808  97.0599993 125.1673794
 120.2290890  97.8600353 125.3737683 120.7984747  97.0707937 124.2141238
 113.9809768  98.8928372 113.0895613 113.9580456  98.9916059 112.1377496
 114.2910404  99.7393523 113.4112779 116.6397146 100.9504527 117.2042228
 117.5940399 100.9188470 117.1372159 116.4409669 100.4895151 118.0192454
 117.2296528  99.5205643 119.7713025 118.0489417 100.0149722 119.7947863
 117.5033336  98.6037611 119.7430593 126.9863124  91.9116396 109.1340981
 126.0988979  92.1966046 108.9161176 127.4017113  91.7510159 108.2868258
 130.3377660  91.9362917 112.8495320 131.1138050  92.4259369 113.1219937
 129.6125794  92.3620971 113.3067190 132.7750219  92.6490536 113.9069261
 133.3694710  92.4086272 113.1962569 132.8476803  91.9297666 114.5342797
 114.9947375 106.4924147 114.2212425 114.8601842 105.7324548 113.6550424
 114.5779437 107.2165047 113.7541214 126.1306338 101.6761070 103.2289001
 126.8342188 101.8811073 103.8446656 125.4068986 102.2437832 103.4938084
 126.9604148  97.4270931 109.3491271 126.9039349  97.8839483 108.5098903
 127.5132490  96.6661616 109.1714114 130.7708954  93.2160663 110.1741390
 130.5145888  92.8157299 111.0049598 130.1461822  93.9304457 110.0491530
 135.0821292  95.9556737 112.6812682 134.5220850  96.0249926 113.4544244
 134.4764795  95.7797721 111.9612178 118.1516500 107.3893464 114.4330868
 118.0348885 108.3338896 114.3309558 117.3308947 107.0867025 114.8216667
 128.0393035 102.1143599 105.2787461 128.8738639 101.6824798 105.0964936
 127.8777378 101.9425613 106.2064355 127.6938927  98.6175713 106.6443800
 127.6387731  98.4519984 105.7032244 127.0684982  99.3251746 106.8005990
 112.4831442  93.8543777 120.4705222 113.1290306  93.3442731 120.9592448
 112.2748593  94.5912459 121.0448648 125.0084834 100.9224625 125.9697363
 125.8775994 101.0965277 125.6083998 124.5291586 101.7419041 125.8473092
 121.0035053  88.1183822 106.2229119 120.9913722  89.0625662 106.3797389
 121.8958474  87.9353967 105.9288580 119.1771015 108.0421726 117.6486797
 120.0798261 108.0745336 117.9653292 118.9508385 107.1122177 117.6633132
 120.9324617 106.7952712 114.3096875 119.9820248 106.7954574 114.1961247
 121.2357103 106.0485447 113.7932910 124.8187172  84.7126598 110.4775055
 124.0519568  84.1585085 110.6231738 125.2297877  84.7848467 111.3389207
 116.8228933  91.0011394 124.5680237 117.6860395  90.6448199 124.7783561
 116.2494344  90.6625289 125.2555641 136.6677310 112.6313251 115.3742638
 137.3055720 112.5119998 114.6705978 136.5498153 113.5794094 115.4330590
 133.4767016 112.5840679 115.3104162 133.1385528 112.4681743 114.4224697
 134.3456785 112.1831844 115.2905168 129.3353832 114.4376155 111.3001053
 128.7718697 114.3466092 110.5317341 129.2206227 113.6176060 111.7803546
 126.8818264 115.9327347 114.1385274 127.6739556 115.5918171 113.7231573
 127.1214914 116.0422322 115.0587427 134.9153391 118.1047123 106.6115518
 134.2641371 118.6901203 106.2249532 135.7097754 118.6353318 106.6710556
 128.8409018 115.1936260 107.0102652 129.6139894 114.6465247 106.8715528
 129.1934417 116.0580509 107.2217114 131.6050267 113.8989491 116.8070911
 132.2013840 113.6745513 116.0927874 131.6625239 113.1574236 117.4096359
 131.1775296 111.3528926 104.6421102 131.4300816 110.8310447 103.8804565
 130.2399855 111.1895071 104.7447786 136.2218579 110.3564704 112.4495846
 137.0081668 109.9384128 112.0986263 136.4857283 111.2610797 112.6177494
 136.3928656 115.7937555 107.1484502 135.7574489 115.8672181 107.8605407
 136.0626062 116.3831154 106.4703582 141.6227006 110.2939938 113.3528824
 142.3552178 109.7239154 113.5866654 140.8666361 109.9061538 113.7935330
 130.8971584 113.2557032 106.8445477 130.7807843 112.5801935 107.5126562
 131.0073844 112.7689406 106.0277630 133.2403125 112.7167179 110.5492167
 132.8761333 112.1897800 111.2605088 134.0970241 112.3265648 110.3758652
 139.1452426 104.0061512 117.8123433 138.8135751 104.8756923 117.5884648
 138.5498039 103.6897796 118.4917463 132.8808612 107.7457079 105.5453515
 133.0483015 108.6137315 105.9123986 132.6905781 107.9084360 104.6214804
 129.0896427 112.6587855 113.2456050 128.1646924 112.5264069 113.4533742
 129.3380840 113.4382074 113.7425992 139.0381089 108.7256598 114.8916783
 138.1297967 108.6572006 114.5975544 138.9868685 109.2028543 115.7198608
 132.8597833 110.2014736 106.5300182 132.7397458 110.6471787 107.3685662
 132.1650422 110.5500054 105.9713720 126.4505238 112.3021128 114.0799839
 126.5797619 112.5555607 114.9939251 125.7702689 112.8948836 113.7604494
 130.6204725 122.9718378 110.1790313 130.5428755 123.9226203 110.2578794
 130.0166369 122.6264251 110.8365239 140.9042736 106.9273036 116.6694657
 140.2617116 107.2205569 116.0234451 140.3997664 106.8125957 117.4747853
 138.5582899 110.6736209 107.3580516 139.4700756 110.9063596 107.1828214
 138.0492546 111.2573254 106.7955595 133.1954737 110.0333444 118.3675366
 134.0415932 110.4572858 118.5110015 133.1353375 109.3767068 119.0613929
 135.9018874 106.8494245 115.6070377 135.0403353 107.1475499 115.8987114
 135.9281309 107.0664644 114.6751410 132.7180444 115.3936436 112.0144183
 133.1818789 115.6724139 111.2248805 132.4537242 114.4919881 111.8317273
 129.6104525 114.9407918 114.9523946 130.1805882 115.3695186 114.3141430
 130.2012636 114.6590502 115.6508131 131.6549330 111.5159588 108.8233748
 132.3573373 111.9680632 109.2907674 131.3229958 110.8743407 109.4513641
 125.3974664 109.7743141 114.1250881 124.6073718 110.0300670 113.6490992
 125.8885911 110.5891479 114.2302922 127.3489409 110.1387720 111.0834358
 126.5520572 110.2506415 111.6017854 127.1215001 110.4774373 110.2175248
 123.6812367 110.0273631 116.5565872 123.9320405 110.9120641 116.8223448
 124.2171915 109.8478233 115.7840964 132.8943094 118.3300531 108.8995853
 132.7588769 119.1752067 109.3280701 133.4352907 118.5319809 108.1361787
 126.3472492 115.8475969 109.4723778 126.8597012 116.6419219 109.6229343
 126.9995204 115.1502259 109.4057379 128.1567376 118.9641725 111.5546531
 128.3334005 119.8859690 111.3667515 128.9524210 118.6500145 111.9840911
 127.4419733 111.0106357 121.4308694 127.3273248 110.1091614 121.7315793
 126.5864251 111.2570054 121.0793511 136.2435558 101.8531093 117.4294746
 135.8999827 102.7432735 117.3533857 136.6114520 101.6632751 116.5664331
 124.3121408 114.1764623 110.2483349 125.1496630 114.5861632 110.0317056
 124.4899676 113.2364065 110.2183542 136.2085841 111.8439704 105.9367181
 135.6932464 112.6144309 106.1755569 135.9363149 111.1704840 106.5600243
 133.7932952 106.6889405 110.9952420 132.9374548 106.2996255 110.8158059
 134.2059903 106.7681366 110.1352205 135.3232098 104.2235748 115.3943980
 134.8196894 104.1865883 114.5811785 135.6162705 105.1328491 115.4540636
 131.5674984 104.3074478 114.4010161 132.4327981 104.1117286 114.0416051
 131.6352493 104.0784830 115.3279518 141.1820115 114.5972059 107.8720355
 140.4049557 114.2583218 107.4275517 141.8611596 114.6024682 107.1975320
 135.9972144 109.7166796 107.7626963 135.6922279 110.0312945 108.6137106
 136.9502586 109.7948216 107.8054296 134.4418576 115.8757019 109.4119917
 133.9139937 115.1409779 109.0993154 133.9406078 116.6531696 109.1659885
 129.1737303 106.5376686 111.7726528 129.7481055 106.3151867 111.0399721
 129.7608286 106.6065380 112.5255129 138.2316880 112.4250413 112.5790905
 138.7448762 113.0580404 113.0812614 138.8818104 111.8251608 112.2134265
 129.5006890 108.5681147 105.7922413 128.6644203 108.9055833 106.1131688
 129.3611660 108.4330126 104.8549550 131.4759971 103.4117935 110.5001598
 130.8224383 103.0966952 109.8758212 131.4340445 102.7893675 111.2261421
 132.5871176 113.6937230 102.4154890 131.6798237 113.4626483 102.6146039
 133.0842208 112.8974849 102.6028871 135.4939255 122.4034737 105.3351576
 134.8200953 122.7066434 105.9436534 135.8805077 123.2063817 104.9857033
 134.7097711 109.8999868 114.8249245 133.7920273 110.1214815 114.6670933
 135.1257855 109.9746179 113.9660953 135.4932759 111.2991284 109.9551925
 136.2404578 111.8112681 109.6459048 135.7624349 110.9775337 110.8156319
 133.7659409 113.7949825 106.9378880 132.8570628 113.5108857 107.0351350
 133.7954493 114.2148903 106.0782187 138.9978677 117.4056414 110.7070047
 138.5441004 116.5647324 110.7635238 138.3672643 118.0417812 111.0444827
 137.9411596 108.3348400 111.9370715 137.2034353 107.8225786 112.2680957
 138.1938370 107.8948782 111.1253992 137.4411616 119.2432911 111.6419865
 137.7334590 119.8037968 110.9232231 137.9510236 119.5361472 112.3973025
 138.0423223 101.1124652 112.5312484 138.3482100 100.2522015 112.2438399
 138.7675828 101.7042272 112.3311478 124.3347580 111.5155339 110.9194082
 124.1371979 110.9224699 110.1945149 123.7794244 111.2107549 111.6370021
 132.3144303 111.4078445 113.0388675 132.3692913 110.4552282 112.9631152
 131.5035505 111.5637884 113.5229974 133.4635497 115.3358568 104.2766958
 133.0254927 114.6194427 103.8172596 134.2045938 115.5634683 103.7152050
 130.2536663 110.0255505 110.7979054 129.4404529 110.3249675 111.2044246
 130.7495657 109.6311194 111.5153536 132.4045241 120.0213262 112.7313319
 132.3621420 120.2474108 111.8021851 133.3207940 119.7876636 112.8799120
 141.5808612 113.6115765 110.3343277 141.4426510 113.8017361 109.4064466
 141.2244831 114.3735148 110.7911328 129.7450738 107.5973860 116.4140289
 130.3850117 107.4562619 115.7163252 128.9128268 107.3108374 116.0378891
 130.5211042 116.8976291 112.5275281 131.3151640 116.4026611 112.3257856
 129.8102734 116.3694154 112.1642987 126.8293805 111.0419373 108.6035034
 125.8991393 110.9803828 108.8204996 126.9251277 110.5195325 107.8071675
 126.7479354 107.5674185 111.1913276 127.0086172 108.4819519 111.0822436
 127.5696527 107.0998628 111.3409889 128.2204280 108.9811943 118.3612100
 128.8927333 108.7729305 117.7124749 127.3934066 108.7834029 117.9217333
 134.1229852 105.6073883 120.3777761 133.4757767 106.3063833 120.2842238
 134.8930867 106.0410027 120.7454009 133.6930470 122.5714409 107.5498655
 133.8682225 122.1002452 108.3644278 133.0063258 123.1980175 107.7779916
 134.6487533 116.8486915 113.5961956 134.3137366 116.8087685 114.4919606
 134.1491479 116.1831631 113.1232366 128.6231777 112.2554546 119.1214537
 128.4851575 111.5234784 119.7226076 129.5336700 112.1663446 118.8398725
 137.5846725 114.1942950 103.8699016 136.9675895 113.4689778 103.7732069
 137.1163213 114.9552310 103.5266090 129.9643012 108.9539723 120.4293857
 129.4280369 108.5030461 121.0815453 129.3759720 109.0885632 119.6864321
 129.3745271 108.4128374 102.9920320 128.4974737 108.2917175 102.6282567
 129.8503024 107.6214452 102.7399209 120.8947411 113.2005534 113.0861827
 121.5818450 112.8867264 112.4982843 120.7395539 114.1046899 112.8129079
 125.6982133 108.0895730 117.5146851 125.6140322 107.4821400 116.7797261
 124.8764839 108.5804749 117.5156347 132.5609197 120.7654665 110.2382841
 131.7776718 121.3076345 110.3321065 133.2601942 121.2828644 110.6377082
 135.8705847 106.5749294 112.8817046 136.3674546 105.8219256 112.5618116
 135.0992828 106.6113611 112.3160255 136.9535627 115.3320981 110.4555469
 136.0191906 115.4522444 110.2860174 137.1312296 114.4293448 110.1915479
 132.4540815 108.7166677 112.6088731 132.0838603 108.1637717 113.2969636
 132.9499908 108.1124810 112.0563731 140.3408179 111.1738300 110.9905504
 140.8068631 112.0066292 110.9165806 140.7915679 110.7083282 111.6950762
 138.4084410 117.5182122 107.9891656 138.6844254 117.4038716 108.8985530
 137.5388909 117.1199607 107.9503829 138.3124841 103.5418887 115.0296405
 137.3987921 103.7723114 115.1978612 138.7417943 103.6257332 115.8810437
 135.0438474 121.7668473 111.6324469 135.2260868 120.9490129 112.0952222
 135.8671460 121.9836165 111.1949359 135.3780639 120.6936658 108.8939518
 135.9068406 120.1829112 108.2809680 135.6408859 120.3779188 109.7585051
 125.8797732 118.7100527 116.6374851 126.4651169 117.9644215 116.7702756
 125.6822570 119.0204484 117.5211515 128.7336387 121.7451774 111.6537294
 128.0646763 122.2297902 111.1701334 128.5949257 121.9920995 112.5680672
 120.4715387 111.2806127 115.3579294 120.5099486 110.7469718 116.1516413
 119.9655680 110.7541333 114.7390272 127.8506149 106.1270668 118.8541837
 127.9147476 106.9885499 118.4419234 127.7873269 105.5144669 118.1214195
 127.3258422 108.1993800 122.5014871 127.9530460 107.8170878 123.1152395
 126.4686340 107.9808002 122.8670564 124.1023964 110.0070229 108.4333226
 124.3977405 109.0980908 108.3800280 123.2012000 109.9857969 108.1114228
 127.6318211 108.0826226 114.4160774 126.9104797 108.6962194 114.2768248
 128.4211467 108.6183991 114.3377420 130.4344525 105.4180652 120.6901426
 130.9578927 105.6642949 121.4527736 130.2156858 106.2500687 120.2704564
 125.8311806 107.6884327 108.5572551 125.5024512 106.8081706 108.3747657
 126.1851177 107.6331996 109.4448940 135.0791385 119.3239230 113.0667537
 134.9316347 118.3955937 113.2475107 135.9044878 119.3459320 112.5824612
 128.9453629 107.9757297 108.9248029 129.2849702 108.5043218 108.2026637
 129.3925750 108.3137703 109.7006595 131.6397070 106.3594348 118.3751097
 131.2993890 105.5602161 118.7771777 130.9336076 106.6596058 117.8027930
 132.2913542 103.4443660 116.8278420 133.1139611 102.9704138 116.7057310
 132.5351605 104.2234144 117.3277106 130.9321776 106.4731918 107.1241321
 131.6530139 106.8513171 106.6205038 130.3087080 107.1920795 107.2276299
 135.0752899 107.1777067 108.0599654 135.2916514 108.0601705 107.7588482
 134.5946966 106.7863281 107.3305296 129.8152121 110.1362781 114.6370398
 129.6696701 110.4503084 115.5294680 129.3377324 110.7547681 114.0841297
 131.6748503 107.1265329 114.6851288 131.6610072 106.2306422 114.3483586
 132.3920931 107.1335992 115.3189574 133.5274634 107.5602669 116.7304415
 133.2692412 108.4819739 116.7288746 132.9959674 107.1633103 117.4204880
 138.4720823 120.6653456 109.5094501 138.6457700 120.0999878 108.7568353
 138.9649714 121.4654351 109.3273991 124.2897783 112.6768125 117.5758060
 123.7451251 113.4527933 117.7078334 125.1677133 113.0238930 117.4177181
 131.0785399 106.0079709 109.9538858 131.2001311 105.0796355 110.1529746
 130.7887442 106.0218395 109.0417174 133.9476590 103.6934619 113.0905578
 133.9698287 103.7573952 112.1357557 134.3644649 102.8539128 113.2846084
 144.3260214 113.4289879 111.1284800 144.7691360 112.6797204 110.7303924
 143.4486724 113.4200015 110.7458532 139.4595995 119.9820220 106.6091399
 140.1546900 120.6026913 106.8278714 139.8019145 119.1315572 106.8843777
 125.0763805 111.8038021 120.4688216 124.3345541 111.9520657 121.0552847
 124.7556549 112.0646287 119.6054966 141.3587418 117.4319926 108.1378730
 141.8838743 117.7707199 107.4128050 141.2709771 116.4966941 107.9541864
 125.5220418 119.6903450 112.4998611 126.3478438 119.3907222 112.1197255
 125.1714470 118.9211072 112.9488400 130.4901951 119.0429918 114.5696285
 129.8681961 118.3800623 114.2698513 131.1606818 119.0691050 113.8869932
 123.7229023 117.6089776 113.4587545 122.8860932 117.1811951 113.2771546
 123.6952669 117.8022220 114.3958336 130.0515458 117.5933842 108.0454745
 130.2003579 118.2769306 107.3921418 130.8581902 117.5738932 108.5604201
 127.8068091 113.6199019 109.0515814 127.5614133 112.7161349 109.2496024
 127.9764006 113.6216170 108.1095292 135.4964801 104.4922696 118.4340570
 136.0146745 105.2283723 118.1087058 135.1419934 104.7986689 119.2687329
 127.0763739 109.3527377 106.5501976 126.3832984 109.4271732 105.8942012
 126.8315491 108.5887720 107.0723492 135.7477395 100.9122978 113.9541466
 136.0279149 100.2446167 114.5801893 136.5328002 101.1052074 113.4416130
 133.5510864 120.0881972 105.5166493 132.9784831 120.7072159 105.0636964
 134.1243657 120.6381334 106.0506415 137.6400633 106.4196195 117.8872442
 137.0450565 106.7001208 117.1918931 137.3550330 106.9090096 118.6589183
 136.7708124 120.3719122 106.6475075 137.7038797 120.3064684 106.8507950
 136.6831336 121.2075389 106.1889608 139.3996140 119.6884993 103.6079022
 139.3209772 119.3544856 104.5014780 140.2205807 120.1806760 103.6070495
 133.9357662 111.4242785 102.8582545 134.8816767 111.2948993 102.9270963
 133.5571907 110.6857447 103.3351973 139.9079547 103.0898791 112.8209437
 139.7104368 102.7813879 113.7052769 140.5179252 103.8160430 112.9507367
 132.1200579 109.3492761 102.7937430 131.2132035 109.0525874 102.8700144
 132.3976560 109.0522579 101.9271717 123.0378520 110.6699125 113.2436477
 122.7181304 109.8164433 112.9510851 122.4911948 110.8847703 113.9994444
 126.8158427 113.3861566 116.9605983 127.0344437 114.3178673 116.9794017
 127.2284201 113.0269540 117.7460787 133.7362645 103.8929651 108.9481672
 132.9263374 103.5476736 109.3236918 134.4247062 103.5837195 109.5369283
 135.6653193 102.9707698 110.5705968 136.2184232 103.3903151 111.2295991
 135.9023280 102.0443446 110.6128924 130.8899364 106.2079696 102.9349410
 131.7518528 106.5334595 103.1945227 131.0749708 105.4211192 102.4222475
 122.9066780 114.2902036 115.2129598 122.2130251 113.8755989 114.6999553
 123.6539771 114.3322573 114.6163017 139.0432001 105.0808223 110.0784633
 138.4630670 105.7393027 109.6962685 138.7767933 104.2585567 109.6672050
 137.4935567 104.4813281 112.2805953 137.9935345 104.5929815 111.4720272
 138.1371175 104.1774333 112.9206761 124.8203522 114.2220290 113.0895613
 124.7974210 114.3207977 112.1377496 125.1304159 115.0685441 113.4112779
 127.4790900 116.2796445 117.2042228 128.4334154 116.2480387 117.1372159
 127.2803424 115.8187069 118.0192454 137.8256879 107.2408313 109.1340981
 136.9382734 107.5257964 108.9161176 138.2410868 107.0802077 108.2868258
 141.1771415 107.2654834 112.8495320 141.9531805 107.7551287 113.1219937
 140.4519549 107.6912888 113.3067190 143.6143973 107.9782453 113.9069261
 144.2088464 107.7378189 113.1962569 143.6870557 107.2589584 114.5342797
 125.8341129 121.8216064 114.2212425 125.6995597 121.0616465 113.6550424
 125.4173191 122.5456964 113.7541214 136.9700092 117.0052988 103.2289001
 137.6735942 117.2102990 103.8446656 136.2462741 117.5729750 103.4938084
 137.7997902 112.7562849 109.3491271 137.7433104 113.2131401 108.5098903
 138.3526245 111.9953534 109.1714114 141.6102708 108.5452581 110.1741390
 141.3539642 108.1449217 111.0049598 140.9855576 109.2596375 110.0491530
 145.9215046 111.2848654 112.6812682 145.3614604 111.3541844 113.4544244
 145.3158549 111.1089639 111.9612178 138.8786789 117.4435517 105.2787461
 139.7132393 117.0116716 105.0964936 138.7171132 117.2717531 106.2064355
 138.5332682 113.9467630 106.6443800 138.4781485 113.7811902 105.7032244
 137.9078737 114.6543663 106.8005990 123.3225197 109.1835695 120.4705222
 123.9684060 108.6734649 120.9592448 123.1142348 109.9204376 121.0448648
 131.8428807 103.4475739 106.2229119 131.8307477 104.3917579 106.3797389
 132.7352229 103.2645885 105.9288580 135.6580927 100.0418516 110.4775055
 134.8913322  99.4877003 110.6231738 136.0691632 100.1140385 111.3389207
 142.0169050 126.6820844 104.6421102 142.2694571 126.1602365 103.8804565
 141.0793609 126.5186989 104.7447786 143.7202367 123.0748996 105.5453515
 143.8876769 123.9429233 105.9123986 143.5299536 123.2376278 104.6214804
 140.3400645 123.8973064 105.7922413 139.5037957 124.2347751 106.1131688
 140.2005414 123.7622044 104.8549550 142.3153725 118.7409852 110.5001598
 141.6618138 118.4258869 109.8758212 142.2734200 118.1185593 111.2261421
 143.4264930 129.0229147 102.4154890 142.5191992 128.7918401 102.6146039
 143.9235962 128.2266767 102.6028871 140.2139025 123.7420292 102.9920320
 139.3368491 123.6209093 102.6282567 140.6896778 122.9506370 102.7399209
 134.9417719 125.3362147 108.4333226 135.2371160 124.4272825 108.3800280
 134.0405755 125.3149887 108.1114228 136.6705560 123.0176245 108.5572551
 136.3418267 122.1373624 108.3747657 137.0244931 122.9623913 109.4448940
 141.7715531 121.8023836 107.1241321 142.4923893 122.1805089 106.6205038
 141.1480835 122.5212713 107.2276299 137.9157493 124.6819294 106.5501976
 137.2226738 124.7563649 105.8942012 137.6709245 123.9179638 107.0723492
 144.7751417 126.7534702 102.8582545 145.7210522 126.6240911 102.9270963
 144.3965662 126.0149364 103.3351973 142.9594334 124.6784679 102.7937430
 142.0525789 124.3817792 102.8700144 143.2370315 124.3814497 101.9271717
 144.5756400 119.2221569 108.9481672 143.7657128 118.8768654 109.3236918
 145.2640817 118.9129112 109.5369283 141.7293119 121.5371614 102.9349410
 142.5912283 121.8626512 103.1945227 141.9143463 120.7503110 102.4222475
 142.6822562 118.7767657 106.2229119 142.6701231 119.7209497 106.3797389
 143.5745983 118.5937803 105.9288580  54.7448445  -7.3262923  96.9035620
  54.6672475  -6.3755098  96.9824100  54.1410089  -7.6717051  97.5610546
  53.4042412  -9.8161402 104.2802180  53.9549837  -9.9444339 103.5079174
  52.5653888  -9.5166513 103.9297073  59.6182974  -7.8946564  92.0596882
  58.9444673  -7.5914868  92.6681840  60.0048796  -7.0917484  91.7102340
  57.8174190  -7.7266892  94.2743962  57.9925945  -8.1978849  95.0889584
  57.1306978  -7.1001126  94.5025222  52.3835275  -4.5777529 101.0483822
  52.6231873  -3.9459005 101.7262840  51.5404471  -4.9289489 101.3349181
  56.8963137  -8.7698407 103.4525326  56.8233308  -7.9643435 103.9644630
  56.4540530  -8.5706441 102.6273347  56.6852916  -9.5326637  96.9628147
  55.9020438  -8.9904956  97.0566372  57.3845662  -9.0152657  97.3622389
  59.3561820  -8.8711573 105.6083484  60.0689792  -8.2364108 105.5359386
  58.8651849  -8.7747707 104.7923486  52.8580107  -8.5529527  98.3782600
  52.1890482  -8.0683399  97.8946640  52.7192977  -8.3060306  99.2925979
  56.9985376  -6.5185783 104.9765259  57.5503684  -6.3554162 105.7414344
  57.3391569  -5.9281345 104.3045284  57.1451187  -8.9527302 106.9913913
  57.4538313  -9.1978155 107.8636613  57.9426669  -8.7480663 106.5032783
  57.1671799  -6.7989392  99.2219290  56.7276789  -7.2913013  99.9152146
  57.9179916  -7.3416424  98.9811365  49.6464138 -10.6077851  99.2243918
  50.4722158 -10.9074079  98.8442561  49.2958190 -11.3770229  99.6733706
  49.9584849  -8.4765237 100.9457732  49.8239317  -9.2364836 100.3795730
  49.5416911  -7.7524337 100.4786521  53.1153975  -7.5795920 101.1576175
  52.9986359  -6.6350487 101.0554865  52.2946421  -7.8822358 101.5461974
  54.1408489  -6.9267658 104.3732103  55.0435736  -6.8944048 104.6898598
  53.9145859  -7.8567207 104.3878439  55.8962091  -8.1736671 101.0342182
  54.9457722  -8.1734810 100.9206554  56.1994577  -8.9203937 100.5178216
  71.6314784  -2.3376133 102.0987944  72.2693194  -2.4569386 101.3951284
  71.5135627  -1.3895289 102.1575896  68.4404491  -2.3848705 102.0349469
  68.1023002  -2.5007640 101.1470004  69.3094259  -2.7857540 102.0150475
  64.2991306  -0.5313228  98.0246360  63.7356171  -0.6223291  97.2562648
  64.1843701  -1.3513324  98.5048852  68.9224274  -1.2313853 107.9935674
  68.9112914  -1.6261055 107.1216178  69.0844913  -1.9647780 108.5869446
  61.8455738   0.9637963 100.8630580  62.6377030   0.6228788 100.4476880
  62.0852388   1.0732938 101.7832734  69.8790865   3.1357739  93.3360825
  69.2278845   3.7211820  92.9494839  70.6735228   3.6663934  93.3955862
  63.8046492   0.2246876  93.7347959  64.5777368  -0.3224136  93.5960835
  64.1571891   1.0891126  93.9462421  65.6431535   1.5523259 106.9414858
  65.3521401   2.4568890 106.8261525  66.2788519   1.5939786 107.6558928
  66.5687742  -1.0699893 103.5316218  67.1651314  -1.2943870 102.8173181
  66.6262713  -1.8115147 104.1341666  66.1412770  -3.6160457  91.3666409
  66.3938291  -4.1378936  90.6049872  65.2037329  -3.7794312  91.4693093
  71.3566130   0.8248171  93.8729809  70.7211963   0.8982798  94.5850714
  71.0263537   1.4141770  93.1948888  65.8609059  -1.7132351  93.5690784
  65.7445317  -2.3887448  94.2371868  65.9711319  -2.1999978  92.7522937
  68.2040600  -2.2522204  97.2737473  67.8398807  -2.7791583  97.9850395
  69.0607716  -2.6423735  97.1003959  70.6021420   1.2384674 103.9364652
  70.3022143   2.1409713 103.8280459  70.2572479   0.9716857 104.7885805
  64.0533901  -2.3101529  99.9701357  63.1284398  -2.4425315 100.1779048
  64.3018315  -1.5307310 100.4671299  67.8235308  -4.7674647  93.2545489
  67.7034933  -4.3217596  94.0930969  67.1287896  -4.4189329  92.6959027
  61.4142712  -2.6668255 100.8045146  61.5435094  -2.4133776 101.7184557
  60.7340164  -2.0740547 100.4849801  65.5842200   8.0028995  96.9035620
  65.5066229   8.9536820  96.9824100  64.9803843   7.6574867  97.5610546
  68.0759429  -4.8243140 109.5596987  67.2992763  -4.2649220 109.5499851
  68.7149992  -4.3386357 110.0811857  66.3305802  -2.0157687 109.1214954
  67.0720486  -1.4772643 108.8449777  65.6242787  -1.3891398 109.2786506
  71.8061141   0.1271454 107.7187115  72.2144497  -0.3146136 106.9741748
  71.0838403  -0.4475919 107.9721308  68.1592211  -4.9355939 105.0920672
  69.0053407  -4.5116526 105.2355321  68.0990849  -5.5922315 105.7859235
  72.1289956   0.6872644 101.4739404  71.4998818   0.8518359 100.7715472
  71.7415618   1.1014254 102.2450368  76.0079188   1.6227082  98.8283768
  75.3230226   2.0025984  98.2780801  76.0923037   2.2322409  99.5615716
  73.2630120  -0.7312959 105.4279111  73.4747015  -0.0881199 104.7513492
  73.2159868  -1.5650642 104.9601041  67.6817918   0.4247053  98.7389489
  68.1456263   0.7034756  97.9494112  67.4174716  -0.4769503  98.5562580
  64.5741999  -0.0281466 101.6769252  65.1443356   0.4005802 101.0386737
  65.1650111  -0.3098881 102.3753438  66.6186804  -3.4529795  95.5479054
  67.3210847  -3.0008751  96.0152981  66.2867432  -4.0945976  96.1758947
  65.0667165  -4.8618038 109.9230264  64.4365826  -4.1801758 110.1565661
  64.9603253  -4.9734957 108.9783402  60.3612138  -5.1946242 100.8496188
  59.5711192  -4.9388714 100.3736298  60.8523385  -4.3797905 100.9548228
  74.3775947   2.1458997 103.6001469  75.1993391   1.7439184 103.3184150
  74.3738350   2.0427231 104.5517585  62.3126883  -4.8301663  97.8079665
  61.5158047  -4.7182969  98.3263160  62.0852476  -4.4915011  96.9420555
  68.1432551   1.6943040 105.7562179  68.2076983   2.1563447 106.5920351
  67.4343475   1.0640405 105.8844489  58.6449841  -4.9415752 103.2811179
  58.8957879  -4.0568742 103.5468755  59.1809389  -5.1211150 102.5086271
  67.8580569   3.3611148  95.6241160  67.7226243   4.2062683  96.0526007
  68.3990381   3.5630425  94.8607093  61.3109966   0.8786586  96.1969085
  61.8234487   1.6729836  96.3474649  61.9632679   0.1812876  96.1302686
  63.1204851   3.9952342  98.2791838  63.2971479   4.9170307  98.0912822
  63.9161684   3.6810761  98.7086218  62.4057207  -3.9583026 108.1554001
  62.2910722  -4.8597769 108.4561100  61.5501725  -3.7119329 107.8038818
  69.4849045   3.9834714 109.7541502  69.0412899   3.1971093 109.4362406
  70.1466259   4.1713865 109.0885392  64.2436166   5.5130516 104.2802180
  64.7943591   5.3847579 103.5079174  63.4047642   5.8125405 103.9297073
  71.5830283   4.2637514 107.7822903  71.5648758   5.0846395 107.2903172
  72.5050203   4.1391589 108.0073044  68.0403337   1.7781643 108.6246411
  68.5731674   1.0169932 108.3945719  67.5117418   1.4855295 109.3670566
  59.2758883  -0.7924760  96.9728655  60.1134105  -0.3827752  96.7562363
  59.4537150  -1.7325318  96.9428849  71.1723315  -3.1249679  92.6612488
  70.6569938  -2.3545075  92.9000876  70.9000623  -3.7984543  93.2845550
  76.1457589  -0.3717325  94.5965662  75.3687032  -0.7106165  94.1520824
  76.8249070  -0.3664702  93.9220627  69.4056050   0.9067636  96.1365223
  68.8777411   0.1720396  95.8238461  68.9043553   1.6842312  95.8905192
  74.3848896  -0.8983344 101.2532270  73.7272570  -0.2084082 101.3412398
  75.1889295  -0.5086912 101.5966256  73.1954355  -2.5438971  99.3036211
  73.7086236  -1.9108979  99.8057921  73.8455579  -3.1437775  98.9379571
  64.4644365  -6.4008237  92.5167720  63.6281677  -6.0633550  92.8376995
  64.3249134  -6.5359257  91.5794857  67.5508650  -1.2752154  89.1400196
  66.6435712  -1.5062900  89.3391345  68.0479682  -2.0714535  89.3274178
  70.4576729   7.4345353  92.0596882  69.7838428   7.7377050  92.6681840
  70.8442551   8.2374434  91.7102340  69.6735186  -5.0689515 101.5494552
  68.7557747  -4.8474568 101.3916240  70.0895329  -4.9943205 100.6906259
  70.4570233  -3.6698100  96.6797232  71.2042052  -3.1576702  96.3704354
  70.7261823  -3.9914047  97.5401626  68.7296884  -1.1739559  93.6624186
  67.8208103  -1.4580526  93.7596656  68.7591967  -0.7540480  92.8027493
  73.9616151   2.4367031  97.4315354  73.5078478   1.5957940  97.4880544
  73.3310118   3.0728429  97.7690134  72.4049090   4.2743527  98.3665172
  72.6972065   4.8348584  97.6477538  72.9147711   4.5672088  99.1218331
  59.2985054  -3.4534045  97.6439389  59.1009454  -4.0464684  96.9190455
  58.7431718  -3.7581835  98.3615327  67.2781778  -3.5610938  99.7633982
  67.3330387  -4.5137102  99.6876458  66.4672980  -3.4051499 100.2475280
  68.4272971   0.3669185  91.0012265  67.9892401  -0.3494956  90.5417902
  69.1683412   0.5945300  90.4397356  65.2174137  -4.9433879  97.5224361
  64.4042003  -4.6439708  97.9289553  65.7133132  -5.3378190  98.2398843
  67.3682715   5.0523878  99.4558625  67.3258894   5.2784725  98.5267157
  68.2845414   4.8187253  99.6044426  70.8148349  -4.4792054 106.3539255
  71.1697737  -4.2520581 107.2133720  71.4620480  -4.1473677 105.7316510
  76.5446086  -1.3573618  97.0588584  76.4063985  -1.1672022  96.1309773
  76.1882305  -0.5954235  97.5156635  76.5715466   0.7102909 102.0699855
  77.0051972   0.6178198 102.9182909  77.2847046   0.6860409 101.4319871
  65.4848516   1.9286907  99.2520588  66.2789115   1.4337227  99.0503163
  64.7740209   1.4004770  98.8888294  70.3043361   4.3105003 103.6032956
  70.3580383   4.8795939 104.3710672  69.4358142   4.4806888 103.2386993
  61.7931280  -3.9270011  95.3280341  60.8628868  -3.9885555  95.5450303
  61.8888752  -4.4494058  94.5316982  61.7116829  -7.4015198  97.9158582
  61.9723646  -6.4869865  97.8067743  62.5334001  -7.8690756  98.0655195
  63.1841754  -5.9877441 105.0857407  63.8564807  -6.1960079 104.4370056
  62.3571541  -6.1855355 104.6462639  77.4331015   0.7526609 104.6032740
  77.6266905   1.6572420 104.8492015  77.3331633   0.2934029 105.4371325
  72.4946124   0.9033352 110.1773621  72.3431630   0.6743904 109.2603705
  72.4850803   1.8603954 110.1904966  69.2631460  -1.5234735 105.1619887
  70.1923520  -1.3723575 104.9888855  68.8422490  -1.4350714 104.3068534
  68.0619792   2.5015929 102.9318425  67.9230878   2.1334714 103.8044363
  67.2734388   3.0163569 102.7602383  68.6567944   7.6025026  94.2743962
  68.8319700   7.1313069  95.0889584  67.9700732   8.2290792  94.5025222
  69.6125007   1.8797532 100.3207263  69.2774840   1.8398302 101.2164913
  69.1128953   1.2142248  99.8477673  63.5869251  -2.7134838 105.8459844
  63.4489049  -3.4454599 106.4471383  64.4974175  -2.8025938 105.5644032
  72.5484199  -0.7746434  90.5944323  71.9313370  -1.4999605  90.4977375
  72.0800687  -0.0137073  90.2511397  66.2151552  -3.0014879 105.3343524
  66.9251170  -3.6421686 105.2930142  66.1720860  -2.7501984 106.2569704
  74.2038331   3.9352475 108.2550103  74.1450877   3.2511695 107.5880686
  74.6057849   4.6771465 107.8030729  64.9280486  -6.0149661 107.1539163
  64.3917843  -6.4658922 107.8060760  64.3397194  -5.8803752 106.4109628
  63.2229029  10.7514389 101.0483822  63.4625628  11.3832913 101.7262840
  62.3798226  10.4002429 101.3349181  74.2055738   1.8992059 106.4864083
  73.3182517   1.5617980 106.6090481  74.7754289   1.1675090 106.7232848
  55.8584885  -1.7683850  99.8107134  56.5455925  -2.0822120  99.2228149
  55.7033014  -0.8642485  99.5374385  60.6619607  -6.8793653 104.2392158
  60.5777796  -7.4867983 103.5042568  59.8402314  -6.3884635 104.2401654
  67.7356891   6.5593511 103.4525326  67.6627063   7.3648483 103.9644630
  67.2934284   6.7585477 102.6273347  67.5246671   5.7965281  96.9628147
  66.7414193   6.3386961  97.0566372  68.2239416   6.3139261  97.3622389
  70.1955575   6.4580345 105.6083484  70.9083547   7.0927810 105.5359386
  69.7045603   6.5544211 104.7923486  71.9173102   0.3631598  97.1800776
  70.9829380   0.4833060  97.0105480  72.0949770  -0.5395935  96.9160786
  65.2467488   4.2074789 106.4289055  65.9476948   4.8411271 106.5818449
  64.7762603   4.5489520 105.6684695  73.3721884   2.5492738  94.7136962
  73.6481728   2.4349333  95.6230836  72.5026383   2.1510223  94.6749135
  70.0075948   6.7979089  98.3569776  70.1898343   5.9800745  98.8197528
  70.8308934   7.0146781  97.9194666  70.3418114   5.7247274  95.6184824
  70.8705880   5.2139729  95.0054987  70.6046333   5.4089804  96.4830357
  69.0956347  -2.4960793 110.7407643  68.4196984  -2.5966664 111.4110018
  69.9183981  -2.6521579 111.2043640  60.8435206   3.7411144 103.3620158
  61.4288643   2.9954831 103.4948062  60.6460045   4.0515100 104.2456822
  63.6973862   6.7762391  98.3782600  63.0284237   7.2608519  97.8946640
  63.5586731   7.0231611  99.2925979  55.4352861  -3.6883256 102.0824601
  55.4736961  -4.2219666 102.8761719  54.9293154  -4.2148051 101.4635578
  67.8379130   8.8106134 104.9765259  68.3897438   8.9737756 105.7414344
  68.1785324   9.4010572 104.3045284  62.2895896  -6.7695583 109.2260178
  62.9167935  -7.1518506 109.8397702  61.4323815  -6.9881381 109.5915870
  72.6890004   3.6367392 110.8313913  73.2329908   4.2497350 110.3368868
  72.1076849   4.1946970 111.3480926  59.0661439  -4.9619154  95.1578532
  59.3614880  -5.8708476  95.1045586  58.1649474  -4.9831415  94.8359535
  70.9747517   6.7588110 101.9628941  70.8498657   5.9577850 101.4539886
  71.6326609   7.2534303 101.4742911  62.5955686  -6.8863158 101.1406081
  61.8742271  -6.2727190 101.0013554  63.3848941  -6.3505393 101.0622727
  73.0382426   4.5597130 103.5908491  72.0912761   4.4402481 103.5186818
  73.3865199   3.6719628 103.6734752  60.7949280  -7.2805056  95.2817858
  60.4661986  -8.1607677  95.0992964  61.1488651  -7.3357388  96.1694247
  70.0428859   4.3549846  99.7912843  69.8953822   3.4266554  99.9720413
  70.8682353   4.3769937  99.3069918  63.9091103  -6.9932087  95.6493335
  64.2487176  -6.4646165  94.9271944  64.3563224  -6.6551680  96.4251902
  73.6462981   5.1778405 100.8777716  74.5709528   4.9721266 100.7402167
  73.4778284   4.9294806 101.7867057  64.7789595  -4.8326603 101.3615705
  64.6334176  -4.5186300 102.2539987  64.3014798  -4.2141702 100.8086604
  73.4358297   5.6964072  96.2339807  73.6095175   5.1310495  95.4813660
  73.9287188   6.4964967  96.0519297  59.2535257  -2.2921258 104.3003366
  58.7088725  -1.5161450 104.4323641  60.1314607  -1.9450454 104.1422488
  74.4233470   5.0130837  93.3336706  75.1184374   5.6337530  93.5524020
  74.7656620   4.1626188  93.6089084  60.0401279  -3.1651362 107.1933523
  59.2983015  -3.0168727 107.7798153  59.7194023  -2.9043097 106.3300272
  76.3224893   2.4630542  94.8624036  76.8476217   2.8017815  94.1373356
  76.2347245   1.5277558  94.6787171  67.9844941   6.3764616 106.9913913
  68.2932068   6.1313763 107.8636613  68.7820424   6.5811255 106.5032783
  68.0065554   8.5302526  99.2219290  67.5670544   8.0378904  99.9152146
  68.7573670   7.9875493  98.9811365  60.4857893   4.7214067  99.2243918
  61.3115912   4.4217838  98.8442561  60.1351945   3.9521689  99.6733706
  65.4539426   4.0740535 101.2941591  64.8319435   3.4111240 100.9943819
  66.1244293   4.1001667 100.6115239  58.6866498   2.6400393 100.1832851
  57.8498406   2.2122567 100.0016853  58.6590143   2.8332836 101.1203642
  76.0118799   3.0963446 110.1675234  75.2214343   3.0787585 109.6279734
  75.7752153   3.6351740 110.9224271  76.1316674  -0.0544088 107.4807963
  76.1814679  -0.2194080 108.4223486  76.0230597  -0.9216829 107.0905844
  65.0152933   2.6244458  94.7700052  65.1641053   3.3079923  94.1166725
  65.8219376   2.6049548  95.2849508  77.6334871   2.3652854 107.7249984
  77.3419679   2.7282834 108.5613445  77.0207002   1.6519862 107.5463317
  78.8330553  -0.0694266 100.2452555  79.6677444   0.3695538 100.4090115
  78.9689682  -0.5455613  99.4260800  75.8822059  -2.5114531 106.1930042
  76.3576181  -2.3186885 105.3848894  74.9587624  -2.4555346 105.9473426
  62.7705566  -1.3490364  95.7761121  62.5251608  -2.2528034  95.9741331
  62.9401480  -1.3473214  94.8340599  62.0401213  -5.6162007  93.2747282
  61.3470458  -5.5417652  92.6187318  61.7952965  -6.3801663  93.7968799
  68.5148338   5.1192589  92.2411799  67.9422305   5.7382776  91.7882271
  69.0881132   5.6691950  92.7751721  71.7345598   5.4029739  93.3720382
  72.6676271   5.3375300  93.5753257  71.6468811   6.2386006  92.9134914
  74.3633615   4.7195609  90.3324329  74.2847246   4.3855473  91.2260087
  75.1843281   5.2117377  90.3315801  68.8995137  -3.5446599  89.5827852
  69.8454241  -3.6740391  89.6516270  68.5209382  -4.2831937  90.0597280
  68.7833829   0.5071147 111.0428509  69.7036839   0.6849746 111.2368555
  68.7483412  -0.4372807 110.8908208  67.0838054  -5.6196622  89.5182737
  66.1769509  -5.9163510  89.5945451  67.3614035  -5.9166804  88.6517023
  58.0015994  -4.2990259  99.9681783  57.6818779  -5.1524951  99.6756157
  57.4549422  -4.0841681 100.7239751  61.7795902  -1.5827818 103.6851290
  61.9981911  -0.6510710 103.7039324  62.1921676  -1.9419843 104.4706094
  66.6523767  -6.0094612 113.0754039  66.5520494  -5.0600255 113.0066130
  66.4345309  -6.3376373 112.2030109  57.8704254  -0.6787347 101.9374905
  57.1767726  -1.0933395 101.4244859  58.6177245  -0.6366811 101.3408324
  66.5155037  -2.5797473 111.8919100  66.0322119  -1.7797113 112.0982990
  66.6015976  -2.5689528 110.9386544  59.7840997  -0.7469094  99.8140920
  59.7611685  -0.6481406  98.8622803  60.0941633   0.0996057 100.1358086
  62.4428375   1.3107061 103.9287534  63.3971628   1.2791004 103.8617466
  62.2440898   0.8497685 104.7437760  63.0327757  -0.1191823 106.4958332
  63.8520646   0.3752256 106.5193169  63.3064564  -1.0359854 106.4675899
  60.7978603   6.8526681 100.9457732  60.6633071   6.0927082 100.3795730
  60.3810666   7.5767581 100.4786521  71.9337566   2.0363604  89.9534307
  72.6373416   2.2413607  90.5691963  71.2100215   2.6040366  90.2183391
  72.7635377  -2.2126534  96.0736578  72.7070578  -1.7557983  95.2344210
  73.3163719  -2.9735850  95.8959420  63.9547729   7.7495998 101.1576175
  63.8380113   8.6941430 101.0554865  63.1340175   7.4469559 101.5461974
  73.8424264   2.4746134  92.0032767  74.6769868   2.0427332  91.8210242
  73.6808607   2.3028147  92.9309662  73.4970156  -1.0221753  93.3689107
  73.4418960  -1.1877482  92.4277551  72.8716211  -0.3145720  93.5251296
  58.2862671  -5.7853689 107.1950529  58.9321535  -6.2954735 107.6837754
  58.0779822  -5.0485007 107.7693954  70.8116063   1.2827159 112.6942670
  71.6807223   1.4567811 112.3329304  70.3322815   2.1021576 112.5718399
  64.9802243   8.4024260 104.3732103  65.8829490   8.4347870 104.6898598
  64.7539613   7.4724711 104.3878439  66.7355845   7.1555246 101.0342182
  65.7851476   7.1557108 100.9206554  67.0388332   6.4087981 100.5178216
  82.4708539  12.9915785 102.0987944  83.1086949  12.8722532 101.3951284
  82.3529382  13.9396629 102.1575896  79.2798245  12.9443213 102.0349469
  78.9416757  12.8284278 101.1470004  80.1488013  12.5434378 102.0150475
  75.1385061  14.7978689  98.0246360  74.5749926  14.7068626  97.2562648
  75.0237456  13.9778594  98.5048852  79.7618028  14.0978065 107.9935674
  79.7506669  13.7030863 107.1216178  79.9238668  13.3644137 108.5869446
  72.6849493  16.2929881 100.8630580  73.4770785  15.9520706 100.4476880
  72.9246143  16.4024856 101.7832734  80.7184620  18.4649657  93.3360825
  80.0672599  19.0503737  92.9494839  81.5128982  18.9955852  93.3955862
  74.6440247  15.5538794  93.7347959  75.4171123  15.0067781  93.5960835
  74.9965646  16.4183043  93.9462421  76.4825289  16.8815176 106.9414858
  76.1915155  17.7860807 106.8261525  77.1182274  16.9231704 107.6558928
  77.4081496  14.2592025 103.5316218  78.0045068  14.0348047 102.8173181
  77.4656468  13.5176770 104.1341666  76.9806525  11.7131460  91.3666409
  77.2332045  11.1912982  90.6049872  76.0431084  11.5497606  91.4693093
  82.0249807  10.7167239  99.1741152  82.8112897  10.2986662  98.8231569
  82.2888512  11.6213331  99.3422801  82.1959885  16.1540089  93.8729809
  81.5605718  16.2274715  94.5850714  81.8657291  16.7433688  93.1948888
  87.4258234  10.6542472 100.0774131  88.1583406  10.0841689 100.3111960
  86.6697590  10.2664072 100.5180636  76.7002813  13.6159566  93.5690784
  76.5839071  12.9404470  94.2371868  76.8105073  13.1291940  92.7522937
  79.0434354  13.0769713  97.2737473  78.6792561  12.5500334  97.9850395
  79.9001470  12.6868182  97.1003959  84.9483655   4.3664046 104.5368739
  84.6166980   5.2359457 104.3129954  84.3529268   4.0500330 105.2162770
  78.6839841   8.1059613  92.2698822  78.8514244   8.9739849  92.6369293
  78.4937010   8.2686895  91.3460111  81.4415174  16.5676592 103.9364652
  81.1415897  17.4701631 103.8280459  81.0966234  16.3008775 104.7885805
  74.8927656  13.0190389  99.9701357  73.9678152  12.8866603 100.1779048
  75.1412069  13.7984608 100.4671299  84.8412318   9.0859132 101.6162089
  83.9329195   9.0174541 101.3220850  84.7899914   9.5631077 102.4443915
  78.6629062  10.5617270  93.2545489  78.5428687  11.0074321  94.0930969
  77.9681650  10.9102588  92.6959027  72.2536467  12.6623662 100.8045146
  72.3828848  12.9158141 101.7184557  71.5733918  13.2551370 100.4849801
  76.4235954  23.3320912  96.9035620  76.3459984  24.2828737  96.9824100
  75.8197598  22.9866785  97.5610546  78.9153184  10.5048778 109.5596987
  78.1386518  11.0642698 109.5499851  79.5543747  10.9905561 110.0811857
  86.7073965   7.2875570 103.3939963  86.0648345   7.5808104 102.7479758
  86.2028893   7.1728491 104.1993160  84.3614128  11.0338744  94.0825823
  85.2731984  11.2666130  93.9073520  83.8523775  11.6175788  93.5200901
  77.1699556  13.3134231 109.1214954  77.9114241  13.8519275 108.8449777
  76.4636542  13.9400520 109.2786506  82.6454896  15.4563372 107.7187115
  83.0538252  15.0145782 106.9741748  81.9232157  14.8815999 107.9721308
  78.9985966  10.3935978 105.0920672  79.8447161  10.8175392 105.2355321
  78.9384604   9.7369603 105.7859235  82.9683711  16.0164562 101.4739404
  82.3392573  16.1810276 100.7715472  82.5809373  16.4306172 102.2450368
  86.8472942  16.9519000  98.8283768  86.1623981  17.3317901  98.2780801
  86.9316792  17.5614327  99.5615716  82.1485411   8.0540347 106.7501846
  81.9046343   8.8082407 106.2136121  82.4245342   8.4325694 107.5849093
  84.1023874  14.5978959 105.4279111  84.3140769  15.2410719 104.7513492
  84.0553622  13.7641276 104.9601041  81.7050103   7.2096780 102.3315684
  80.8434582   7.5078033 102.6232421  81.7312538   7.4267179 101.3996716
  78.5211672  15.7538970  98.7389489  78.9850018  16.0326673  97.9494112
  78.2568471  14.8522415  98.5562580  75.4135753  15.3010452 101.6769252
  75.9837111  15.7297720 101.0386737  76.0043865  15.0193036 102.3753438
  77.4580558  11.8762123  95.5479054  78.1604602  12.3283166  96.0152981
  77.1261187  11.2345941  96.1758947  75.9060920  10.4673879 109.9230264
  75.2759581  11.1490160 110.1565661  75.7997008  10.3556961 108.9783402
  71.2005892  10.1345675 100.8496188  70.4104946  10.3903204 100.3736298
  71.6917140  10.9494013 100.9548228  85.2169702  17.4750914 103.6001469
  86.0387146  17.0731102 103.3184150  85.2132105  17.3719149 104.5517585
  73.1520638  10.4990255  97.8079665  72.3551801  10.6108949  98.3263160
  72.9246230  10.8376907  96.9420555  78.9826305  17.0234958 105.7562179
  79.0470738  17.4855365 106.5920351  78.2737229  16.3932323 105.8844489
  69.4843595  10.3876166 103.2811179  69.7351634  11.2723176 103.5468755
  70.0203144  10.2080767 102.5086271  93.3075695  13.8189663  99.9486440
  92.5539403  13.2497061  99.7930445  93.4423236  13.7852327 100.8957075
  78.6974323  18.6903065  95.6241160  78.5619998  19.5354601  96.0526007
  79.2384136  18.8922343  94.8607093  75.1841663   4.7694645 112.2855515
  74.7908608   4.2160844 112.9603159  76.0007803   5.0805224 112.6762032
  72.1503720  16.2078503  96.1969085  72.6628241  17.0021754  96.3474649
  72.8026433  15.5104794  96.1302686  73.9598605  19.3244260  98.2791838
  74.1365234  20.2462224  98.0912822  74.7555439  19.0102679  98.7086218
  78.1009624   6.1852524 109.8775771  78.8419337   6.7859677 109.7980234
  78.3327547   5.4430162 109.3193814  73.2450962  11.3708891 108.1554001
  73.1304477  10.4694149 108.4561100  72.3895479  11.6172588 107.8038818
  80.3242799  19.3126632 109.7541502  79.8806654  18.5263010 109.4362406
  80.9860013  19.5005782 109.0885392  75.0829921  20.8422433 104.2802180
  75.6337346  20.7139497 103.5079174  74.2441397  21.1417322 103.9297073
  82.4224038  19.5929432 107.7822903  82.4042513  20.4138313 107.2903172
  83.3443958  19.4683507 108.0073044  78.8797092  17.1073561 108.6246411
  79.4125428  16.3461849 108.3945719  78.3511173  16.8147213 109.3670566
  82.0466787   2.2133627 104.1540053  81.7031056   3.1035269 104.0779164
  82.4145749   2.0235285 103.2909638  70.1152637  14.5367158  96.9728655
  70.9527859  14.9464166  96.7562363  70.2930905  13.5966600  96.9428849
  82.0117069  12.2042238  92.6612488  81.4963693  12.9746843  92.9000876
  81.7394378  11.5307374  93.2845550  79.5964180   7.0491939  97.7197726
  78.7405777   6.6598789  97.5403365  80.0091132   7.1283900  96.8597512
  81.1263327   4.5838282 102.1189286  80.6228123   4.5468417 101.3057092
  81.4193934   5.4931025 102.1785943  77.3706213   4.6677012 101.1255468
  78.2359210   4.4719821 100.7661357  77.4383722   4.4387364 102.0524825
  86.9851343  14.9574593  94.5965662  86.2080786  14.6185752  94.1520824
  87.6642824  14.9627216  93.9220627  81.8003373  10.0769330  94.4872269
  81.4953508  10.3915479  95.3382412  82.7533815  10.1550750  94.5299602
  80.2449804  16.2359554  96.1365223  79.7171166  15.5012313  95.8238461
  79.7437307  17.0134230  95.8905192  85.2242650  14.4308574 101.2532270
  84.5666325  15.1207835 101.3412398  86.0283050  14.8205006 101.5966256
  74.9768532   6.8979220  98.4971835  75.5512284   6.6754401  97.7645028
  75.5639514   6.9667914  99.2500436  84.0348109  12.7852947  99.3036211
  84.5479991  13.4182939  99.8057921  84.6849333  12.1854142  98.9379571
  75.3038119   8.9283681  92.5167720  74.4675431   9.2658367  92.8376995
  75.1642889   8.7932661  91.5794857  77.2791200   3.7720469  97.2246904
  76.6255612   3.4569486  96.6003519  77.2371674   3.1496209  97.9506727
  78.3902405  14.0539764  89.1400196  77.4829466  13.8229017  89.3391345
  78.8873437  13.2577383  89.3274178  81.2970483  22.7637271  92.0596882
  80.6232182  23.0668968  92.6681840  81.6836305  23.5666351  91.7102340
  80.5128940  10.2602402 101.5494552  79.5951501  10.4817349 101.3916240
  80.9289084  10.3348713 100.6906259  81.2963988  11.6593818  96.6797232
  82.0435807  12.1715215  96.3704354  81.5655577  11.3377871  97.5401626
  79.5690638  14.1552359  93.6624186  78.6601857  13.8711392  93.7596656
  79.5985722  14.5751437  92.8027493  84.8009905  17.7658948  97.4315354
  84.3472233  16.9249858  97.4880544  84.1703872  18.4020347  97.7690134
  83.7442825   8.6950934  98.6616021  83.0065582   8.1828320  98.9926264
  83.9969599   8.2551316  97.8499298  83.2442845  19.6035445  98.3665172
  83.5365819  20.1640502  97.6477538  83.7541465  19.8964006  99.1218331
  83.8454452   1.4727186  99.2557791  84.1513329   0.6124550  98.9683706
  84.5707057   2.0644806  99.0556785  70.1378808  11.8757873  97.6439389
  69.9403208  11.2827234  96.9190455  69.5825472  11.5710083  98.3615327
  78.1175532  11.7680979  99.7633982  78.1724142  10.8154816  99.6876458
  77.3066734  11.9240418 100.2475280  79.2666726  15.6961102  91.0012265
  78.8286156  14.9796961  90.5417902  80.0077167  15.9237217  90.4397356
  76.0567892  10.3858039  97.5224361  75.2435757  10.6852210  97.9289553
  76.5526886   9.9913728  98.2398843  78.2076470  20.3815796  99.4558625
  78.1652649  20.6076642  98.5267157  79.1239169  20.1479171  99.6044426
  81.6542104  10.8499864 106.3539255  82.0091491  11.0771337 107.2133720
  82.3014235  11.1818240 105.7316510  87.3839841  13.9718299  97.0588584
  87.2457739  14.1619895  96.1309773  87.0276059  14.7337682  97.5156635
  75.5481967   7.9576395 103.1385596  76.1881346   7.8165154 102.4408559
  74.7159497   7.6710908 102.7624198  87.4109220  16.0394826 102.0699855
  87.8445727  15.9470116 102.9182909  88.1240801  16.0152327 101.4319871
  76.3242271  17.2578825  99.2520588  77.1182869  16.7629145  99.0503163
  75.6133963  16.7296688  98.8888294  81.1437115  19.6396921 103.6032956
  81.1974137  20.2087857 104.3710672  80.2751896  19.8098806 103.2386993
  72.6325034  11.4021907  95.3280341  71.7022622  11.3406362  95.5450303
  72.7282506  10.8797860  94.5316982  72.5510583   7.9276720  97.9158582
  72.8117400   8.8422053  97.8067743  73.3727755   7.4601162  98.0655195
  74.0235508   9.3414477 105.0857407  74.6958562   9.1331839 104.4370056
  73.1965295   9.1436563 104.6462639  88.2724770  16.0818527 104.6032740
  88.4660660  16.9864338 104.8492015  88.1725388  15.6225946 105.4371325
  79.9261080   5.9676418 107.1023068  79.2788996   6.6666367 107.0087544
  80.6962096   6.4012562 107.4699316  83.3339878  16.2325270 110.1773621
  83.1825385  16.0035822 109.2603705  83.3244558  17.1895871 110.1904966
  80.1025215  13.8057183 105.1619887  81.0317275  13.9568342 104.9888855
  79.6816245  13.8941203 104.3068534  78.9013547  17.8307847 102.9318425
  78.7624632  17.4626631 103.8044363  78.1128143  18.3455486 102.7602383
  79.4961699  22.9316943  94.2743962  79.6713454  22.4604987  95.0889584
  78.8094487  23.5582710  94.5025222  80.4518762  17.2089450 100.3207263
  80.1168594  17.1690220 101.2164913  79.9522707  16.5434166  99.8477673
  74.4263006  12.6157080 105.8459844  74.2882804  11.8837319 106.4471383
  75.3367929  12.5265980 105.5644032  83.3877953  14.5545484  90.5944323
  82.7707124  13.8292312  90.4977375  82.9194442  15.3154844  90.2511397
  77.0545306  12.3277039 105.3343524  77.7644925  11.6870231 105.2930142
  77.0114615  12.5789934 106.2569704  85.0432085  19.2644392 108.2550103
  84.9844631  18.5803613 107.5880686  85.4451603  20.0063382 107.8030729
  75.7674240   9.3142257 107.1539163  75.2311597   8.8632995 107.8060760
  75.1790949   9.4488166 106.4109628  74.0622784  26.0806306 101.0483822
  74.3019382  26.7124830 101.7262840  73.2191980  25.7294346 101.3349181
  75.1776499   8.7730908  89.7165627  74.3005966   8.6519709  89.3527874
  75.6534252   7.9816987  89.4644515  85.0449492  17.2283976 106.4864083
  84.1576271  16.8909898 106.6090481  85.6148043  16.4967008 106.7232848
  66.6978639  13.5608068  99.8107134  67.3849679  13.2469798  99.2228149
  66.5426768  14.4649433  99.5374385  71.5013362   8.4498265 104.2392158
  71.4171550   7.8423934 103.5042568  70.6796068   8.9407283 104.2401654
  78.5750646  21.8885429 103.4525326  78.5020817  22.6940400 103.9644630
  78.1328039  22.0877395 102.6273347  78.3640425  21.1257199  96.9628147
  77.5807947  21.6678879  97.0566372  79.0633171  21.6431178  97.3622389
  81.6737075   6.9351828  99.6062353  82.1705775   6.1821791  99.2863423
  80.9024057   6.9716145  99.0405562  89.5266833  12.6392194 101.2480644
  89.5156709  13.5216909 100.8774577  88.6584212  12.2863745 101.0535181
  81.0349329  21.7872263 105.6083484  81.7477301  22.4219728 105.5359386
  80.5439358  21.8836129 104.7923486  82.7566856  15.6923515  97.1800776
  81.8223135  15.8124978  97.0105480  82.9343525  14.7895982  96.9160786
  78.2572044   9.0769211  99.3334037  77.8869832   8.5240252 100.0214943
  78.7531137   8.4727345  98.7809037  86.1439408  11.5340835  97.7150810
  86.6099860  12.3668826  97.6411113  86.5946908  11.0685816  98.4196069
  76.0861243  19.5366706 106.4289055  76.7870702  20.1703189 106.5818449
  75.6156358  19.8781438 105.6684695  84.2115639  17.8784656  94.7136962
  84.4875483  17.7641251  95.6230836  83.3420137  17.4802141  94.6749135
  84.1156070   3.9021422 101.7541712  83.2019150   4.1325649 101.9223919
  84.5449172   3.9859866 102.6055744  83.8862529  12.0911314 104.2541606
  83.2333979  12.3387221 103.5994058  84.2642909  11.2775452 103.9204083
  80.8469703  22.1271007  98.3569776  81.0292097  21.3092663  98.8197528
  81.6702689  22.3438699  97.9194666  81.1811868  21.0539192  95.6184824
  81.7099635  20.5431647  95.0054987  81.4440088  20.7381722  96.4830357
  79.9350102  12.8331125 110.7407643  79.2590739  12.7325254 111.4110018
  80.7577736  12.6770338 111.2043640  71.6828961  19.0703061 103.3620158
  72.2682398  18.3246749 103.4948062  71.4853799  19.3807018 104.2456822
  74.5367616  22.1054309  98.3782600  73.8677991  22.5900436  97.8946640
  74.3980486  22.3523529  99.2925979  66.2746616  11.6408661 102.0824601
  66.3130715  11.1072252 102.8761719  65.7686908  11.1143867 101.4635578
  78.6772885  24.1398052 104.9765259  79.2291193  24.3029674 105.7414344
  79.0179078  24.7302490 104.3045284  73.6537378   6.4873202 105.5787143
  73.7178704   7.3488033 105.1664541  73.5904498   5.8747204 104.8459502
  73.1289650   8.5596334 109.2260178  73.7561689   8.1773412 109.8397702
  72.2717569   8.3410536 109.5915870  83.5283759  18.9659310 110.8313913
  84.0723663  19.5789268 110.3368868  82.9470604  19.5238888 111.3480926
  69.9055193  10.3672764  95.1578532  70.2008634   9.4583442  95.1045586
  69.0043229  10.3460503  94.8359535  81.8141272  22.0880028 101.9628941
  81.6892411  21.2869768 101.4539886  82.4720363  22.5826221 101.4742911
  73.4349440   8.4428760 101.1406081  72.7136026   9.0564728 101.0013554
  74.2242696   8.9786525 101.0622727  83.8776180  19.8889048 103.5908491
  82.9306516  19.7694399 103.5186818  84.2258953  19.0011546 103.6734752
  76.2375754   5.7783187 107.4146733  76.7610156   6.0245483 108.1773042
  76.0188087   6.6103221 106.9949870  71.6343035   8.0486861  95.2817858
  71.3055741   7.1684240  95.0992964  71.9882405   7.9934530  96.1694247
  80.8822614  19.6841764  99.7912843  80.7347576  18.7558471  99.9720413
  81.7076107  19.7061855  99.3069918  74.7484858   8.3359831  95.6493335
  75.0880930   8.8645752  94.9271944  75.1956978   8.6740237  96.4251902
  84.4856735  20.5070323 100.8777716  85.4103283  20.3013184 100.7402167
  84.3172039  20.2586724 101.7867057  77.4428299   6.7196882 105.0996403
  77.1025119   5.9204695 105.5017083  76.7367305   7.0198593 104.5273237
  78.0944771   3.8046194 103.5523726  78.9170840   3.3306672 103.4302617
  78.3382834   4.5836678 104.0522413  76.7353005   6.8334453  93.8486628
  77.4561368   7.2115705  93.3450345  76.1118309   7.5523329  93.9521606
  80.8784128   7.5379602  94.7844960  81.0947742   8.4204239  94.4833789
  80.3978195   7.1465815  94.0550602  75.6183349  10.4965315 101.3615705
  75.4727930  10.8105618 102.2539987  75.1408553  11.1150215 100.8086604
  77.4779732   7.4867863 101.4096595  77.4641301   6.5908956 101.0728893
  78.1952160   7.4938527 102.0434881  79.3305863   7.9205203 103.4549722
  79.0723641   8.8422274 103.4534052  78.7990903   7.5235638 104.1450186
  84.2752052  21.0255990  96.2339807  84.4488929  20.4602413  95.4813660
  84.7680943  21.8256885  96.0519297  70.0929011  13.0370659 104.3003366
  69.5482480  13.8130467 104.4323641  70.9708361  13.3841464 104.1422488
  76.8816628   6.3682243  96.6784165  77.0032539   5.4398889  96.8775052
  76.5918670   6.3820929  95.7662480  79.7507819   4.0537154  99.8150885
  79.7729515   4.1176487  98.8602864  80.1675878   3.2141662 100.0091391
  90.1291443  13.7892413  97.8530107  90.5722589  13.0399738  97.4549230
  89.2517953  13.7802549  97.4703839  85.2627224  20.3422755  93.3336706
  85.9578129  20.9629447  93.5524020  85.6050374  19.4918106  93.6089084
  70.8795033  12.1640556 107.1933523  70.1376769  12.3123191 107.7798153
  70.5587778  12.4248821 106.3300272  87.1618647  17.7922460  94.8624036
  87.6869971  18.1309733  94.1373356  87.0741000  16.8569475  94.6787171
  78.8238696  21.7056534 106.9913913  79.1325822  21.4605681 107.8636613
  79.6214178  21.9103172 106.5032783  78.8459308  23.8594443  99.2219290
  78.4064298  23.3670822  99.9152146  79.5967425  23.3167411  98.9811365
  71.3251647  20.0505984  99.2243918  72.1509667  19.7509756  98.8442561
  70.9745699  19.2813607  99.6733706  76.2933180  19.4032452 101.2941591
  75.6713189  18.7403157 100.9943819  76.9638047  19.4293584 100.6115239
  69.5260252  17.9692311 100.1832851  68.6892160  17.5414485 100.0016853
  69.4983897  18.1624754 101.1203642  76.3657708   7.8814240 110.8874097
  76.4145863   8.7576363 110.5051867  76.9080222   7.3391634 110.3145741
  86.8512553  18.4255364 110.1675234  86.0608097  18.4079503 109.6279734
  86.6145908  18.9643657 110.9224271  86.9710428  15.2747830 107.4807963
  87.0208433  15.1097838 108.4223486  86.8624352  14.4075089 107.0905844
  75.8546687  17.9536376  94.7700052  76.0034807  18.6371840  94.1166725
  76.6613131  17.9341466  95.2849508  84.2614191  11.2578758 108.7967270
  85.1624054  11.1185223 108.5051267  84.3362165  11.4233213 109.7365447
  78.5956996   8.6345613 107.6420456  77.7260306   8.9279179 107.3703045
  78.8316476   9.2186058 108.3627720  88.4728625  17.6944772 107.7249984
  88.1813434  18.0574752 108.5613445  87.8600757  16.9811780 107.5463317
  89.6724308  15.2597651 100.2452555  90.5071199  15.6987455 100.4090115
  89.8083436  14.7836305  99.4260800  86.7215813  12.8177386 106.1930042
  87.1969935  13.0105033 105.3848894  85.7981379  12.8736572 105.9473426
  73.6099320  13.9801553  95.7761121  73.3645362  13.0763883  95.9741331
  73.7795235  13.9818704  94.8340599  81.2996030   4.8525230 105.1585876
  81.8177974   5.5886257 104.8332365  80.9451163   5.1589223 105.9932635
  72.8794968   9.7129911  93.2747282  72.1864213   9.7874266  92.6187318
  72.6346720   8.9490255  93.7968799  81.5508624   1.2725512 100.6786773
  81.8310378   0.6048701 101.3047199  82.3359231   1.4654608 100.1661437
  79.3542093  20.4484506  92.2411799  78.7816060  21.0674693  91.7882271
  79.9274886  20.9983868  92.7751721  85.4217482   9.6943146 104.4258348
  86.3734905   9.7941244 104.4470572  85.2520933   8.9021415 104.9356432
  83.4431862   6.7798730 104.6117749  82.8481794   7.0603742 103.9164238
  83.1581559   7.2692630 105.3834490  82.5739352  20.7321656  93.3720382
  83.5070026  20.6667218  93.5753257  82.4862565  21.5677923  92.9134914
  85.2027369  20.0487527  90.3324329  85.1241001  19.7147390  91.2260087
  86.0237036  20.5409295  90.3315801  87.9005560  12.9149266 103.5400648
  87.8681880  11.9765267 103.7260332  88.5106184  12.9933303 102.8066473
  79.7388891  11.7845319  89.5827852  80.6847996  11.6551527  89.6516270
  79.3603136  11.0459981  90.0597280  88.0500049   9.7060309 103.5858931
  87.5339097   8.9218766 103.3988860  88.9339997   9.3779026 103.7505450
  85.7110776   3.4501325  99.5454744  85.5135597   3.1416413 100.4298076
  86.3210481   4.1762964  99.6752673  93.7182110  13.9765273 102.6806685
  94.4485499  13.7150561 103.2414388  93.1089056  13.2393995 102.7208752
  91.7997407  12.1173135 103.2781136  91.0730571  11.9829100 102.6697627
  91.3844694  12.4249964 104.0837854  79.6227584  15.8363065 111.0428509
  80.5430593  16.0141664 111.2368555  79.5877167  14.8919110 110.8908208
  77.9231808   9.7095295  89.5182737  77.0163264   9.4128408  89.5945451
  78.2007789   9.4125113  88.6517023  68.8409749  11.0301659  99.9681783
  68.5212533  10.1766967  99.6756157  68.2943177  11.2450237 100.7239751
  72.6189656  13.7464100 103.6851290  72.8375666  14.6781208 103.7039324
  73.0315430  13.3872074 104.4706094  79.5393874   4.2532185  95.6726978
  78.7294602   3.9079270  96.0482224  80.2278291   3.9439729  96.2614590
  81.4684422   3.3310232  97.2951275  82.0215461   3.7505685  97.9541298
  81.7054509   2.4045980  97.3374231  77.4917522   9.3197306 113.0754039
  77.3914248  10.2691663 113.0066130  77.2739064   8.9915544 112.2030109
  76.6930593   6.5682231  89.6594716  77.5549757   6.8937129  89.9190534
  76.8780937   5.7813727  89.1467782  68.7098009  14.6504570 101.9374905
  68.0161480  14.2358523 101.4244859  69.4571000  14.6925107 101.3408324
  84.8463229   5.4410757  96.8029939  84.2661898   6.0995561  96.4207992
  84.5799162   4.6188102  96.3917357  83.2966796   4.8415815  99.0051260
  83.7966574   4.9532349  98.1965578  83.9402404   4.5376868  99.6452068
  77.3548792  12.7494444 111.8919100  76.8715873  13.5494805 112.0982990
  77.4409731  12.7602389 110.9386544  70.6234751  14.5822824  99.8140920
  70.6005439  14.6810511  98.8622803  70.9335388  15.4287975 100.1358086
  73.2822129  16.6398979 103.9287534  74.2365383  16.6082921 103.8617466
  73.0834653  16.1789603 104.7437760  73.8721511  15.2100095 106.4958332
  74.6914400  15.7044174 106.5193169  74.1458319  14.2932063 106.4675899
  83.6288107   7.6010847  95.8586287  82.7413962   7.8860498  95.6406482
  84.0442096   7.4404611  95.0113564  86.9802644   7.6257368  99.5740627
  87.7563034   8.1153821  99.8465244  86.2550778   8.0515423 100.0312496
  89.4175202   8.3384988 100.6314567  90.0119693   8.0980724  99.9207876
  89.4901786   7.6192118 101.2588104  71.6372358  22.1818599 100.9457732
  71.5026826  21.4218999 100.3795730  71.2204420  22.9059498 100.4786521
  82.7731321  17.3655522  89.9534307  83.4767171  17.5705525  90.5691963
  82.0493970  17.9332284  90.2183391  83.6029131  13.1165383  96.0736578
  83.5464333  13.5733935  95.2344210  84.1557474  12.3556068  95.8959420
  87.4133937   8.9055115  96.8986697  87.1570871   8.5051751  97.7294905
  86.7886805   9.6198909  96.7736836  91.7246275  11.6451188  99.4057988
  91.1645833  11.7144378 100.1789551  91.1189778  11.4692173  98.6857485
  74.7941484  23.0787916 101.1576175  74.6773868  24.0233348 101.0554865
  73.9733930  22.7761477 101.5461974  84.6818018  17.8038051  92.0032767
  85.5163622  17.3719250  91.8210242  84.5202361  17.6320065  92.9309662
  84.3363910  14.3070165  93.3689107  84.2812714  14.1414436  92.4277551
  83.7109966  15.0146198  93.5251296  69.1256425   9.5438229 107.1950529
  69.7715289   9.0337183 107.6837754  68.9173577  10.2806911 107.7693954
  81.6509818  16.6119076 112.6942670  82.5200977  16.7859729 112.3329304
  81.1716569  17.4313493 112.5718399  77.6460036   3.8078274  92.9474425
  77.6338706   4.7520114  93.1042696  78.5383458   3.6248419  92.6533886
  75.8195998  23.7316177 104.3732103  76.7223245  23.7639788 104.6898598
  75.5933368  22.8016628 104.3878439  77.5749600  22.4847164 101.0342182
  76.6245231  22.4849026 100.9206554  77.8782086  21.7379899 100.5178216
  81.4612155   0.4021050  97.2020362  80.6944551  -0.1520463  97.3477044
  81.8722860   0.4742919  98.0634514  73.4653916   6.6905846 111.2925543
  74.3285378   6.3342651 111.5028868  72.8919327   6.3519741 111.9800947
  93.3102293  28.3207702 102.0987944  93.9480703  28.2014450 101.3951284
  93.1923136  29.2688546 102.1575896  90.1192000  28.2735131 102.0349469
  89.7810511  28.1576195 101.1470004  90.9881768  27.8726296 102.0150475
  85.9778815  30.1270607  98.0246360  85.4143680  30.0360544  97.2562648
  85.8631210  29.3070511  98.5048852  90.6011783  29.4269982 107.9935674
  90.5900423  29.0322781 107.1216178  90.7632422  28.6936055 108.5869446
  83.5243247  31.6221799 100.8630580  84.3164539  31.2812623 100.4476880
  83.7639897  31.7316774 101.7832734  91.5578374  33.7941575  93.3360825
  90.9066354  34.3795655  92.9494839  92.3522737  34.3247770  93.3955862
  85.4834001  30.8830712  93.7347959  86.2564877  30.3359699  93.5960835
  85.8359400  31.7474961  93.9462421  87.3219044  32.2107094 106.9414858
  87.0308910  33.1152725 106.8261525  87.9576028  32.2523622 107.6558928
  88.2475251  29.5883943 103.5316218  88.8438823  29.3639965 102.8173181
  88.3050222  28.8468688 104.1341666  87.8200279  27.0423378  91.3666409
  88.0725800  26.5204899  90.6049872  86.8824838  26.8789523  91.4693093
  92.8643562  26.0459156  99.1741152  93.6506651  25.6278579  98.8231569
  93.1282266  26.9505248  99.3422801  93.0353639  31.4832007  93.8729809
  92.3999472  31.5566633  94.5850714  92.7051046  32.0725605  93.1948888
  98.2651989  25.9834389 100.0774131  98.9977161  25.4133606 100.3111960
  97.5091345  25.5955990 100.5180636  87.5396568  28.9451484  93.5690784
  87.4232826  28.2696387  94.2371868  87.6498828  28.4583858  92.7522937
  89.8828109  28.4061631  97.2737473  89.5186316  27.8792252  97.9850395
  90.7395225  28.0160100  97.1003959  95.7877409  19.6955964 104.5368739
  95.4560734  20.5651375 104.3129954  95.1923023  19.3792248 105.2162770
  89.5233596  23.4351531  92.2698822  89.6907998  24.3031767  92.6369293
  89.3330765  23.5978812  91.3460111  92.2808929  31.8968510 103.9364652
  91.9809652  32.7993548 103.8280459  91.9359988  31.6300693 104.7885805
  85.7321410  28.3482306  99.9701357  84.8071907  28.2158521 100.1779048
  85.9805824  29.1276526 100.4671299  95.6806073  24.4151050 101.6162089
  94.7722950  24.3466458 101.3220850  95.6293668  24.8922995 102.4443915
  89.5022817  25.8909188  93.2545489  89.3822442  26.3366239  94.0930969
  88.8075405  26.2394506  92.6959027  83.0930221  27.9915580 100.8045146
  83.2222603  28.2450059 101.7184557  82.4127673  28.5843288 100.4849801
  87.2629709  38.6612830  96.9035620  87.1853738  39.6120655  96.9824100
  86.6591352  38.3158702  97.5610546  89.7546938  25.8340695 109.5596987
  88.9780272  26.3934615 109.5499851  90.3937501  26.3197478 110.0811857
  97.5467719  22.6167488 103.3939963  96.9042099  22.9100021 102.7479758
  97.0422648  22.5020409 104.1993160  95.2007883  26.3630661  94.0825823
  96.1125739  26.5958048  93.9073520  94.6917530  26.9467706  93.5200901
  88.0093311  28.6426149 109.1214954  88.7507995  29.1811193 108.8449777
  87.3030296  29.2692437 109.2786506  93.4848650  30.7855289 107.7187115
  93.8932006  30.3437700 106.9741748  92.7625912  30.2107917 107.9721308
  89.8379720  25.7227896 105.0920672  90.6840916  26.1467310 105.2355321
  89.7778358  25.0661520 105.7859235  93.8077465  31.3456480 101.4739404
  93.1786327  31.5102194 100.7715472  93.4203127  31.7598089 102.2450368
  97.6866697  32.2810918  98.8283768  97.0017735  32.6609819  98.2780801
  97.7710546  32.8906244  99.5615716  92.9879166  23.3832264 106.7501846
  92.7440098  24.1374325 106.2136121  93.2639096  23.7617612 107.5849093
  94.9417629  29.9270877 105.4279111  95.1534524  30.5702637 104.7513492
  94.8947377  29.0933193 104.9601041  92.5443857  22.5388697 102.3315684
  91.6828337  22.8369951 102.6232421  92.5706292  22.7559096 101.3996716
  89.3605427  31.0830888  98.7389489  89.8243772  31.3618591  97.9494112
  89.0962225  30.1814332  98.5562580  86.2529508  30.6302369 101.6769252
  86.8230865  31.0589638 101.0386737  86.8437620  30.3484954 102.3753438
  88.2974313  27.2054040  95.5479054  88.9998356  27.6575084  96.0152981
  87.9654941  26.5637859  96.1758947  86.7454674  25.7965797 109.9230264
  86.1153335  26.4782078 110.1565661  86.6390762  25.6848878 108.9783402
  82.0399647  25.4637593 100.8496188  81.2498701  25.7195121 100.3736298
  82.5310894  26.2785931 100.9548228  96.0563456  32.8042832 103.6001469
  96.8780900  32.4023019 103.3184150  96.0525859  32.7011066 104.5517585
  83.9914392  25.8282172  97.8079665  83.1945556  25.9400866  98.3263160
  83.7639984  26.1668824  96.9420555  89.8220060  32.3526875 105.7562179
  89.8864492  32.8147283 106.5920351  89.1130984  31.7224240 105.8844489
  80.3237350  25.7168083 103.2811179  80.5745388  26.6015093 103.5468755
  80.8596898  25.5372685 102.5086271 104.1469450  29.1481581  99.9486440
 103.3933158  28.5788979  99.7930445 104.2816991  29.1144245 100.8957075
  89.5368078  34.0194983  95.6241160  89.4013752  34.8646519  96.0526007
  90.0777890  34.2214261  94.8607093  86.0235417  20.0986563 112.2855515
  85.6302363  19.5452761 112.9603159  86.8401558  20.4097141 112.6762032
  82.9897475  31.5370421  96.1969085  83.5021996  32.3313671  96.3474649
  83.6420188  30.8396711  96.1302686  84.7992360  34.6536177  98.2791838
  84.9758988  35.5754142  98.0912822  85.5949193  34.3394596  98.7086218
  88.9403378  21.5144442 109.8775771  89.6813092  22.1151595 109.7980234
  89.1721301  20.7722080 109.3193814  84.0844716  26.7000809 108.1554001
  83.9698231  25.7986066 108.4561100  83.2289234  26.9464506 107.8038818
  91.1636554  34.6418549 109.7541502  90.7200408  33.8554928 109.4362406
  91.8253768  34.8297700 109.0885392  85.9223675  36.1714351 104.2802180
  86.4731100  36.0431414 103.5079174  85.0835151  36.4709240 103.9297073
  93.2617792  34.9221349 107.7822903  93.2436267  35.7430230 107.2903172
  94.1837712  34.7975425 108.0073044  89.7190846  32.4365479 108.6246411
  90.2519183  31.6753767 108.3945719  89.1904927  32.1439131 109.3670566
  92.8860541  17.5425545 104.1540053  92.5424811  18.4327186 104.0779164
  93.2539504  17.3527202 103.2909638  80.9546392  29.8659075  96.9728655
  81.7921614  30.2756084  96.7562363  81.1324659  28.9258517  96.9428849
  92.8510824  27.5334156  92.6612488  92.3357447  28.3038761  92.9000876
  92.5788132  26.8599292  93.2845550  90.4357935  22.3783857  97.7197726
  89.5799531  21.9890707  97.5403365  90.8484887  22.4575817  96.8597512
  91.9657082  19.9130200 102.1189286  91.4621877  19.8760335 101.3057092
  92.2587688  20.8222943 102.1785943  88.2099967  19.9968930 101.1255468
  89.0752964  19.8011738 100.7661357  88.2777476  19.7679281 102.0524825
  97.8245098  30.2866511  94.5965662  97.0474541  29.9477670  94.1520824
  98.5036579  30.2919134  93.9220627  92.6397127  25.4061248  94.4872269
  92.3347263  25.7207397  95.3382412  93.5927569  25.4842668  94.5299602
  91.0843559  31.5651471  96.1365223  90.5564920  30.8304231  95.8238461
  90.5831062  32.3426148  95.8905192  96.0636405  29.7600492 101.2532270
  95.4060079  30.4499753 101.3412398  96.8676804  30.1496924 101.5966256
  85.8162286  22.2271138  98.4971835  86.3906038  22.0046319  97.7645028
  86.4033269  22.2959832  99.2500436  94.8741864  28.1144864  99.3036211
  95.3873745  28.7474856  99.8057921  95.5243088  27.5146060  98.9379571
  86.1431874  24.2575599  92.5167720  85.3069186  24.5950285  92.8376995
  86.0036643  24.1224578  91.5794857  88.1184954  19.1012386  97.2246904
  87.4649367  18.7861404  96.6003519  88.0765428  18.4788127  97.9506727
  89.2296159  29.3831682  89.1400196  88.3223221  29.1520935  89.3391345
  89.7267191  28.5869301  89.3274178  92.1364238  38.0929189  92.0596882
  91.4625937  38.3960885  92.6681840  92.5230060  38.8958269  91.7102340
  91.3522695  25.5894320 101.5494552  90.4345256  25.8109267 101.3916240
  91.7682838  25.6640630 100.6906259  92.1357742  26.9885736  96.6797232
  92.8829561  27.5007133  96.3704354  92.4049332  26.6669788  97.5401626
  90.4084392  29.4844276  93.6624186  89.4995612  29.2003309  93.7596656
  90.4379476  29.9043355  92.8027493  95.6403660  33.0950866  97.4315354
  95.1865987  32.2541776  97.4880544  95.0097627  33.7312264  97.7690134
  94.5836579  24.0242852  98.6616021  93.8459336  23.5120238  98.9926264
  94.8363353  23.5843234  97.8499298  94.0836599  34.9327363  98.3665172
  94.3759574  35.4932420  97.6477538  94.5935220  35.2255924  99.1218331
  94.6848207  16.8019104  99.2557791  94.9907084  15.9416467  98.9683706
  95.4100812  17.3936724  99.0556785  80.9772563  27.2049791  97.6439389
  80.7796963  26.6119151  96.9190455  80.4219227  26.9002001  98.3615327
  88.9569287  27.0972897  99.7633982  89.0117896  26.1446733  99.6876458
  88.1460489  27.2532336 100.2475280  90.1060480  31.0253020  91.0012265
  89.6679910  30.3088879  90.5417902  90.8470921  31.2529135  90.4397356
  86.8961646  25.7149957  97.5224361  86.0829512  26.0144127  97.9289553
  87.3920641  25.3205646  98.2398843  89.0470224  35.7107714  99.4558625
  89.0046403  35.9368560  98.5267157  89.9632923  35.4771088  99.6044426
  92.4935858  26.1791781 106.3539255  92.8485246  26.4063254 107.2133720
  93.1407989  26.5110158 105.7316510  98.2233595  29.3010217  97.0588584
  98.0851494  29.4911813  96.1309773  97.8669814  30.0629600  97.5156635
  86.3875721  23.2868312 103.1385596  87.0275101  23.1457071 102.4408559
  85.5553252  23.0002826 102.7624198  98.2502975  31.3686744 102.0699855
  98.6839481  31.2762033 102.9182909  98.9634555  31.3444245 101.4319871
  87.1636025  32.5870743  99.2520588  87.9576624  32.0921063  99.0503163
  86.4527717  32.0588606  98.8888294  91.9830870  34.9688838 103.6032956
  92.0367892  35.5379775 104.3710672  91.1145651  35.1390723 103.2386993
  83.4718789  26.7313824  95.3280341  82.5416377  26.6698280  95.5450303
  83.5676261  26.2089777  94.5316982  83.3904338  23.2568637  97.9158582
  83.6511155  24.1713971  97.8067743  84.2121510  22.7893080  98.0655195
  84.8629263  24.6706394 105.0857407  85.5352316  24.4623757 104.4370056
  84.0359049  24.4728480 104.6462639  99.1118524  31.4110445 104.6032740
  99.3054414  32.3156255 104.8492015  99.0119142  30.9517864 105.4371325
  90.7654835  21.2968335 107.1023068  90.1182750  21.9958285 107.0087544
  91.5355850  21.7304479 107.4699316  94.1733633  31.5617188 110.1773621
  94.0219139  31.3327739 109.2603705  94.1638312  32.5187789 110.1904966
  90.9418969  29.1349100 105.1619887  91.8711029  29.2860260 104.9888855
  90.5209999  29.2233121 104.3068534  89.7407301  33.1599765 102.9318425
  89.6018387  32.7918549 103.8044363  88.9521897  33.6747404 102.7602383
  90.3355453  38.2608861  94.2743962  90.5107209  37.7896904  95.0889584
  89.6488241  38.8874627  94.5025222  91.2912516  32.5381367 100.3207263
  90.9562349  32.4982137 101.2164913  90.7916462  31.8726083  99.8477673
  85.2656760  27.9448997 105.8459844  85.1276558  27.2129236 106.4471383
  86.1761684  27.8557898 105.5644032  94.2271708  29.8837402  90.5944323
  93.6100879  29.1584230  90.4977375  93.7588196  30.6446762  90.2511397
  87.8939061  27.6568957 105.3343524  88.6038679  27.0162149 105.2930142
  87.8508369  27.9081852 106.2569704  95.8825840  34.5936310 108.2550103
  95.8238386  33.9095530 107.5880686  96.2845358  35.3355300 107.8030729
  86.6067995  24.6434175 107.1539163  86.0705352  24.1924913 107.8060760
  86.0184703  24.7780083 106.4109628  84.9016538  41.4098224 101.0483822
  85.1413137  42.0416748 101.7262840  84.0585735  41.0586264 101.3349181
  86.0170254  24.1022826  89.7165627  85.1399720  23.9811627  89.3527874
  86.4928007  23.3108904  89.4644515  95.8843247  32.5575894 106.4864083
  94.9970026  32.2201816 106.6090481  96.4541798  31.8258925 106.7232848
  77.5372394  28.8899986  99.8107134  78.2243434  28.5761716  99.2228149
  77.3820523  29.7941350  99.5374385  82.3407116  23.7790182 104.2392158
  82.2565305  23.1715852 103.5042568  81.5189822  24.2699201 104.2401654
  89.4144400  37.2177346 103.4525326  89.3414572  38.0232318 103.9644630
  88.9721793  37.4169312 102.6273347  89.2034180  36.4549116  96.9628147
  88.4201702  36.9970797  97.0566372  89.9026925  36.9723096  97.3622389
  92.5130830  22.2643746  99.6062353  93.0099530  21.5113708  99.2863423
  91.7417811  22.3008063  99.0405562 100.3660587  27.9684111 101.2480644
 100.3550464  28.8508827 100.8774577  99.4977967  27.6155662 101.0535181
  91.8743084  37.1164180 105.6083484  92.5871056  37.7511645 105.5359386
  91.3833112  37.2128046 104.7923486  93.5960611  31.0215433  97.1800776
  92.6616889  31.1416896  97.0105480  93.7737279  30.1187900  96.9160786
  89.0965799  24.4061129  99.3334037  88.7263586  23.8532169 100.0214943
  89.5924891  23.8019262  98.7809037  96.9833162  26.8632752  97.7150810
  97.4493614  27.6960744  97.6411113  97.4340663  26.3977734  98.4196069
  86.9254997  34.8658624 106.4289055  87.6264457  35.4995107 106.5818449
  86.4550112  35.2073355 105.6684695  95.0509393  33.2076574  94.7136962
  95.3269237  33.0933168  95.6230836  94.1813892  32.8094059  94.6749135
  94.9549825  19.2313339 101.7541712  94.0412905  19.4617566 101.9223919
  95.3842926  19.3151783 102.6055744  94.7256283  27.4203231 104.2541606
  94.0727733  27.6679139 103.5994058  95.1036663  26.6067370 103.9204083
  91.6863457  37.4562924  98.3569776  91.8685852  36.6384580  98.8197528
  92.5096443  37.6730617  97.9194666  92.0205623  36.3831110  95.6184824
  92.5493389  35.8723564  95.0054987  92.2833842  36.0673640  96.4830357
  90.7743856  28.1623042 110.7407643  90.0984493  28.0617172 111.4110018
  91.5971490  28.0062256 111.2043640  82.5222715  34.3994979 103.3620158
  83.1076152  33.6538667 103.4948062  82.3247554  34.7098936 104.2456822
  85.3761371  37.4346226  98.3782600  84.7071746  37.9192354  97.8946640
  85.2374240  37.6815447  99.2925979  77.1140370  26.9700579 102.0824601
  77.1524470  26.4364170 102.8761719  76.6080663  26.4435785 101.4635578
  89.5166639  39.4689970 104.9765259  90.0684947  39.6321591 105.7414344
  89.8572833  40.0594408 104.3045284  84.4931132  21.8165120 105.5787143
  84.5572459  22.6779951 105.1664541  84.4298253  21.2039121 104.8459502
  83.9683405  23.8888252 109.2260178  84.5955444  23.5065329 109.8397702
  83.1111324  23.6702454 109.5915870  94.3677513  34.2951227 110.8313913
  94.9117417  34.9081186 110.3368868  93.7864358  34.8530806 111.3480926
  80.7448948  25.6964681  95.1578532  81.0402389  24.7875360  95.1045586
  79.8436983  25.6752421  94.8359535  92.6535026  37.4171945 101.9628941
  92.5286166  36.6161685 101.4539886  93.3114118  37.9118139 101.4742911
  84.2743195  23.7720678 101.1406081  83.5529780  24.3856646 101.0013554
  85.0636450  24.3078443 101.0622727  94.7169935  35.2180965 103.5908491
  93.7700270  35.0986317 103.5186818  95.0652708  34.3303463 103.6734752
  87.0769508  21.1075104 107.4146733  87.6003910  21.3537401 108.1773042
  86.8581841  21.9395139 106.9949870  82.4736789  23.3778779  95.2817858
  82.1449495  22.4976158  95.0992964  82.8276160  23.3226448  96.1694247
  91.7216368  35.0133682  99.7912843  91.5741331  34.0850389  99.9720413
  92.5469862  35.0353772  99.3069918  85.5878612  23.6651749  95.6493335
  85.9274685  24.1937670  94.9271944  86.0350733  24.0032155  96.4251902
  95.3250490  35.8362240 100.8777716  96.2497037  35.6305102 100.7402167
  95.1565793  35.5878642 101.7867057  88.2822053  22.0488799 105.0996403
  87.9418874  21.2496613 105.5017083  87.5761059  22.3490510 104.5273237
  88.9338525  19.1338112 103.5523726  89.7564594  18.6598590 103.4302617
  89.1776589  19.9128596 104.0522413  87.5746760  22.1626370  93.8486628
  88.2955122  22.5407623  93.3450345  86.9512064  22.8815247  93.9521606
  91.7177882  22.8671519  94.7844960  91.9341497  23.7496157  94.4833789
  91.2371950  22.4757733  94.0550602  86.4577104  25.8257233 101.3615705
  86.3121685  26.1397536 102.2539987  85.9802307  26.4442133 100.8086604
  88.3173487  22.8159781 101.4096595  88.3035055  21.9200874 101.0728893
  89.0345915  22.8230444 102.0434881  90.1699617  23.2497121 103.4549722
  89.9117395  24.1714191 103.4534052  89.6384658  22.8527555 104.1450186
  95.1145806  36.3547908  96.2339807  95.2882684  35.7894330  95.4813660
  95.6074697  37.1548803  96.0519297  80.9322766  28.3662577 104.3003366
  80.3876234  29.1422385 104.4323641  81.8102116  28.7133381 104.1422488
  87.7210383  21.6974161  96.6784165  87.8426294  20.7690807  96.8775052
  87.4312425  21.7112847  95.7662480  90.5901573  19.3829071  99.8150885
  90.6123270  19.4468404  98.8602864  91.0069632  18.5433580 100.0091391
 100.9685197  29.1184331  97.8530107 101.4116343  28.3691656  97.4549230
 100.0911708  29.1094467  97.4703839  96.1020979  35.6714672  93.3336706
  96.7971883  36.2921365  93.5524020  96.4444129  34.8210023  93.6089084
  81.7188788  27.4932473 107.1933523  80.9770524  27.6415109 107.7798153
  81.3981532  27.7540739 106.3300272  98.0012402  33.1214378  94.8624036
  98.5263726  33.4601651  94.1373356  97.9134754  32.1861393  94.6787171
  89.6632450  37.0348451 106.9913913  89.9719577  36.7897598 107.8636613
  90.4607932  37.2395090 106.5032783  89.6853063  39.1886361  99.2219290
  89.2458053  38.6962740  99.9152146  90.4361179  38.6459329  98.9811365
  82.1645401  35.3797902  99.2243918  82.9903421  35.0801674  98.8442561
  81.8139453  34.6105524  99.6733706  87.1326935  34.7324370 101.2941591
  86.5106944  34.0695075 100.9943819  87.8031802  34.7585502 100.6115239
  80.3654007  33.2984228 100.1832851  79.5285915  32.8706403 100.0016853
  80.3377652  33.4916672 101.1203642  87.2051462  23.2106158 110.8874097
  87.2539618  24.0868281 110.5051867  87.7473976  22.6683551 110.3145741
  97.6906308  33.7547281 110.1675234  96.9001852  33.7371420 109.6279734
  97.4539662  34.2935575 110.9224271  97.8104183  30.6039748 107.4807963
  97.8602188  30.4389755 108.4223486  97.7018106  29.7367007 107.0905844
  86.6940442  33.2828293  94.7700052  86.8428562  33.9663758  94.1166725
  87.5006885  33.2633384  95.2849508  95.1007945  26.5870676 108.7967270
  96.0017808  26.4477141 108.5051267  95.1755920  26.7525131 109.7365447
  89.4350751  23.9637531 107.6420456  88.5654060  24.2571097 107.3703045
  89.6710231  24.5477976 108.3627720  99.3122380  33.0236689 107.7249984
  99.0207188  33.3866670 108.5613445  98.6994511  32.3103698 107.5463317
 100.5118062  30.5889569 100.2452555 101.3464953  31.0279373 100.4090115
 100.6477191  30.1128222  99.4260800  97.5609568  28.1469304 106.1930042
  98.0363690  28.3396950 105.3848894  96.6375133  28.2028490 105.9473426
  84.4493075  29.3093471  95.7761121  84.2039116  28.4055801  95.9741331
  84.6188989  29.3110622  94.8340599  92.1389784  20.1817147 105.1585876
  92.6571728  20.9178174 104.8332365  91.7844917  20.4881141 105.9932635
  83.7188722  25.0421829  93.2747282  83.0257967  25.1166184  92.6187318
  83.4740474  24.2782172  93.7968799  92.3902379  16.6017430 100.6786773
  92.6704132  15.9340619 101.3047199  93.1752986  16.7946526 100.1661437
  90.1935847  35.7776424  92.2411799  89.6209814  36.3966611  91.7882271
  90.7668641  36.3275786  92.7751721  96.2611237  25.0235064 104.4258348
  97.2128660  25.1233162 104.4470572  96.0914687  24.2313333 104.9356432
  94.2825616  22.1090647 104.6117749  93.6875549  22.3895660 103.9164238
  93.9975313  22.5984548 105.3834490  93.4133107  36.0613574  93.3720382
  94.3463780  35.9959136  93.5753257  93.3256320  36.8969841  92.9134914
  96.0421124  35.3779444  90.3324329  95.9634755  35.0439308  91.2260087
  96.8630790  35.8701212  90.3315801  98.7399315  28.2441184 103.5400648
  98.7075635  27.3057184 103.7260332  99.3499938  28.3225220 102.8066473
  90.5782646  27.1137237  89.5827852  91.5241750  26.9843445  89.6516270
  90.1996891  26.3751899  90.0597280  98.8893803  25.0352227 103.5858931
  98.3732852  24.2510684 103.3988860  99.7733752  24.7070944 103.7505450
  96.5504530  18.7793243  99.5454744  96.3529351  18.4708331 100.4298076
  97.1604236  19.5054882  99.6752673 104.5575865  29.3057191 102.6806685
 105.2879253  29.0442479 103.2414388 103.9482810  28.5685912 102.7208752
 102.6391162  27.4465053 103.2781136 101.9124325  27.3121018 102.6697627
 102.2238449  27.7541882 104.0837854  90.4621338  31.1654983 111.0428509
  91.3824348  31.3433582 111.2368555  90.4270921  30.2211028 110.8908208
  88.7625563  25.0387213  89.5182737  87.8557018  24.7420326  89.5945451
  89.0401544  24.7417031  88.6517023  79.6803503  26.3593576  99.9681783
  79.3606287  25.5058885  99.6756157  79.1336931  26.5742155 100.7239751
  83.4583411  29.0756017 103.6851290  83.6769420  30.0073125 103.7039324
  83.8709185  28.7163992 104.4706094  90.3787628  19.5824103  95.6726978
  89.5688357  19.2371188  96.0482224  91.0672045  19.2731647  96.2614590
  92.3078177  18.6602150  97.2951275  92.8609215  19.0797603  97.9541298
  92.5448263  17.7337898  97.3374231  88.3311276  24.6489223 113.0754039
  88.2308003  25.5983580 113.0066130  88.1132818  24.3207462 112.2030109
  87.5324347  21.8974148  89.6594716  88.3943511  22.2229047  89.9190534
  87.7174692  21.1105644  89.1467782  79.5491763  29.9796488 101.9374905
  78.8555235  29.5650441 101.4244859  80.2964754  30.0217024 101.3408324
  95.6856984  20.7702675  96.8029939  95.1055653  21.4287479  96.4207992
  95.4192917  19.9480019  96.3917357  94.1360550  20.1707732  99.0051260
  94.6360329  20.2824267  98.1965578  94.7796158  19.8668785  99.6452068
  88.1942546  28.0786362 111.8919100  87.7109628  28.8786722 112.0982990
  88.2803485  28.0894307 110.9386544  81.4628506  29.9114742  99.8140920
  81.4399194  30.0102429  98.8622803  81.7729142  30.7579893 100.1358086
  84.1215884  31.9690897 103.9287534  85.0759137  31.9374839 103.8617466
  83.9228407  31.5081521 104.7437760  84.7115266  30.5392013 106.4958332
  85.5308155  31.0336091 106.5193169  84.9852073  29.6223981 106.4675899
  94.4681862  22.9302765  95.8586287  93.5807717  23.2152416  95.6406482
  94.8835851  22.7696529  95.0113564  97.8196398  22.9549286  99.5740627
  98.5956788  23.4445739  99.8465244  97.0944532  23.3807340 100.0312496
 100.2568957  23.6676905 100.6314567 100.8513447  23.4272641  99.9207876
 100.3295540  22.9484036 101.2588104  82.4766112  37.5110516 100.9457732
  82.3420580  36.7510917 100.3795730  82.0598175  38.2351416 100.4786521
  93.6125075  32.6947440  89.9534307  94.3160925  32.8997442  90.5691963
  92.8887724  33.2624202  90.2183391  94.4422886  28.4457301  96.0736578
  94.3858087  28.9025852  95.2344210  94.9951228  27.6847986  95.8959420
  98.2527692  24.2347033  96.8986697  97.9964626  23.8343669  97.7294905
  97.6280560  24.9490827  96.7736836 102.5640029  26.9743106  99.4057988
 102.0039587  27.0436295 100.1789551 101.9583533  26.7984091  98.6857485
  85.6335238  38.4079833 101.1576175  85.5167622  39.3525266 101.0554865
  84.8127684  38.1053395 101.5461974  95.5211773  33.1329969  92.0032767
  96.3557377  32.7011167  91.8210242  95.3596116  32.9611983  92.9309662
  95.1757665  29.6362082  93.3689107  95.1206469  29.4706354  92.4277551
  94.5503720  30.3438115  93.5251296  79.9650180  24.8730147 107.1950529
  80.6109044  24.3629101 107.6837754  79.7567331  25.6098828 107.7693954
  92.4903572  31.9410994 112.6942670  93.3594732  32.1151646 112.3329304
  92.0110324  32.7605411 112.5718399  88.4853790  19.1370191  92.9474425
  88.4732460  20.0812031  93.1042696  89.3777212  18.9540337  92.6533886
  86.6589752  39.0608095 104.3732103  87.5616999  39.0931705 104.6898598
  86.4327122  38.1308546 104.3878439  88.4143354  37.8139082 101.0342182
  87.4638985  37.8140943 100.9206554  88.7175840  37.0671816 100.5178216
  92.3005910  15.7312968  97.2020362  91.5338306  15.1771455  97.3477044
  92.7116615  15.8034837  98.0634514  84.3047671  22.0197764 111.2925543
  85.1679132  21.6634569 111.5028868  83.7313082  21.6811659 111.9800947
 104.1496048  43.6499620 102.0987944 104.7874458  43.5306367 101.3951284
 104.0316891  44.5980464 102.1575896 100.9585754  43.6027048 102.0349469
 100.6204266  43.4868113 101.1470004 101.8275522  43.2018213 102.0150475
  96.8172570  45.4562525  98.0246360  96.2537435  45.3652462  97.2562648
  96.7024965  44.6362429  98.5048852 101.4405537  44.7561900 107.9935674
 101.4294178  44.3614698 107.1216178 101.6026177  44.0227973 108.5869446
  94.3637002  46.9513716 100.8630580  95.1558294  46.6104541 100.4476880
  94.6033652  47.0608691 101.7832734 102.3972129  49.1233492  93.3360825
 101.7460108  49.7087573  92.9494839 103.1916491  49.6539687  93.3955862
  96.3227756  46.2122629  93.7347959  97.0958632  45.6651617  93.5960835
  96.6753155  47.0766879  93.9462421  98.1612798  47.5399012 106.9414858
  97.8702664  48.4444643 106.8261525  98.7969783  47.5815539 107.6558928
  99.0869005  44.9175860 103.5316218  99.6832577  44.6931883 102.8173181
  99.1443977  44.1760606 104.1341666  98.6594034  42.3715296  91.3666409
  98.9119554  41.8496817  90.6049872  97.7218593  42.2081441  91.4693093
 103.7037316  41.3751074  99.1741152 104.4900406  40.9570497  98.8231569
 103.9676021  42.2797166  99.3422801 103.8747394  46.8123924  93.8729809
 103.2393227  46.8858551  94.5850714 103.5444800  47.4017523  93.1948888
 109.1045743  41.3126307 100.0774131 109.8370915  40.7425524 100.3111960
 108.3485099  40.9247908 100.5180636  98.3790322  44.2743402  93.5690784
  98.2626580  43.5988305  94.2371868  98.4892582  43.7875775  92.7522937
 100.7221863  43.7353549  97.2737473 100.3580070  43.2084170  97.9850395
 101.5788979  43.3452018  97.1003959 106.6271164  35.0247881 104.5368739
 106.2954489  35.8943292 104.3129954 106.0316777  34.7084165 105.2162770
 100.3627350  38.7643448  92.2698822 100.5301753  39.6323685  92.6369293
 100.1724519  38.9270730  91.3460111 103.1202683  47.2260427 103.9364652
 102.8203406  48.1285466 103.8280459 102.7753743  46.9592610 104.7885805
  96.5715165  43.6774224  99.9701357  95.6465661  43.5450438 100.1779048
  96.8199578  44.4568443 100.4671299 106.5199827  39.7442967 101.6162089
 105.6116704  39.6758376 101.3220850 106.4687423  40.2214912 102.4443915
 100.3416571  41.2201106  93.2545489 100.2216196  41.6658157  94.0930969
  99.6469159  41.5686424  92.6959027  93.9323976  43.3207498 100.8045146
  94.0616357  43.5741977 101.7184557  93.2521427  43.9135206 100.4849801
  98.1023463  53.9904748  96.9035620  98.0247493  54.9412573  96.9824100
  97.4985107  53.6450620  97.5610546 100.5940693  41.1632613 109.5596987
  99.8174027  41.7226533 109.5499851 101.2331256  41.6489396 110.0811857
 108.3861474  37.9459406 103.3939963 107.7435854  38.2391939 102.7479758
 107.8816402  37.8312326 104.1993160 106.0401637  41.6922579  94.0825823
 106.9519493  41.9249966  93.9073520 105.5311284  42.2759623  93.5200901
  98.8487065  43.9718066 109.1214954  99.5901750  44.5103110 108.8449777
  98.1424051  44.5984355 109.2786506 104.3242405  46.1147207 107.7187115
 104.7325761  45.6729617 106.9741748 103.6019666  45.5399834 107.9721308
 100.6773475  41.0519814 105.0920672 101.5234670  41.4759227 105.2355321
 100.6172113  40.3953438 105.7859235 104.6471219  46.6748397 101.4739404
 104.0180082  46.8394112 100.7715472 104.2596882  47.0890007 102.2450368
 108.5260451  47.6102835  98.8283768 107.8411490  47.9901737  98.2780801
 108.6104301  48.2198162  99.5615716 103.8272920  38.7124182 106.7501846
 103.5833852  39.4666243 106.2136121 104.1032851  39.0909530 107.5849093
 105.7811383  45.2562794 105.4279111 105.9928278  45.8994554 104.7513492
 105.7341131  44.4225111 104.9601041 103.3837612  37.8680615 102.3315684
 102.5222091  38.1661869 102.6232421 103.4100047  38.0851014 101.3996716
 100.1999181  46.4122806  98.7389489 100.6637527  46.6910509  97.9494112
  99.9355979  45.5106250  98.5562580  97.0923262  45.9594287 101.6769252
  97.6624620  46.3881555 101.0386737  97.6831374  45.6776872 102.3753438
  99.1368067  42.5345958  95.5479054  99.8392111  42.9867002  96.0152981
  98.8048696  41.8929777  96.1758947  97.5848429  41.1257715 109.9230264
  96.9547090  41.8073995 110.1565661  97.4784517  41.0140796 108.9783402
  92.8793401  40.7929511 100.8496188  92.0892455  41.0487039 100.3736298
  93.3704649  41.6077848 100.9548228 106.8957211  48.1334750 103.6001469
 107.7174655  47.7314937 103.3184150 106.8919614  48.0302984 104.5517585
  94.8308147  41.1574090  97.8079665  94.0339310  41.2692784  98.3263160
  94.6033739  41.4960742  96.9420555 100.6613814  47.6818793 105.7562179
 100.7258247  48.1439200 106.5920351  99.9524738  47.0516158 105.8844489
  91.1631104  41.0460001 103.2811179  91.4139143  41.9307011 103.5468755
  91.6990653  40.8664603 102.5086271 114.9863204  44.4773498  99.9486440
 114.2326912  43.9080896  99.7930445 115.1210745  44.4436163 100.8957075
 100.3761832  49.3486901  95.6241160 100.2407507  50.1938436  96.0526007
 100.9171645  49.5506178  94.8607093  96.8629172  35.4278480 112.2855515
  96.4696117  34.8744679 112.9603159  97.6795312  35.7389059 112.6762032
  93.8291229  46.8662339  96.1969085  94.3415750  47.6605589  96.3474649
  94.4813942  46.1688629  96.1302686  95.6386114  49.9828095  98.2791838
  95.8152742  50.9046060  98.0912822  96.4342948  49.6686514  98.7086218
  99.7797133  36.8436360 109.8775771 100.5206846  37.4443513 109.7980234
 100.0115056  36.1013997 109.3193814  94.9238471  42.0292727 108.1554001
  94.8091986  41.1277984 108.4561100  94.0682988  42.2756424 107.8038818
 102.0030308  49.9710467 109.7541502 101.5594163  49.1846846 109.4362406
 102.6647522  50.1589618 109.0885392  96.7617430  51.5006269 104.2802180
  97.3124855  51.3723332 103.5079174  95.9228906  51.8001158 103.9297073
 104.1011546  50.2513267 107.7822903 104.0830022  51.0722148 107.2903172
 105.0231467  50.1267342 108.0073044 100.5584601  47.7657396 108.6246411
 101.0912937  47.0045685 108.3945719 100.0298682  47.4731048 109.3670566
 103.7254296  32.8717462 104.1540053 103.3818565  33.7619104 104.0779164
 104.0933258  32.6819120 103.2909638  91.7940146  45.1950993  96.9728655
  92.6315368  45.6048001  96.7562363  91.9718414  44.2550435  96.9428849
 103.6904578  42.8626074  92.6612488 103.1751202  43.6330678  92.9000876
 103.4181887  42.1891210  93.2845550 101.2751689  37.7075774  97.7197726
 100.4193286  37.3182625  97.5403365 101.6878641  37.7867735  96.8597512
 102.8050836  35.2422118 102.1189286 102.3015632  35.2052253 101.3057092
 103.0981443  36.1514860 102.1785943  99.0493722  35.3260847 101.1255468
  99.9146719  35.1303656 100.7661357  99.1171231  35.0971199 102.0524825
 108.6638852  45.6158428  94.5965662 107.8868295  45.2769588  94.1520824
 109.3430333  45.6211051  93.9220627 103.4790882  40.7353166  94.4872269
 103.1741017  41.0499315  95.3382412 104.4321324  40.8134586  94.5299602
 101.9237313  46.8943389  96.1365223 101.3958675  46.1596149  95.8238461
 101.4224816  47.6718065  95.8905192 106.9030159  45.0892409 101.2532270
 106.2453834  45.7791671 101.3412398 107.7070559  45.4788841 101.5966256
  96.6556041  37.5563055  98.4971835  97.2299793  37.3338237  97.7645028
  97.2427023  37.6251750  99.2500436 105.7135618  43.4436782  99.3036211
 106.2267500  44.0766774  99.8057921 106.3636842  42.8437978  98.9379571
  96.9825628  39.5867516  92.5167720  96.1462940  39.9242203  92.8376995
  96.8430398  39.4516496  91.5794857  98.9578709  34.4304304  97.2246904
  98.3043121  34.1153321  96.6003519  98.9159183  33.8080045  97.9506727
 100.0689914  44.7123599  89.1400196  99.1616975  44.4812853  89.3391345
 100.5660946  43.9161218  89.3274178 102.9757992  53.4221106  92.0596882
 102.3019691  53.7252803  92.6681840 103.3623814  54.2250187  91.7102340
 102.1916449  40.9186238 101.5494552 101.2739010  41.1401185 101.3916240
 102.6076593  40.9932548 100.6906259 102.9751497  42.3177653  96.6797232
 103.7223316  42.8299051  96.3704354 103.2443086  41.9961706  97.5401626
 101.2478147  44.8136194  93.6624186 100.3389366  44.5295227  93.7596656
 101.2773231  45.2335273  92.8027493 106.4797414  48.4242784  97.4315354
 106.0259741  47.5833693  97.4880544 105.8491381  49.0604182  97.7690134
 105.4230334  39.3534770  98.6616021 104.6853091  38.8412156  98.9926264
 105.6757107  38.9135151  97.8499298 104.9230354  50.2619280  98.3665172
 105.2153328  50.8224337  97.6477538 105.4328974  50.5547841  99.1218331
 105.5241961  32.1311022  99.2557791 105.8300838  31.2708385  98.9683706
 106.2494566  32.7228642  99.0556785  91.8166317  42.5341708  97.6439389
  91.6190717  41.9411069  96.9190455  91.2612981  42.2293918  98.3615327
  99.7963041  42.4264815  99.7633982  99.8511651  41.4738651  99.6876458
  98.9854243  42.5824254 100.2475280 100.9454235  46.3544938  91.0012265
 100.5073665  45.6380797  90.5417902 101.6864676  46.5821053  90.4397356
  97.7355401  41.0441874  97.5224361  96.9223266  41.3436045  97.9289553
  98.2314395  40.6497563  98.2398843  99.8863979  51.0399631  99.4558625
  99.8440158  51.2660478  98.5267157 100.8026678  50.8063006  99.6044426
 103.3329613  41.5083699 106.3539255 103.6879000  41.7355172 107.2133720
 103.9801744  41.8402076 105.7316510 109.0627350  44.6302135  97.0588584
 108.9245248  44.8203731  96.1309773 108.7063568  45.3921518  97.5156635
  97.2269476  38.6160230 103.1385596  97.8668855  38.4748989 102.4408559
  96.3947006  38.3294743 102.7624198 109.0896729  46.6978662 102.0699855
 109.5233236  46.6053951 102.9182909 109.8028310  46.6736162 101.4319871
  98.0029780  47.9162660  99.2520588  98.7970378  47.4212981  99.0503163
  97.2921472  47.3880524  98.8888294 102.8224624  50.2980756 103.6032956
 102.8761646  50.8671692 104.3710672 101.9539405  50.4682641 103.2386993
  94.3112543  42.0605742  95.3280341  93.3810131  41.9990198  95.5450303
  94.4070015  41.5381695  94.5316982  94.2298092  38.5860555  97.9158582
  94.4904909  39.5005888  97.8067743  95.0515264  38.1184998  98.0655195
  95.7023017  39.9998312 105.0857407  96.3746071  39.7915674 104.4370056
  94.8752804  39.8020398 104.6462639 109.9512279  46.7402362 104.6032740
 110.1448169  47.6448173 104.8492015 109.8512897  46.2809782 105.4371325
 101.6048589  36.6260253 107.1023068 100.9576505  37.3250203 107.0087544
 102.3749605  37.0596397 107.4699316 105.0127387  46.8909105 110.1773621
 104.8612894  46.6619657 109.2603705 105.0032067  47.8479707 110.1904966
 101.7812724  44.4641018 105.1619887 102.7104784  44.6152178 104.9888855
 101.3603754  44.5525039 104.3068534 100.5801056  48.4891682 102.9318425
 100.4412141  48.1210467 103.8044363  99.7915652  49.0039322 102.7602383
 101.1749208  53.5900779  94.2743962 101.3500963  53.1188822  95.0889584
 100.4881996  54.2166545  94.5025222 102.1306271  47.8673285 100.3207263
 101.7956103  47.8274055 101.2164913 101.6310216  47.2018001  99.8477673
  96.1050515  43.2740915 105.8459844  95.9670313  42.5421154 106.4471383
  97.0155438  43.1849815 105.5644032 105.0665462  45.2129319  90.5944323
 104.4494633  44.4876148  90.4977375 104.5981951  45.9738680  90.2511397
  98.7332815  42.9860874 105.3343524  99.4432434  42.3454067 105.2930142
  98.6902124  43.2373769 106.2569704 106.7219594  49.9228228 108.2550103
 106.6632140  49.2387448 107.5880686 107.1239112  50.6647218 107.8030729
  97.4461749  39.9726092 107.1539163  96.9099106  39.5216831 107.8060760
  96.8578458  40.1072001 106.4109628  95.7410293  56.7390142 101.0483822
  95.9806891  57.3708666 101.7262840  94.8979489  56.3878182 101.3349181
  96.8564008  39.4314744  89.7165627  95.9793475  39.3103545  89.3527874
  97.3321761  38.6400822  89.4644515 106.7237001  47.8867812 106.4864083
 105.8363780  47.5493733 106.6090481 107.2935552  47.1550843 106.7232848
  88.3766148  44.2191903  99.8107134  89.0637188  43.9053633  99.2228149
  88.2214277  45.1233268  99.5374385  93.1800871  39.1082100 104.2392158
  93.0959059  38.5007770 103.5042568  92.3583577  39.5991118 104.2401654
 100.2538155  52.5469264 103.4525326 100.1808326  53.3524236 103.9644630
  99.8115548  52.7461230 102.6273347 100.0427934  51.7841034  96.9628147
  99.2595456  52.3262714  97.0566372 100.7420680  52.3015014  97.3622389
 103.3524584  37.5935664  99.6062353 103.8493284  36.8405626  99.2863423
 102.5811566  37.6299980  99.0405562 111.2054342  43.2976029 101.2480644
 111.1944218  44.1800744 100.8774577 110.3371721  42.9447580 101.0535181
 102.7136838  52.4456098 105.6083484 103.4264810  53.0803563 105.5359386
 102.2226867  52.5419964 104.7923486 104.4354365  46.3507351  97.1800776
 103.5010644  46.4708813  97.0105480 104.6131034  45.4479818  96.9160786
  99.9359553  39.7353047  99.3334037  99.5657341  39.1824087 100.0214943
 100.4318646  39.1311180  98.7809037 107.8226916  42.1924670  97.7150810
 108.2887369  43.0252662  97.6411113 108.2734417  41.7269652  98.4196069
  97.7648752  50.1950542 106.4289055  98.4658211  50.8287025 106.5818449
  97.2943867  50.5365273 105.6684695 105.8903148  48.5368491  94.7136962
 106.1662991  48.4225086  95.6230836 105.0207646  48.1385976  94.6749135
 105.7943579  34.5605257 101.7541712 104.8806659  34.7909484 101.9223919
 106.2236681  34.6443701 102.6055744 105.5650038  42.7495149 104.2541606
 104.9121488  42.9971056 103.5994058 105.9430418  41.9359287 103.9204083
 102.5257212  52.7854842  98.3569776 102.7079606  51.9676498  98.8197528
 103.3490198  53.0022534  97.9194666 102.8599377  51.7123027  95.6184824
 103.3887144  51.2015482  95.0054987 103.1227597  51.3965558  96.4830357
 101.6137611  43.4914960 110.7407643 100.9378248  43.3909089 111.4110018
 102.4365245  43.3354174 111.2043640  93.3616470  49.7286897 103.3620158
  93.9469907  48.9830584 103.4948062  93.1641308  50.0390853 104.2456822
  96.2155125  52.7638144  98.3782600  95.5465500  53.2484272  97.8946640
  96.0767995  53.0107364  99.2925979  87.9534125  42.2992497 102.0824601
  87.9918224  41.7656087 102.8761719  87.4474417  41.7727702 101.4635578
 100.3560394  54.7981888 104.9765259 100.9078702  54.9613509 105.7414344
 100.6966587  55.3886325 104.3045284  95.3324887  37.1457037 105.5787143
  95.3966213  38.0071868 105.1664541  95.2692007  36.5331039 104.8459502
  94.8077159  39.2180170 109.2260178  95.4349198  38.8357247 109.8397702
  93.9505078  38.9994372 109.5915870 105.2071268  49.6243145 110.8313913
 105.7511172  50.2373103 110.3368868 104.6258113  50.1822723 111.3480926
  91.5842702  41.0256599  95.1578532  91.8796143  40.1167277  95.1045586
  90.6830738  41.0044338  94.8359535 103.4928781  52.7463863 101.9628941
 103.3679920  51.9453603 101.4539886 104.1507872  53.2410056 101.4742911
  95.1136949  39.1012596 101.1406081  94.3923535  39.7148563 101.0013554
  95.9030205  39.6370360 101.0622727 105.5563689  50.5472883 103.5908491
 104.6094025  50.4278234 103.5186818 105.9046462  49.6595381 103.6734752
  97.9163263  36.4367022 107.4146733  98.4397664  36.6829319 108.1773042
  97.6975596  37.2687057 106.9949870  93.3130544  38.7070697  95.2817858
  92.9843250  37.8268076  95.0992964  93.6669914  38.6518365  96.1694247
 102.5610123  50.3425599  99.7912843 102.4135085  49.4142307  99.9720413
 103.3863616  50.3645690  99.3069918  96.4272367  38.9943666  95.6493335
  96.7668439  39.5229588  94.9271944  96.8744487  39.3324073  96.4251902
 106.1644244  51.1654158 100.8777716 107.0890792  50.9597019 100.7402167
 105.9959548  50.9170559 101.7867057  99.1215808  37.3780717 105.0996403
  98.7812628  36.5788530 105.5017083  98.4154814  37.6782428 104.5273237
  99.7732280  34.4630030 103.5523726 100.5958349  33.9890508 103.4302617
 100.0170343  35.2420513 104.0522413  98.4140514  37.4918288  93.8486628
  99.1348877  37.8699541  93.3450345  97.7905818  38.2107165  93.9521606
 102.5571637  38.1963437  94.7844960 102.7735251  39.0788075  94.4833789
 102.0765704  37.8049650  94.0550602  97.2970858  41.1549150 101.3615705
  97.1515439  41.4689453 102.2539987  96.8196062  41.7734051 100.8086604
  99.1567241  38.1451698 101.4096595  99.1428810  37.2492791 101.0728893
  99.8739669  38.1522362 102.0434881 101.0093372  38.5789038 103.4549722
 100.7511150  39.5006109 103.4534052 100.4778412  38.1819473 104.1450186
 105.9539561  51.6839826  96.2339807 106.1276438  51.1186248  95.4813660
 106.4468452  52.4840720  96.0519297  91.7716520  43.6954495 104.3003366
  91.2269989  44.4714303 104.4323641  92.6495870  44.0425299 104.1422488
  98.5604137  37.0266078  96.6784165  98.6820048  36.0982725  96.8775052
  98.2706179  37.0404764  95.7662480 101.4295327  34.7120989  99.8150885
 101.4517024  34.7760322  98.8602864 101.8463387  33.8725498 100.0091391
 111.8078952  44.4476248  97.8530107 112.2510098  43.6983574  97.4549230
 110.9305462  44.4386385  97.4703839 106.9414733  51.0006590  93.3336706
 107.6365638  51.6213283  93.5524020 107.2837883  50.1501941  93.6089084
  92.5582542  42.8224391 107.1933523  91.8164278  42.9707026 107.7798153
  92.2375287  43.0832656 106.3300272 108.8406156  48.4506295  94.8624036
 109.3657480  48.7893568  94.1373356 108.7528509  47.5153311  94.6787171
 100.5026205  52.3640369 106.9913913 100.8113331  52.1189516 107.8636613
 101.3001687  52.5687008 106.5032783 100.5246817  54.5178279  99.2219290
 100.0851807  54.0254657  99.9152146 101.2754934  53.9751246  98.9811365
  93.0039156  50.7089820  99.2243918  93.8297176  50.4093591  98.8442561
  92.6533208  49.9397442  99.6733706  97.9720689  50.0616288 101.2941591
  97.3500698  49.3986993 100.9943819  98.6425556  50.0877420 100.6115239
  91.2047761  48.6276146 100.1832851  90.3679669  48.1998320 100.0016853
  91.1771406  48.8208589 101.1203642  98.0445217  38.5398076 110.8874097
  98.0933372  39.4160199 110.5051867  98.5867731  37.9975469 110.3145741
 108.5300062  49.0839199 110.1675234 107.7395606  49.0663338 109.6279734
 108.2933417  49.6227493 110.9224271 108.6497937  45.9331665 107.4807963
 108.6995942  45.7681673 108.4223486 108.5411861  45.0658924 107.0905844
  97.5334196  48.6120211  94.7700052  97.6822316  49.2955676  94.1166725
  98.3400640  48.5925301  95.2849508 105.9401700  41.9162593 108.7967270
 106.8411563  41.7769058 108.5051267 106.0149674  42.0817048 109.7365447
 100.2744505  39.2929448 107.6420456  99.4047814  39.5863014 107.3703045
 100.5103985  39.8769893 108.3627720 110.1516134  48.3528607 107.7249984
 109.8600943  48.7158588 108.5613445 109.5388265  47.6395615 107.5463317
 111.3511817  45.9181487 100.2452555 112.1858708  46.3571291 100.4090115
 111.4870945  45.4420140  99.4260800 108.4003322  43.4761222 106.1930042
 108.8757444  43.6688868 105.3848894 107.4768888  43.5320407 105.9473426
  95.2886829  44.6385389  95.7761121  95.0432871  43.7347719  95.9741331
  95.4582744  44.6402539  94.8340599 102.9783539  35.5109065 105.1585876
 103.4965483  36.2470092 104.8332365 102.6238672  35.8173058 105.9932635
  94.5582477  40.3713746  93.2747282  93.8651722  40.4458101  92.6187318
  94.3134228  39.6074090  93.7968799 103.2296133  31.9309348 100.6786773
 103.5097887  31.2632537 101.3047199 104.0146740  32.1238443 100.1661437
 101.0329602  51.1068342  92.2411799 100.4603569  51.7258529  91.7882271
 101.6062395  51.6567703  92.7751721 107.1004991  40.3526982 104.4258348
 108.0522414  40.4525079 104.4470572 106.9308442  39.5605250 104.9356432
 105.1219371  37.4382565 104.6117749 104.5269303  37.7187578 103.9164238
 104.8369068  37.9276466 105.3834490 104.2526861  51.3905492  93.3720382
 105.1857535  51.3251053  93.5753257 104.1650074  52.2261759  92.9134914
 106.8814878  50.7071362  90.3324329 106.8028510  50.3731226  91.2260087
 107.7024545  51.1993130  90.3315801 109.5793069  43.5733101 103.5400648
 109.5469389  42.6349102 103.7260332 110.1893693  43.6517138 102.8066473
 101.4176400  42.4429154  89.5827852 102.3635505  42.3135362  89.6516270
 101.0390645  41.7043816  90.0597280 109.7287558  40.3644145 103.5858931
 109.2126606  39.5802601 103.3988860 110.6127506  40.0362861 103.7505450
 107.3898285  34.1085160  99.5454744 107.1923106  33.8000249 100.4298076
 107.9997990  34.8346799  99.6752673 115.3969619  44.6349108 102.6806685
 116.1273008  44.3734396 103.2414388 114.7876565  43.8977830 102.7208752
 113.4784916  42.7756971 103.2781136 112.7518080  42.6412936 102.6697627
 113.0632203  43.0833799 104.0837854 101.3015093  46.4946900 111.0428509
 102.2218102  46.6725499 111.2368555 101.2664676  45.5502946 110.8908208
  99.6019317  40.3679131  89.5182737  98.6950773  40.0712243  89.5945451
  99.8795298  40.0708949  88.6517023  90.5197258  41.6885494  99.9681783
  90.2000042  40.8350802  99.6756157  89.9730686  41.9034072 100.7239751
  94.2977165  44.4047935 103.6851290  94.5163175  45.3365043 103.7039324
  94.7102939  44.0455910 104.4706094 101.2181383  34.9116020  95.6726978
 100.4082111  34.5663105  96.0482224 101.9065800  34.6023564  96.2614590
 103.1471931  33.9894067  97.2951275 103.7002970  34.4089521  97.9541298
 103.3842018  33.0629815  97.3374231  99.1705030  39.9781141 113.0754039
  99.0701757  40.9275498 113.0066130  98.9526573  39.6499380 112.2030109
  98.3718102  37.2266066  89.6594716  99.2337266  37.5520964  89.9190534
  98.5568446  36.4397562  89.1467782  90.3885518  45.3088406 101.9374905
  89.6948989  44.8942358 101.4244859  91.1358509  45.3508942 101.3408324
 106.5250738  36.0994592  96.8029939 105.9449407  36.7579396  96.4207992
 106.2586671  35.2771937  96.3917357 104.9754305  35.4999650  99.0051260
 105.4754083  35.6116185  98.1965578 105.6189913  35.1960703  99.6452068
  99.0336301  43.4078280 111.8919100  98.5503382  44.2078640 112.0982990
  99.1197240  43.4186225 110.9386544  92.3022260  45.2406659  99.8140920
  92.2792948  45.3394347  98.8622803  92.6122897  46.0871810 100.1358086
  94.9609638  47.2982814 103.9287534  95.9152892  47.2666757 103.8617466
  94.7622162  46.8373438 104.7437760  95.5509020  45.8683930 106.4958332
  96.3701909  46.3628009 106.5193169  95.8245828  44.9515899 106.4675899
 105.3075616  38.2594683  95.8586287 104.4201471  38.5444333  95.6406482
 105.7229605  38.0988446  95.0113564 108.6590153  38.2841204  99.5740627
 109.4350543  38.7737656  99.8465244 107.9338287  38.7099258 100.0312496
 111.0962711  38.9968823 100.6314567 111.6907202  38.7564559  99.9207876
 111.1689295  38.2775954 101.2588104  93.3159867  52.8402434 100.9457732
  93.1814335  52.0802835 100.3795730  92.8991929  53.5643334 100.4786521
 104.4518830  48.0239357  89.9534307 105.1554680  48.2289360  90.5691963
 103.7281479  48.5916119  90.2183391 105.2816640  43.7749219  96.0736578
 105.2251842  44.2317770  95.2344210 105.8344983  43.0139903  95.8959420
 109.0921446  39.5638951  96.8986697 108.8358380  39.1635586  97.7294905
 108.4674314  40.2782745  96.7736836 113.4033784  42.3035024  99.4057988
 112.8433342  42.3728213 100.1789551 112.7977287  42.1276008  98.6857485
  96.4728993  53.7371751 101.1576175  96.3561377  54.6817183 101.0554865
  95.6521439  53.4345313 101.5461974 106.3605527  48.4621887  92.0032767
 107.1951131  48.0303085  91.8210242 106.1989870  48.2903900  92.9309662
 106.0151419  44.9654000  93.3689107 105.9600223  44.7998271  92.4277551
 105.3897475  45.6730033  93.5251296  90.8043934  40.2022064 107.1950529
  91.4502798  39.6921018 107.6837754  90.5961086  40.9390746 107.7693954
 103.3297327  47.2702912 112.6942670 104.1988486  47.4443564 112.3329304
 102.8504078  48.0897329 112.5718399  99.3247545  34.4662109  92.9474425
  99.3126215  35.4103949  93.1042696 100.2170967  34.2832254  92.6533886
  97.4983507  54.3900013 104.3732103  98.4010754  54.4223623 104.6898598
  97.2720877  53.4600464 104.3878439  99.2537109  53.1430999 101.0342182
  98.3032740  53.1432861 100.9206554  99.5569595  52.3963734 100.5178216
 103.1399664  31.0604886  97.2020362 102.3732060  30.5063372  97.3477044
 103.5510369  31.1326754  98.0634514  95.1441425  37.3489681 111.2925543
  96.0072887  36.9926486 111.5028868  94.5706836  37.0103576 111.9800947
 114.9889802  58.9791538 102.0987944 115.6268212  58.8598285 101.3951284
 114.8710645  59.9272382 102.1575896 111.7979509  58.9318966 102.0349469
 111.4598020  58.8160031 101.1470004 112.6669277  58.5310131 102.0150475
 107.6566324  60.7854442  98.0246360 107.0931189  60.6944379  97.2562648
 107.5418719  59.9654347  98.5048852 112.2799292  60.0853818 107.9935674
 112.2687932  59.6906616 107.1216178 112.4419931  59.3519890 108.5869446
 105.2030756  62.2805634 100.8630580 105.9952048  61.9396459 100.4476880
 105.4427406  62.3900609 101.7832734 113.2365883  64.4525410  93.3360825
 112.5853863  65.0379490  92.9494839 114.0310246  64.9831605  93.3955862
 107.1621510  61.5414547  93.7347959 107.9352386  60.9943534  93.5960835
 107.5146909  62.4058796  93.9462421 109.0006553  62.8690929 106.9414858
 108.7096419  63.7736560 106.8261525 109.6363537  62.9107457 107.6558928
 109.9262760  60.2467778 103.5316218 110.5226332  60.0223800 102.8173181
 109.9837731  59.5052523 104.1341666 109.4987788  57.7007213  91.3666409
 109.7513309  57.1788735  90.6049872 108.5612347  57.5373359  91.4693093
 114.5431071  56.7042992  99.1741152 115.3294160  56.2862415  98.8231569
 114.8069775  57.6089084  99.3422801 114.7141148  62.1415842  93.8729809
 114.0786981  62.2150468  94.5850714 114.3838555  62.7309441  93.1948888
 119.9439498  56.6418225 100.0774131 120.6764670  56.0717442 100.3111960
 119.1878854  56.2539825 100.5180636 109.2184077  59.6035319  93.5690784
 109.1020335  58.9280223  94.2371868 109.3286337  59.1167693  92.7522937
 111.5615618  59.0645466  97.2737473 111.1973825  58.5376087  97.9850395
 112.4182734  58.6743935  97.1003959 117.4664918  50.3539799 104.5368739
 117.1348243  51.2235210 104.3129954 116.8710532  50.0376083 105.2162770
 111.2021105  54.0935366  92.2698822 111.3695507  54.9615602  92.6369293
 111.0118274  54.2562648  91.3460111 113.9596438  62.5552345 103.9364652
 113.6597161  63.4577384 103.8280459 113.6147497  62.2884528 104.7885805
 107.4108919  59.0066142  99.9701357 106.4859416  58.8742356 100.1779048
 107.6593333  59.7860361 100.4671299 117.3593582  55.0734885 101.6162089
 116.4510459  55.0050294 101.3220850 117.3081177  55.5506830 102.4443915
 111.1810326  56.5493024  93.2545489 111.0609951  56.9950074  94.0930969
 110.4862914  56.8978341  92.6959027 104.7717730  58.6499415 100.8045146
 104.9010112  58.9033894 101.7184557 104.0915182  59.2427123 100.4849801
 108.9417218  69.3196665  96.9035620 108.8641247  70.2704490  96.9824100
 108.3378861  68.9742538  97.5610546 111.4334447  56.4924531 109.5596987
 110.6567781  57.0518451 109.5499851 112.0725010  56.9781314 110.0811857
 119.2255228  53.2751324 103.3939963 118.5829608  53.5683857 102.7479758
 118.7210157  53.1604244 104.1993160 116.8795392  57.0214497  94.0825823
 117.7913248  57.2541883  93.9073520 116.3705039  57.6051541  93.5200901
 109.6880820  59.3009984 109.1214954 110.4295504  59.8395028 108.8449777
 108.9817805  59.9276273 109.2786506 115.1636159  61.4439125 107.7187115
 115.5719515  61.0021535 106.9741748 114.4413421  60.8691752 107.9721308
 111.5167229  56.3811731 105.0920672 112.3628425  56.8051145 105.2355321
 111.4565867  55.7245356 105.7859235 115.4864974  62.0040315 101.4739404
 114.8573836  62.1686029 100.7715472 115.0990636  62.4181925 102.2450368
 119.3654206  62.9394753  98.8283768 118.6805244  63.3193654  98.2780801
 119.4498055  63.5490080  99.5615716 114.6666675  54.0416100 106.7501846
 114.4227607  54.7958160 106.2136121 114.9426605  54.4201447 107.5849093
 116.6205137  60.5854712 105.4279111 116.8322033  61.2286472 104.7513492
 116.5734886  59.7517029 104.9601041 114.2231366  53.1972533 102.3315684
 113.3615845  53.4953786 102.6232421 114.2493801  53.4142932 101.3996716
 111.0392936  61.7414723  98.7389489 111.5031281  62.0202426  97.9494112
 110.7749734  60.8398168  98.5562580 107.9317017  61.2886205 101.6769252
 108.5018374  61.7173473 101.0386737 108.5225129  61.0068789 102.3753438
 109.9761822  57.8637876  95.5479054 110.6785865  58.3158919  96.0152981
 109.6442450  57.2221694  96.1758947 108.4242183  56.4549632 109.9230264
 107.7940844  57.1365913 110.1565661 108.3178271  56.3432714 108.9783402
 103.7187156  56.1221428 100.8496188 102.9286210  56.3778957 100.3736298
 104.2098403  56.9369766 100.9548228 117.7350965  63.4626667 103.6001469
 118.5568409  63.0606855 103.3184150 117.7313368  63.3594902 104.5517585
 105.6701901  56.4866008  97.8079665 104.8733065  56.5984702  98.3263160
 105.4427493  56.8252660  96.9420555 111.5007569  63.0110711 105.7562179
 111.5652001  63.4731118 106.5920351 110.7918493  62.3808076 105.8844489
 102.0024859  56.3751919 103.2811179 102.2532897  57.2598929 103.5468755
 102.5384407  56.1956520 102.5086271 125.8256958  59.8065416  99.9486440
 125.0720667  59.2372814  99.7930445 125.9604500  59.7728080 100.8957075
 111.2155587  64.6778818  95.6241160 111.0801261  65.5230354  96.0526007
 111.7565399  64.8798096  94.8607093 107.7022926  50.7570398 112.2855515
 107.3089872  50.2036597 112.9603159 108.5189066  51.0680977 112.6762032
 104.6684984  62.1954256  96.1969085 105.1809504  62.9897507  96.3474649
 105.3207697  61.4980547  96.1302686 106.4779869  65.3120013  98.2791838
 106.6546497  66.2337977  98.0912822 107.2736702  64.9978432  98.7086218
 110.6190887  52.1728277 109.8775771 111.3600601  52.7735430 109.7980234
 110.8508810  51.4305915 109.3193814 105.7632225  57.3584644 108.1554001
 105.6485740  56.4569902 108.4561100 104.9076743  57.6048341 107.8038818
 112.8424063  65.3002385 109.7541502 112.3987917  64.5138763 109.4362406
 113.5041276  65.4881535 109.0885392 107.6011184  66.8298186 104.2802180
 108.1518609  66.7015250 103.5079174 106.7622660  67.1293075 103.9297073
 114.9405301  65.5805185 107.7822903 114.9223776  66.4014066 107.2903172
 115.8625221  65.4559260 108.0073044 111.3978355  63.0949314 108.6246411
 111.9306692  62.3337602 108.3945719 110.8692436  62.8022966 109.3670566
 114.5648050  48.2009380 104.1540053 114.2212319  49.0911022 104.0779164
 114.9327013  48.0111038 103.2909638 102.6333901  60.5242911  96.9728655
 103.4709123  60.9339919  96.7562363 102.8112168  59.5842353  96.9428849
 114.5298333  58.1917991  92.6612488 114.0144956  58.9622596  92.9000876
 114.2575641  57.5183127  93.2845550 112.1145444  53.0367692  97.7197726
 111.2587040  52.6474542  97.5403365 112.5272396  53.1159653  96.8597512
 113.6444590  50.5714035 102.1189286 113.1409386  50.5344170 101.3057092
 113.9375197  51.4806778 102.1785943 109.8887476  50.6552765 101.1255468
 110.7540473  50.4595574 100.7661357 109.9564985  50.4263117 102.0524825
 119.5032607  60.9450346  94.5965662 118.7262050  60.6061505  94.1520824
 120.1824088  60.9502969  93.9220627 114.3184636  56.0645083  94.4872269
 114.0134772  56.3791233  95.3382412 115.2715078  56.1426503  94.5299602
 112.7631068  62.2235307  96.1365223 112.2352429  61.4888066  95.8238461
 112.2618571  63.0009983  95.8905192 117.7423914  60.4184327 101.2532270
 117.0847588  61.1083589 101.3412398 118.5464313  60.8080759 101.5966256
 107.4949795  52.8854973  98.4971835 108.0693547  52.6630154  97.7645028
 108.0820778  52.9543667  99.2500436 116.5529373  58.7728700  99.3036211
 117.0661254  59.4058692  99.8057921 117.2030597  58.1729895  98.9379571
 107.8219383  54.9159434  92.5167720 106.9856695  55.2534120  92.8376995
 107.6824152  54.7808414  91.5794857 109.7972463  49.7596222  97.2246904
 109.1436876  49.4445239  96.6003519 109.7552937  49.1371962  97.9506727
 110.9083668  60.0415517  89.1400196 110.0010730  59.8104770  89.3391345
 111.4054700  59.2453136  89.3274178 113.8151747  68.7513024  92.0596882
 113.1413446  69.0544721  92.6681840 114.2017569  69.5542104  91.7102340
 113.0310204  56.2478155 101.5494552 112.1132765  56.4693102 101.3916240
 113.4470347  56.3224466 100.6906259 113.8145251  57.6469571  96.6797232
 114.5617070  58.1590968  96.3704354 114.0836841  57.3253624  97.5401626
 112.0871901  60.1428112  93.6624186 111.1783121  59.8587145  93.7596656
 112.1166985  60.5627190  92.8027493 117.3191169  63.7534701  97.4315354
 116.8653496  62.9125611  97.4880544 116.6885136  64.3896100  97.7690134
 116.2624088  54.6826687  98.6616021 115.5246845  54.1704074  98.9926264
 116.5150862  54.2427069  97.8499298 115.7624108  65.5911198  98.3665172
 116.0547082  66.1516255  97.6477538 116.2722729  65.8839759  99.1218331
 116.3635716  47.4602939  99.2557791 116.6694593  46.6000303  98.9683706
 117.0888321  48.0520560  99.0556785 102.6560072  57.8633626  97.6439389
 102.4584472  57.2702987  96.9190455 102.1006736  57.5585836  98.3615327
 110.6356796  57.7556732  99.7633982 110.6905405  56.8030569  99.6876458
 109.8247998  57.9116171 100.2475280 111.7847989  61.6836855  91.0012265
 111.3467419  60.9672714  90.5417902 112.5258430  61.9112970  90.4397356
 108.5749155  56.3733792  97.5224361 107.7617021  56.6727963  97.9289553
 109.0708150  55.9789481  98.2398843 110.7257733  66.3691549  99.4558625
 110.6833912  66.5952395  98.5267157 111.6420432  66.1354924  99.6044426
 114.1723367  56.8375617 106.3539255 114.5272755  57.0647090 107.2133720
 114.8195498  57.1693993 105.7316510 119.9021104  59.9594052  97.0588584
 119.7639003  60.1495648  96.1309773 119.5457323  60.7213435  97.5156635
 108.0663230  53.9452148 103.1385596 108.7062610  53.8040907 102.4408559
 107.2340761  53.6586661 102.7624198 119.9290484  62.0270579 102.0699855
 120.3626990  61.9345869 102.9182909 120.6422064  62.0028080 101.4319871
 108.8423534  63.2454578  99.2520588 109.6364133  62.7504898  99.0503163
 108.1315226  62.7172441  98.8888294 113.6618379  65.6272674 103.6032956
 113.7155401  66.1963610 104.3710672 112.7933160  65.7974559 103.2386993
 105.1506298  57.3897660  95.3280341 104.2203886  57.3282115  95.5450303
 105.2463770  56.8673613  94.5316982 105.0691847  53.9152473  97.9158582
 105.3298664  54.8297806  97.8067743 105.8909019  53.4476915  98.0655195
 106.5416772  55.3290230 105.0857407 107.2139825  55.1207592 104.4370056
 105.7146558  55.1312316 104.6462639 120.7906033  62.0694280 104.6032740
 120.9841923  62.9740091 104.8492015 120.6906651  61.6101699 105.4371325
 112.4442344  51.9552171 107.1023068 111.7970259  52.6542120 107.0087544
 113.2143359  52.3888315 107.4699316 115.8521142  62.2201023 110.1773621
 115.7006648  61.9911575 109.2603705 115.8425821  63.1771624 110.1904966
 112.6206478  59.7932936 105.1619887 113.5498538  59.9444095 104.9888855
 112.1997508  59.8816956 104.3068534 111.4194810  63.8183600 102.9318425
 111.2805896  63.4502384 103.8044363 110.6309406  64.3331239 102.7602383
 112.0142962  68.9192697  94.2743962 112.1894718  68.4480740  95.0889584
 111.3275750  69.5458463  94.5025222 112.9700025  63.1965203 100.3207263
 112.6349858  63.1565973 101.2164913 112.4703971  62.5309919  99.8477673
 106.9444269  58.6032833 105.8459844 106.8064067  57.8713072 106.4471383
 107.8549193  58.5141733 105.5644032 115.9059217  60.5421237  90.5944323
 115.2888388  59.8168065  90.4977375 115.4375705  61.3030597  90.2511397
 109.5726570  58.3152792 105.3343524 110.2826188  57.6745984 105.2930142
 109.5295878  58.5665687 106.2569704 117.5613349  65.2520145 108.2550103
 117.5025895  64.5679366 107.5880686 117.9632867  65.9939135 107.8030729
 108.2855504  55.3018010 107.1539163 107.7492861  54.8508748 107.8060760
 107.6972212  55.4363919 106.4109628 106.5804047  72.0682059 101.0483822
 106.8200646  72.7000583 101.7262840 105.7373244  71.7170099 101.3349181
 107.6957763  54.7606661  89.7165627 106.8187229  54.6395462  89.3527874
 108.1715516  53.9692740  89.4644515 117.5630756  63.2159729 106.4864083
 116.6757535  62.8785651 106.6090481 118.1329307  62.4842761 106.7232848
  99.2159903  59.5483821  99.8107134  99.9030943  59.2345551  99.2228149
  99.0608032  60.4525186  99.5374385 104.0194625  54.4374018 104.2392158
 103.9352814  53.8299687 103.5042568 103.1977331  54.9283036 104.2401654
 111.0931909  67.8761182 103.4525326 111.0202081  68.6816153 103.9644630
 110.6509302  68.0753148 102.6273347 110.8821689  67.1132952  96.9628147
 110.0989211  67.6554632  97.0566372 111.5814434  67.6306931  97.3622389
 114.1918339  52.9227581  99.6062353 114.6887038  52.1697544  99.2863423
 113.4205320  52.9591898  99.0405562 122.0448096  58.6267947 101.2480644
 122.0337973  59.5092662 100.8774577 121.1765476  58.2739498 101.0535181
 113.5530593  67.7748016 105.6083484 114.2658565  68.4095481 105.5359386
 113.0620621  67.8711882 104.7923486 115.2748120  61.6799268  97.1800776
 114.3404398  61.8000731  97.0105480 115.4524788  60.7771735  96.9160786
 110.7753308  55.0644964  99.3334037 110.4051095  54.5116005 100.0214943
 111.2712400  54.4603098  98.7809037 118.6620671  57.5216588  97.7150810
 119.1281123  58.3544579  97.6411113 119.1128171  57.0561569  98.4196069
 108.6042506  65.5242459 106.4289055 109.3051966  66.1578942 106.5818449
 108.1337621  65.8657191 105.6684695 116.7296902  63.8660409  94.7136962
 117.0056746  63.7517004  95.6230836 115.8601401  63.4677894  94.6749135
 116.6337334  49.8897175 101.7541712 115.7200414  50.1201402 101.9223919
 117.0630435  49.9735619 102.6055744 116.4043792  58.0787067 104.2541606
 115.7515242  58.3262974 103.5994058 116.7824172  57.2651205 103.9204083
 113.3650966  68.1146760  98.3569776 113.5473361  67.2968416  98.8197528
 114.1883952  68.3314452  97.9194666 113.6993132  67.0414945  95.6184824
 114.2280898  66.5307400  95.0054987 113.9621351  66.7257475  96.4830357
 112.4531365  58.8206878 110.7407643 111.7772002  58.7201007 111.4110018
 113.2758999  58.6646091 111.2043640 104.2010224  65.0578814 103.3620158
 104.7863661  64.3122502 103.4948062 104.0035063  65.3682771 104.2456822
 107.0548880  68.0930062  98.3782600 106.3859255  68.5776189  97.8946640
 106.9161749  68.3399282  99.2925979  98.7927879  57.6284414 102.0824601
  98.8311979  57.0948005 102.8761719  98.2868172  57.1019620 101.4635578
 111.1954148  70.1273805 104.9765259 111.7472456  70.2905427 105.7414344
 111.5360342  70.7178243 104.3045284 106.1718641  52.4748955 105.5787143
 106.2359968  53.3363786 105.1664541 106.1085762  51.8622957 104.8459502
 105.6470914  54.5472088 109.2260178 106.2742953  54.1649165 109.8397702
 104.7898833  54.3286289 109.5915870 116.0465022  64.9535063 110.8313913
 116.5904926  65.5665021 110.3368868 115.4651867  65.5114641 111.3480926
 102.4236457  56.3548517  95.1578532 102.7189898  55.4459195  95.1045586
 101.5224492  56.3336256  94.8359535 114.3322535  68.0755781 101.9628941
 114.2073675  67.2745521 101.4539886 114.9901627  68.5701974 101.4742911
 105.9530704  54.4304513 101.1406081 105.2317289  55.0440481 101.0013554
 106.7423959  54.9662278 101.0622727 116.3957444  65.8764801 103.5908491
 115.4487779  65.7570152 103.5186818 116.7440217  64.9887299 103.6734752
 108.7557017  51.7658940 107.4146733 109.2791419  52.0121236 108.1773042
 108.5369350  52.5978975 106.9949870 104.1524298  54.0362614  95.2817858
 103.8237004  53.1559993  95.0992964 104.5063669  53.9810283  96.1694247
 113.4003877  65.6717517  99.7912843 113.2528840  64.7434224  99.9720413
 114.2257371  65.6937608  99.3069918 107.2666121  54.3235584  95.6493335
 107.6062194  54.8521505  94.9271944 107.7138242  54.6615990  96.4251902
 117.0037999  66.4946076 100.8777716 117.9284546  66.2888937 100.7402167
 116.8353302  66.2462477 101.7867057 109.9609562  52.7072635 105.0996403
 109.6206383  51.9080448 105.5017083 109.2548568  53.0074346 104.5273237
 110.6126034  49.7921947 103.5523726 111.4352103  49.3182425 103.4302617
 110.8564098  50.5712431 104.0522413 109.2534269  52.8210206  93.8486628
 109.9742631  53.1991458  93.3450345 108.6299573  53.5399082  93.9521606
 113.3965391  53.5255355  94.7844960 113.6129006  54.4079993  94.4833789
 112.9159459  53.1341568  94.0550602 108.1364613  56.4841068 101.3615705
 107.9909194  56.7981371 102.2539987 107.6589816  57.1025968 100.8086604
 109.9960996  53.4743616 101.4096595 109.9822564  52.5784709 101.0728893
 110.7133424  53.4814280 102.0434881 111.8487126  53.9080956 103.4549722
 111.5904904  54.8298027 103.4534052 111.3172167  53.5111391 104.1450186
 116.7933315  67.0131743  96.2339807 116.9670193  66.4478166  95.4813660
 117.2862206  67.8132638  96.0519297 102.6110275  59.0246412 104.3003366
 102.0663743  59.8006220 104.4323641 103.4889625  59.3717217 104.1422488
 109.3997892  52.3557996  96.6784165 109.5213803  51.4274642  96.8775052
 109.1099934  52.3696682  95.7662480 112.2689082  50.0412907  99.8150885
 112.2910779  50.1052240  98.8602864 112.6857141  49.2017415 100.0091391
 122.6472706  59.7768166  97.8530107 123.0903852  59.0275491  97.4549230
 121.7699217  59.7678302  97.4703839 117.7808488  66.3298508  93.3336706
 118.4759392  66.9505200  93.5524020 118.1231638  65.4793859  93.6089084
 103.3976297  58.1516309 107.1933523 102.6558033  58.2998944 107.7798153
 103.0769041  58.4124574 106.3300272 119.6799911  63.7798213  94.8624036
 120.2051235  64.1185486  94.1373356 119.5922263  62.8445228  94.6787171
 111.3419959  67.6932287 106.9913913 111.6507086  67.4481434 107.8636613
 112.1395441  67.8978925 106.5032783 111.3640571  69.8470196  99.2219290
 110.9245562  69.3546575  99.9152146 112.1148688  69.3043164  98.9811365
 103.8432910  66.0381737  99.2243918 104.6690930  65.7385509  98.8442561
 103.4926962  65.2689360  99.6733706 108.8114444  65.3908205 101.2941591
 108.1894453  64.7278911 100.9943819 109.4819311  65.4169337 100.6115239
 102.0441516  63.9568064 100.1832851 101.2073424  63.5290238 100.0016853
 102.0165161  64.1500507 101.1203642 108.8838971  53.8689994 110.8874097
 108.9327127  54.7452116 110.5051867 109.4261485  53.3267387 110.3145741
 119.3693817  64.4131117 110.1675234 118.5789361  64.3955256 109.6279734
 119.1327171  64.9519410 110.9224271 119.4891692  61.2623583 107.4807963
 119.5389697  61.0973591 108.4223486 119.3805615  60.3950842 107.0905844
 108.3727951  63.9412129  94.7700052 108.5216071  64.6247593  94.1166725
 109.1794394  63.9217219  95.2849508 116.7795454  57.2454511 108.7967270
 117.6805317  57.1060976 108.5051267 116.8543429  57.4108966 109.7365447
 111.1138260  54.6221366 107.6420456 110.2441569  54.9154932 107.3703045
 111.3497740  55.2061811 108.3627720 120.9909889  63.6820525 107.7249984
 120.6994697  64.0450505 108.5613445 120.3782020  62.9687533 107.5463317
 122.1905571  61.2473404 100.2452555 123.0252462  61.6863208 100.4090115
 122.3264700  60.7712058  99.4260800 119.2397077  58.8053139 106.1930042
 119.7151199  58.9980786 105.3848894 118.3162642  58.8612325 105.9473426
 106.1280584  59.9677306  95.7761121 105.8826625  59.0639636  95.9741331
 106.2976498  59.9694457  94.8340599 113.8177293  50.8400983 105.1585876
 114.3359237  51.5762010 104.8332365 113.4632426  51.1464976 105.9932635
 105.3976231  55.7005664  93.2747282 104.7045476  55.7750019  92.6187318
 105.1527983  54.9366008  93.7968799 114.0689888  47.2601265 100.6786773
 114.3491641  46.5924454 101.3047199 114.8540495  47.4530361 100.1661437
 111.8723356  66.4360259  92.2411799 111.2997323  67.0550446  91.7882271
 112.4456150  66.9859621  92.7751721 117.9398746  55.6818899 104.4258348
 118.8916169  55.7816997 104.4470572 117.7702196  54.8897168 104.9356432
 115.9613125  52.7674483 104.6117749 115.3663058  53.0479495 103.9164238
 115.6762822  53.2568384 105.3834490 115.0920616  66.7197409  93.3720382
 116.0251289  66.6542971  93.5753257 115.0043829  67.5553676  92.9134914
 117.7208633  66.0363280  90.3324329 117.6422264  65.7023143  91.2260087
 118.5418299  66.5285048  90.3315801 120.4186824  58.9025019 103.5400648
 120.3863144  57.9641020 103.7260332 121.0287447  58.9809056 102.8066473
 112.2570155  57.7721072  89.5827852 113.2029259  57.6427280  89.6516270
 111.8784400  57.0335734  90.0597280 120.5681312  55.6936062 103.5858931
 120.0520361  54.9094519 103.3988860 121.4521261  55.3654779 103.7505450
 118.2292039  49.4377078  99.5454744 118.0316860  49.1292166 100.4298076
 118.8391745  50.1638717  99.6752673 126.2363374  59.9641026 102.6806685
 126.9666762  59.7026314 103.2414388 125.6270319  59.2269748 102.7208752
 124.3178671  58.1048888 103.2781136 123.5911834  57.9704853 102.6697627
 123.9025958  58.4125717 104.0837854 112.1408847  61.8238818 111.0428509
 113.0611857  62.0017417 111.2368555 112.1058430  60.8794864 110.8908208
 110.4413072  55.6971048  89.5182737 109.5344527  55.4004161  89.5945451
 110.7189053  55.4000867  88.6517023 101.3591012  57.0177412  99.9681783
 101.0393796  56.1642720  99.6756157 100.8124440  57.2325990 100.7239751
 105.1370920  59.7339853 103.6851290 105.3556929  60.6656961 103.7039324
 105.5496693  59.3747827 104.4706094 112.0575137  50.2407938  95.6726978
 111.2475866  49.8955023  96.0482224 112.7459554  49.9315482  96.2614590
 113.9865686  49.3185985  97.2951275 114.5396724  49.7381438  97.9541298
 114.2235772  48.3921733  97.3374231 110.0098785  55.3073059 113.0754039
 109.9095512  56.2567416 113.0066130 109.7920327  54.9791297 112.2030109
 109.2111856  52.5557984  89.6594716 110.0731020  52.8812882  89.9190534
 109.3962201  51.7689480  89.1467782 101.2279272  60.6380323 101.9374905
 100.5342744  60.2234276 101.4244859 101.9752263  60.6800860 101.3408324
 117.3644493  51.4286510  96.8029939 116.7843162  52.0871314  96.4207992
 117.0980426  50.6063855  96.3917357 115.8148059  50.8291568  99.0051260
 116.3147838  50.9408102  98.1965578 116.4583667  50.5252621  99.6452068
 109.8730055  58.7370197 111.8919100 109.3897137  59.5370558 112.0982990
 109.9590994  58.7478142 110.9386544 103.1416015  60.5698577  99.8140920
 103.1186703  60.6686264  98.8622803 103.4516651  61.4163728 100.1358086
 105.8003393  62.6274732 103.9287534 106.7546646  62.5958674 103.8617466
 105.6015916  62.1665356 104.7437760 106.3902775  61.1975848 106.4958332
 107.2095664  61.6919927 106.5193169 106.6639582  60.2807816 106.4675899
 116.1469371  53.5886600  95.8586287 115.2595226  53.8736251  95.6406482
 116.5623360  53.4280364  95.0113564 119.4983907  53.6133121  99.5740627
 120.2744297  54.1029574  99.8465244 118.7732041  54.0391176 100.0312496
 121.9356466  54.3260741 100.6314567 122.5300956  54.0856477  99.9207876
 122.0083049  53.6067871 101.2588104 104.1553621  68.1694352 100.9457732
 104.0208089  67.4094753 100.3795730 103.7385684  68.8935251 100.4786521
 115.2912584  63.3531275  89.9534307 115.9948434  63.5581278  90.5691963
 114.5675233  63.9208037  90.2183391 116.1210395  59.1041136  96.0736578
 116.0645596  59.5609688  95.2344210 116.6738737  58.3431821  95.8959420
 119.9315201  54.8930868  96.8986697 119.6752135  54.4927504  97.7294905
 119.3068069  55.6074662  96.7736836 124.2427538  57.6326942  99.4057988
 123.6827096  57.7020131 100.1789551 123.6371042  57.4567926  98.6857485
 107.3122747  69.0663669 101.1576175 107.1955131  70.0109101 101.0554865
 106.4915193  68.7637230 101.5461974 117.1999282  63.7913804  92.0032767
 118.0344886  63.3595003  91.8210242 117.0383625  63.6195818  92.9309662
 116.8545174  60.2945918  93.3689107 116.7993978  60.1290189  92.4277551
 116.2291229  61.0021951  93.5251296 101.6437689  55.5313982 107.1950529
 102.2896552  55.0212936 107.6837754 101.4354840  56.2682664 107.7693954
 114.1691081  62.5994830 112.6942670 115.0382241  62.7735482 112.3329304
 113.6897833  63.4189246 112.5718399 110.1641299  49.7954027  92.9474425
 110.1519969  50.7395867  93.1042696 111.0564721  49.6124172  92.6533886
 108.3377261  69.7191931 104.3732103 109.2404508  69.7515541 104.6898598
 108.1114631  68.7892381 104.3878439 110.0930863  68.4722917 101.0342182
 109.1426494  68.4724779 100.9206554 110.3963349  67.7255652 100.5178216
 113.9793419  46.3896803  97.2020362 113.2125815  45.8355290  97.3477044
 114.3904124  46.4618672  98.0634514 105.9835180  52.6781599 111.2925543
 106.8466641  52.3218404 111.5028868 105.4100591  52.3395494 111.9800947
 125.8283557  74.3083455 102.0987944 126.4661967  74.1890203 101.3951284
 125.7104400  75.2564299 102.1575896 122.6373263  74.2610884 102.0349469
 122.2991775  74.1451948 101.1470004 123.5063031  73.8602049 102.0150475
 118.4960079  76.1146360  98.0246360 117.9324944  76.0236297  97.2562648
 118.3812474  75.2946264  98.5048852 123.1193046  75.4145735 107.9935674
 123.1081687  75.0198534 107.1216178 123.2813686  74.6811808 108.5869446
 116.0424511  77.6097552 100.8630580 116.8345803  77.2688376 100.4476880
 116.2821161  77.7192527 101.7832734 124.0759638  79.7817328  93.3360825
 123.4247617  80.3671408  92.9494839 124.8704000  80.3123523  93.3955862
 118.0015265  76.8706465  93.7347959 118.7746141  76.3235452  93.5960835
 118.3540664  77.7350714  93.9462421 119.8400307  78.1982847 106.9414858
 119.5490173  79.1028478 106.8261525 120.4757292  78.2399375 107.6558928
 120.7656514  75.5759696 103.5316218 121.3620086  75.3515718 102.8173181
 120.8231486  74.8344441 104.1341666 120.3381542  73.0299131  91.3666409
 120.5907063  72.5080652  90.6049872 119.4006102  72.8665276  91.4693093
 125.3824825  72.0334909  99.1741152 126.1687915  71.6154332  98.8231569
 125.6463530  72.9381001  99.3422801 125.5534903  77.4707760  93.8729809
 124.9180736  77.5442386  94.5850714 125.2232309  78.0601358  93.1948888
 130.7833252  71.9710143 100.0774131 131.5158424  71.4009359 100.3111960
 130.0272608  71.5831743 100.5180636 120.0577831  74.9327237  93.5690784
 119.9414089  74.2572140  94.2371868 120.1680091  74.4459611  92.7522937
 122.4009372  74.3937384  97.2737473 122.0367579  73.8668005  97.9850395
 123.2576488  74.0035853  97.1003959 128.3058673  65.6831717 104.5368739
 127.9741998  66.5527128 104.3129954 127.7104286  65.3668001 105.2162770
 122.0414859  69.4227284  92.2698822 122.2089261  70.2907520  92.6369293
 121.8512028  69.5854565  91.3460111 124.7990192  77.8844263 103.9364652
 124.4990915  78.7869301 103.8280459 124.4541252  77.6176446 104.7885805
 118.2502674  74.3358059  99.9701357 117.3253170  74.2034274 100.1779048
 118.4987087  75.1152279 100.4671299 128.1987336  70.4026803 101.6162089
 127.2904213  70.3342211 101.3220850 128.1474932  70.8798748 102.4443915
 122.0204080  71.8784941  93.2545489 121.9003705  72.3241992  94.0930969
 121.3256668  72.2270259  92.6959027 115.6111485  73.9791333 100.8045146
 115.7403866  74.2325812 101.7184557 114.9308936  74.5719041 100.4849801
 119.7810972  84.6488583  96.9035620 119.7035002  85.5996408  96.9824100
 119.1772616  84.3034455  97.5610546 122.2728202  71.8216448 109.5596987
 121.4961536  72.3810369 109.5499851 122.9118765  72.3073231 110.0811857
 130.0648983  68.6043241 103.3939963 129.4223363  68.8975774 102.7479758
 129.5603911  68.4896162 104.1993160 127.7189146  72.3506414  94.0825823
 128.6307002  72.5833801  93.9073520 127.2098793  72.9343459  93.5200901
 120.5274574  74.6301902 109.1214954 121.2689259  75.1686946 108.8449777
 119.8211560  75.2568190 109.2786506 126.0029914  76.7731042 107.7187115
 126.4113270  76.3313453 106.9741748 125.2807175  76.1983670 107.9721308
 122.3560984  71.7103649 105.0920672 123.2022179  72.1343063 105.2355321
 122.2959622  71.0537273 105.7859235 126.3258728  77.3332233 101.4739404
 125.6967591  77.4977947 100.7715472 125.9384391  77.7473842 102.2450368
 130.2047960  78.2686671  98.8283768 129.5198999  78.6485572  98.2780801
 130.2891810  78.8781997  99.5615716 125.5060429  69.3708017 106.7501846
 125.2621361  70.1250078 106.2136121 125.7820360  69.7493365 107.5849093
 127.4598892  75.9146630 105.4279111 127.6715787  76.5578390 104.7513492
 127.4128640  75.0808946 104.9601041 125.0625121  68.5264450 102.3315684
 124.2009600  68.8245704 102.6232421 125.0887556  68.7434849 101.3996716
 121.8786690  77.0706641  98.7389489 122.3425036  77.3494344  97.9494112
 121.6143488  76.1690086  98.5562580 118.7710771  76.6178122 101.6769252
 119.3412128  77.0465391 101.0386737 119.3618883  76.3360707 102.3753438
 120.8155576  73.1929793  95.5479054 121.5179620  73.6450837  96.0152981
 120.4836205  72.5513612  96.1758947 119.2635938  71.7841550 109.9230264
 118.6334599  72.4657831 110.1565661 119.1572026  71.6724632 108.9783402
 114.5580910  71.4513346 100.8496188 113.7679964  71.7070874 100.3736298
 115.0492158  72.2661684 100.9548228 128.5744720  78.7918585 103.6001469
 129.3962164  78.3898772 103.3184150 128.5707123  78.6886819 104.5517585
 116.5095656  71.8157925  97.8079665 115.7126819  71.9276619  98.3263160
 116.2821248  72.1544577  96.9420555 122.3401323  78.3402628 105.7562179
 122.4045756  78.8023036 106.5920351 121.6312247  77.7099993 105.8844489
 112.8418613  71.7043836 103.2811179 113.0926652  72.5890846 103.5468755
 113.3778162  71.5248438 102.5086271 136.6650713  75.1357334  99.9486440
 135.9114421  74.5664732  99.7930445 136.7998254  75.1019998 100.8957075
 122.0549341  80.0070736  95.6241160 121.9195016  80.8522272  96.0526007
 122.5959154  80.2090014  94.8607093 118.5416681  66.0862316 112.2855515
 118.1483626  65.5328514 112.9603159 119.3582821  66.3972894 112.6762032
 115.5078738  77.5246174  96.1969085 116.0203259  78.3189424  96.3474649
 116.1601451  76.8272464  96.1302686 117.3173623  80.6411930  98.2791838
 117.4940251  81.5629895  98.0912822 118.1130457  80.3270349  98.7086218
 121.4584642  67.5020195 109.8775771 122.1994355  68.1027348 109.7980234
 121.6902564  66.7597833 109.3193814 116.6025980  72.6876562 108.1554001
 116.4879495  71.7861819 108.4561100 115.7470497  72.9340259 107.8038818
 123.6817817  80.6294302 109.7541502 123.2381672  79.8430681 109.4362406
 124.3435031  80.8173453 109.0885392 118.4404939  82.1590104 104.2802180
 118.9912364  82.0307167 103.5079174 117.6016414  82.4584993 103.9297073
 125.7799055  80.9097102 107.7822903 125.7617531  81.7305983 107.2903172
 126.7018976  80.7851178 108.0073044 122.2372110  78.4241232 108.6246411
 122.7700446  77.6629520 108.3945719 121.7086191  78.1314884 109.3670566
 125.4041805  63.5301298 104.1540053 125.0606074  64.4202939 104.0779164
 125.7720767  63.3402955 103.2909638 113.4727655  75.8534828  96.9728655
 114.3102877  76.2631837  96.7562363 113.6505923  74.9134270  96.9428849
 125.3692087  73.5209909  92.6612488 124.8538711  74.2914514  92.9000876
 125.0969396  72.8475045  93.2845550 122.9539198  68.3659610  97.7197726
 122.0980795  67.9766460  97.5403365 123.3666150  68.4451570  96.8597512
 124.4838345  65.9005953 102.1189286 123.9803141  65.8636088 101.3057092
 124.7768952  66.8098696 102.1785943 120.7281231  65.9844683 101.1255468
 121.5934228  65.7887491 100.7661357 120.7958740  65.7555034 102.0524825
 130.3426361  76.2742264  94.5965662 129.5655804  75.9353423  94.1520824
 131.0217842  76.2794887  93.9220627 125.1578390  71.3937001  94.4872269
 124.8528526  71.7083150  95.3382412 126.1108833  71.4718421  94.5299602
 123.6024822  77.5527224  96.1365223 123.0746184  76.8179984  95.8238461
 123.1012325  78.3301901  95.8905192 128.5817668  75.7476245 101.2532270
 127.9241343  76.4375506 101.3412398 129.3858068  76.1372677 101.5966256
 118.3343550  68.2146891  98.4971835 118.9087302  67.9922072  97.7645028
 118.9214532  68.2835585  99.2500436 127.3923127  74.1020617  99.3036211
 127.9055009  74.7350609  99.8057921 128.0424351  73.5021813  98.9379571
 118.6613137  70.2451352  92.5167720 117.8250449  70.5826038  92.8376995
 118.5217907  70.1100331  91.5794857 120.6366218  65.0888139  97.2246904
 119.9830630  64.7737157  96.6003519 120.5946692  64.4663880  97.9506727
 121.7477423  75.3707435  89.1400196 120.8404484  75.1396688  89.3391345
 122.2448454  74.5745054  89.3274178 124.6545501  84.0804942  92.0596882
 123.9807200  84.3836639  92.6681840 125.0411323  84.8834022  91.7102340
 123.8703958  71.5770073 101.5494552 122.9526519  71.7985020 101.3916240
 124.2864102  71.6516384 100.6906259 124.6539006  72.9761489  96.6797232
 125.4010825  73.4882886  96.3704354 124.9230595  72.6545541  97.5401626
 122.9265656  75.4720029  93.6624186 122.0176875  75.1879062  93.7596656
 122.9560740  75.8919108  92.8027493 128.1584923  79.0826619  97.4315354
 127.7047250  78.2417529  97.4880544 127.5278890  79.7188017  97.7690134
 127.1017843  70.0118605  98.6616021 126.3640600  69.4995991  98.9926264
 127.3544616  69.5718987  97.8499298 126.6017863  80.9203116  98.3665172
 126.8940837  81.4808173  97.6477538 127.1116483  81.2131677  99.1218331
 127.2029470  62.7894857  99.2557791 127.5088347  61.9292220  98.9683706
 127.9282075  63.3812477  99.0556785 113.4953826  73.1925544  97.6439389
 113.2978226  72.5994904  96.9190455 112.9400490  72.8877754  98.3615327
 121.4750550  73.0848650  99.7633982 121.5299160  72.1322486  99.6876458
 120.6641752  73.2408089 100.2475280 122.6241744  77.0128773  91.0012265
 122.1861174  76.2964632  90.5417902 123.3652185  77.2404888  90.4397356
 119.4142910  71.7025710  97.5224361 118.6010775  72.0019880  97.9289553
 119.9101904  71.3081399  98.2398843 121.5651488  81.6983467  99.4558625
 121.5227667  81.9244313  98.5267157 122.4814187  81.4646841  99.6044426
 125.0117122  72.1667534 106.3539255 125.3666509  72.3939007 107.2133720
 125.6589253  72.4985911 105.7316510 130.7414859  75.2885970  97.0588584
 130.6032757  75.4787566  96.1309773 130.3851077  76.0505353  97.5156635
 118.9056985  69.2744065 103.1385596 119.5456364  69.1332824 102.4408559
 118.0734515  68.9878579 102.7624198 130.7684238  77.3562497 102.0699855
 131.2020745  77.2637786 102.9182909 131.4815819  77.3319998 101.4319871
 119.6817289  78.5746496  99.2520588 120.4757887  78.0796816  99.0503163
 118.9708981  78.0464359  98.8888294 124.5012133  80.9564591 103.6032956
 124.5549155  81.5255528 104.3710672 123.6326914  81.1266476 103.2386993
 115.9900052  72.7189577  95.3280341 115.0597640  72.6574033  95.5450303
 116.0857524  72.1965530  94.5316982 115.9085601  69.2444390  97.9158582
 116.1692418  70.1589724  97.8067743 116.7302773  68.7768833  98.0655195
 117.3810526  70.6582147 105.0857407 118.0533580  70.4499510 104.4370056
 116.5540313  70.4604233 104.6462639 131.6299788  77.3986198 104.6032740
 131.8235678  78.3032008 104.8492015 131.5300406  76.9393617 105.4371325
 123.2836098  67.2844088 107.1023068 122.6364013  67.9834038 107.0087544
 124.0537114  67.7180232 107.4699316 126.6914896  77.5492941 110.1773621
 126.5400403  77.3203492 109.2603705 126.6819576  78.5063542 110.1904966
 123.4600233  75.1224853 105.1619887 124.3892293  75.2736013 104.9888855
 123.0391263  75.2108874 104.3068534 122.2588565  79.1475518 102.9318425
 122.1199650  78.7794302 103.8044363 121.4703161  79.6623157 102.7602383
 122.8536717  84.2484614  94.2743962 123.0288472  83.7772657  95.0889584
 122.1669505  84.8750380  94.5025222 123.8093780  78.5257120 100.3207263
 123.4743612  78.4857890 101.2164913 123.3097725  77.8601836  99.8477673
 117.7838024  73.9324750 105.8459844 117.6457822  73.2004989 106.4471383
 118.6942947  73.8433651 105.5644032 126.7452971  75.8713155  90.5944323
 126.1282142  75.1459983  90.4977375 126.2769460  76.6322515  90.2511397
 120.4120324  73.6444710 105.3343524 121.1219943  73.0037902 105.2930142
 120.3689633  73.8957605 106.2569704 128.4007103  80.5812063 108.2550103
 128.3419649  79.8971283 107.5880686 128.8026621  81.3231053 107.8030729
 119.1249258  70.6309928 107.1539163 118.5886615  70.1800666 107.8060760
 118.5365967  70.7655836 106.4109628 117.4197802  87.3973977 101.0483822
 117.6594400  88.0292501 101.7262840 116.5766998  87.0462017 101.3349181
 118.5351517  70.0898579  89.7165627 117.6580984  69.9687380  89.3527874
 119.0109270  69.2984657  89.4644515 128.4024510  78.5451647 106.4864083
 127.5151289  78.2077569 106.6090481 128.9723061  77.8134678 106.7232848
 110.0553657  74.8775739  99.8107134 110.7424697  74.5637469  99.2228149
 109.9001786  75.7817103  99.5374385 114.8588380  69.7665935 104.2392158
 114.7746568  69.1591605 103.5042568 114.0371086  70.2574954 104.2401654
 121.9325664  83.2053099 103.4525326 121.8595835  84.0108071 103.9644630
 121.4903057  83.4045065 102.6273347 121.7215443  82.4424869  96.9628147
 120.9382965  82.9846550  97.0566372 122.4208188  82.9598849  97.3622389
 125.0312093  68.2519499  99.6062353 125.5280793  67.4989461  99.2863423
 124.2599075  68.2883816  99.0405562 132.8841851  73.9559864 101.2480644
 132.8731727  74.8384580 100.8774577 132.0159230  73.6031415 101.0535181
 124.3924347  83.1039933 105.6083484 125.1052319  83.7387398 105.5359386
 123.9014376  83.2003799 104.7923486 126.1141874  77.0091186  97.1800776
 125.1798153  77.1292649  97.0105480 126.2918543  76.1063653  96.9160786
 121.6147062  70.3936882  99.3334037 121.2444850  69.8407922 100.0214943
 122.1106155  69.7895015  98.7809037 129.5014425  72.8508505  97.7150810
 129.9674878  73.6836497  97.6411113 129.9521926  72.3853487  98.4196069
 119.4436261  80.8534377 106.4289055 120.1445720  81.4870860 106.5818449
 118.9731376  81.1949108 105.6684695 127.5690657  79.1952327  94.7136962
 127.8450500  79.0808921  95.6230836 126.6995155  78.7969812  94.6749135
 127.4731088  65.2189092 101.7541712 126.5594168  65.4493319 101.9223919
 127.9024190  65.3027536 102.6055744 127.2437547  73.4078984 104.2541606
 126.5908997  73.6554892 103.5994058 127.6217927  72.5943123 103.9204083
 124.2044721  83.4438678  98.3569776 124.3867115  82.6260333  98.8197528
 125.0277707  83.6606370  97.9194666 124.5386886  82.3706863  95.6184824
 125.0674653  81.8599317  95.0054987 124.8015106  82.0549393  96.4830357
 123.2925120  74.1498795 110.7407643 122.6165757  74.0492925 111.4110018
 124.1152754  73.9938009 111.2043640 115.0403979  80.3870732 103.3620158
 115.6257416  79.6414420 103.4948062 114.8428817  80.6974689 104.2456822
 117.8942634  83.4221979  98.3782600 117.2253009  83.9068107  97.8946640
 117.7555504  83.6691200  99.2925979 109.6321634  72.9576332 102.0824601
 109.6705733  72.4239923 102.8761719 109.1261926  72.4311538 101.4635578
 122.0347903  85.4565723 104.9765259 122.5866211  85.6197344 105.7414344
 122.3754096  86.0470161 104.3045284 117.0112396  67.8040873 105.5787143
 117.0753722  68.6655704 105.1664541 116.9479516  67.1914874 104.8459502
 116.4864668  69.8764005 109.2260178 117.1136707  69.4941083 109.8397702
 115.6292587  69.6578207 109.5915870 126.8858777  80.2826980 110.8313913
 127.4298681  80.8956939 110.3368868 126.3045622  80.8406559 111.3480926
 113.2630211  71.6840434  95.1578532 113.5583652  70.7751113  95.1045586
 112.3618247  71.6628174  94.8359535 125.1716290  83.4047698 101.9628941
 125.0467429  82.6037438 101.4539886 125.8295381  83.8993892 101.4742911
 116.7924458  69.7596431 101.1406081 116.0711044  70.3732399 101.0013554
 117.5817714  70.2954196 101.0622727 127.2351198  81.2056718 103.5908491
 126.2881534  81.0862070 103.5186818 127.5833971  80.3179217 103.6734752
 119.5950772  67.0950857 107.4146733 120.1185173  67.3413154 108.1773042
 119.3763105  67.9270892 106.9949870 114.9918053  69.3654532  95.2817858
 114.6630759  68.4851911  95.0992964 115.3457423  69.3102201  96.1694247
 124.2397632  81.0009435  99.7912843 124.0922594  80.0726142  99.9720413
 125.0651125  81.0229525  99.3069918 118.1059876  69.6527502  95.6493335
 118.4455948  70.1813423  94.9271944 118.5531996  69.9907908  96.4251902
 127.8431753  81.8237993 100.8777716 128.7678301  81.6180855 100.7402167
 127.6747057  81.5754395 101.7867057 120.8003317  68.0364552 105.0996403
 120.4600137  67.2372366 105.5017083 120.0942323  68.3366263 104.5273237
 121.4519789  65.1213865 103.5523726 122.2745858  64.6474343 103.4302617
 121.6957852  65.9004349 104.0522413 120.0928023  68.1502123  93.8486628
 120.8136386  68.5283376  93.3450345 119.4693327  68.8691000  93.9521606
 124.2359146  68.8547272  94.7844960 124.4522760  69.7371910  94.4833789
 123.7553213  68.4633486  94.0550602 118.9758367  71.8132986 101.3615705
 118.8302948  72.1273289 102.2539987 118.4983571  72.4317886 100.8086604
 120.8354750  68.8035534 101.4096595 120.8216319  67.9076627 101.0728893
 121.5527178  68.8106197 102.0434881 122.6880881  69.2372874 103.4549722
 122.4298659  70.1589944 103.4534052 122.1565921  68.8403308 104.1450186
 127.6327070  82.3423661  96.2339807 127.8063947  81.7770083  95.4813660
 128.1255961  83.1424556  96.0519297 113.4504029  74.3538330 104.3003366
 112.9057498  75.1298138 104.4323641 114.3283379  74.7009134 104.1422488
 120.2391646  67.6849914  96.6784165 120.3607557  66.7566560  96.8775052
 119.9493688  67.6988600  95.7662480 123.1082836  65.3704824  99.8150885
 123.1304533  65.4344157  98.8602864 123.5250895  64.5309333 100.0091391
 133.4866461  75.1060084  97.8530107 133.9297607  74.3567409  97.4549230
 132.6092971  75.0970220  97.4703839 128.6202242  81.6590425  93.3336706
 129.3153147  82.2797118  93.5524020 128.9625392  80.8085776  93.6089084
 114.2370051  73.4808226 107.1933523 113.4951787  73.6290862 107.7798153
 113.9162796  73.7416492 106.3300272 130.5193665  79.1090131  94.8624036
 131.0444989  79.4477404  94.1373356 130.4316018  78.1737146  94.6787171
 122.1813714  83.0224204 106.9913913 122.4900840  82.7773351 107.8636613
 122.9789196  83.2270843 106.5032783 122.2034326  85.1762114  99.2219290
 121.7639316  84.6838493  99.9152146 122.9542443  84.6335082  98.9811365
 114.6826665  81.3673655  99.2243918 115.5084685  81.0677427  98.8442561
 114.3320717  80.5981277  99.6733706 119.6508198  80.7200123 101.2941591
 119.0288207  80.0570828 100.9943819 120.3213065  80.7461255 100.6115239
 112.8835270  79.2859981 100.1832851 112.0467178  78.8582156 100.0016853
 112.8558915  79.4792425 101.1203642 119.7232726  69.1981911 110.8874097
 119.7720881  70.0744034 110.5051867 120.2655240  68.6559304 110.3145741
 130.2087571  79.7423034 110.1675234 129.4183115  79.7247173 109.6279734
 129.9720926  80.2811328 110.9224271 130.3285446  76.5915501 107.4807963
 130.3783451  76.4265508 108.4223486 130.2199370  75.7242760 107.0905844
 119.2121705  79.2704047  94.7700052 119.3609825  79.9539511  94.1166725
 120.0188149  79.2509137  95.2849508 127.6189209  72.5746429 108.7967270
 128.5199072  72.4352894 108.5051267 127.6937183  72.7400884 109.7365447
 121.9532014  69.9513284 107.6420456 121.0835323  70.2446850 107.3703045
 122.1891494  70.5353729 108.3627720 131.8303643  79.0112442 107.7249984
 131.5388451  79.3742423 108.5613445 131.2175774  78.2979451 107.5463317
 133.0299325  76.5765322 100.2452555 133.8646217  77.0155126 100.4090115
 133.1658454  76.1003975  99.4260800 130.0790831  74.1345057 106.1930042
 130.5544953  74.3272703 105.3848894 129.1556397  74.1904243 105.9473426
 116.9674338  75.2969224  95.7761121 116.7220380  74.3931554  95.9741331
 117.1370253  75.2986375  94.8340599 124.6571048  66.1692901 105.1585876
 125.1752992  66.9053927 104.8332365 124.3026181  66.4756894 105.9932635
 116.2369986  71.0297582  93.2747282 115.5439231  71.1041937  92.6187318
 115.9921737  70.2657925  93.7968799 124.9083642  62.5893183 100.6786773
 125.1885396  61.9216372 101.3047199 125.6934249  62.7822279 100.1661437
 122.7117111  81.7652177  92.2411799 122.1391078  82.3842364  91.7882271
 123.2849904  82.3151539  92.7751721 128.7792500  71.0110817 104.4258348
 129.7309923  71.1108915 104.4470572 128.6095951  70.2189086 104.9356432
 126.8006880  68.0966400 104.6117749 126.2056812  68.3771413 103.9164238
 126.5156577  68.5860301 105.3834490 125.9314370  82.0489327  93.3720382
 126.8645044  81.9834889  93.5753257 125.8437583  82.8845594  92.9134914
 128.5602387  81.3655197  90.3324329 128.4816019  81.0315061  91.2260087
 129.3812054  81.8576965  90.3315801 131.2580578  74.2316937 103.5400648
 131.2256898  73.2932937 103.7260332 131.8681202  74.3100973 102.8066473
 123.0963909  73.1012990  89.5827852 124.0423014  72.9719198  89.6516270
 122.7178154  72.3627652  90.0597280 131.4075067  71.0227980 103.5858931
 130.8914115  70.2386437 103.3988860 132.2915015  70.6946697 103.7505450
 129.0685794  64.7668996  99.5454744 128.8710615  64.4584084 100.4298076
 129.6785499  65.4930635  99.6752673 137.0757128  75.2932944 102.6806685
 137.8060517  75.0318232 103.2414388 136.4664074  74.5561666 102.7208752
 135.1572425  73.4340806 103.2781136 134.4305589  73.2996771 102.6697627
 134.7419712  73.7417635 104.0837854 122.9802602  77.1530736 111.0428509
 123.9005611  77.3309335 111.2368555 122.9452185  76.2086781 110.8908208
 121.2806826  71.0262966  89.5182737 120.3738282  70.7296079  89.5945451
 121.5582807  70.7292784  88.6517023 112.1984767  72.3469330  99.9681783
 111.8787551  71.4934638  99.6756157 111.6518195  72.5617908 100.7239751
 115.9764674  75.0631771 103.6851290 116.1950684  75.9948878 103.7039324
 116.3890448  74.7039745 104.4706094 122.8968892  65.5699856  95.6726978
 122.0869620  65.2246941  96.0482224 123.5853309  65.2607400  96.2614590
 124.8259440  64.6477903  97.2951275 125.3790479  65.0673356  97.9541298
 125.0629527  63.7213651  97.3374231 120.8492539  70.6364976 113.0754039
 120.7489266  71.5859333 113.0066130 120.6314082  70.3083215 112.2030109
 120.0505611  67.8849901  89.6594716 120.9124775  68.2104800  89.9190534
 120.2355955  67.0981397  89.1467782 112.0673027  75.9672241 101.9374905
 111.3736498  75.5526194 101.4244859 112.8146018  76.0092778 101.3408324
 128.2038247  66.7578428  96.8029939 127.6236916  67.4163232  96.4207992
 127.9374180  65.9355772  96.3917357 126.6541814  66.1583485  99.0051260
 127.1541592  66.2700020  98.1965578 127.2977422  65.8544538  99.6452068
 120.7123810  74.0662115 111.8919100 120.2290891  74.8662475 112.0982990
 120.7984749  74.0770060 110.9386544 113.9809769  75.8990495  99.8140920
 113.9580457  75.9978182  98.8622803 114.2910406  76.7455646 100.1358086
 116.6397147  77.9566650 103.9287534 117.5940401  77.9250592 103.8617466
 116.4409671  77.4957274 104.7437760 117.2296529  76.5267766 106.4958332
 118.0489418  77.0211845 106.5193169 117.5033337  75.6099734 106.4675899
 126.9863125  68.9178518  95.8586287 126.0988980  69.2028169  95.6406482
 127.4017114  68.7572282  95.0113564 130.3377661  68.9425039  99.5740627
 131.1138052  69.4321492  99.8465244 129.6125796  69.3683093 100.0312496
 132.7750220  69.6552658 100.6314567 133.3694711  69.4148394  99.9207876
 132.8476804  68.9359789 101.2588104 114.9947376  83.4986269 100.9457732
 114.8601844  82.7386670 100.3795730 114.5779438  84.2227169 100.4786521
 126.1306339  78.6823193  89.9534307 126.8342189  78.8873195  90.5691963
 125.4068988  79.2499955  90.2183391 126.9604149  74.4333054  96.0736578
 126.9039350  74.8901606  95.2344210 127.5132492  73.6723739  95.8959420
 130.7708955  70.2222786  96.8986697 130.5145889  69.8219422  97.7294905
 130.1461823  70.9366580  96.7736836 135.0821293  72.9618859  99.4057988
 134.5220851  73.0312049 100.1789551 134.4764796  72.7859844  98.6857485
 118.1516502  84.3955586 101.1576175 118.0348886  85.3401019 101.0554865
 117.3308948  84.0929148 101.5461974 128.0393036  79.1205722  92.0032767
 128.8738640  78.6886921  91.8210242 127.8777379  78.9487736  92.9309662
 127.6938928  75.6237835  93.3689107 127.6387732  75.4582107  92.4277551
 127.0684984  76.3313868  93.5251296 112.4831443  70.8605900 107.1950529
 113.1290307  70.3504854 107.6837754 112.2748594  71.5974581 107.7693954
 125.0084836  77.9286747 112.6942670 125.8775995  78.1027399 112.3329304
 124.5291587  78.7481164 112.5718399 121.0035054  65.1245944  92.9474425
 120.9913724  66.0687784  93.1042696 121.8958476  64.9416090  92.6533886
 119.1771016  85.0483848 104.3732103 120.0798263  85.0807458 104.6898598
 118.9508386  84.1184299 104.3878439 120.9324618  83.8014835 101.0342182
 119.9820249  83.8016696 100.9206554 121.2357104  83.0547569 100.5178216
 124.8187173  61.7188721  97.2020362 124.0519569  61.1647208  97.3477044
 125.2297878  61.7910590  98.0634514 116.8228934  68.0073517 111.2925543
 117.6860396  67.6510322 111.5028868 116.2494345  67.6687412 111.9800947
 136.6677311  89.6375373 102.0987944 137.3055721  89.5182120 101.3951284
 136.5498154  90.5856217 102.1575896 133.4767018  89.5902801 102.0349469
 133.1385529  89.4743866 101.1470004 134.3456786  89.1893966 102.0150475
 129.3353833  91.4438278  98.0246360 128.7718698  91.3528215  97.2562648
 129.2206228  90.6238182  98.5048852 133.9586801  90.7437653 107.9935674
 133.9475441  90.3490451 107.1216178 134.1207440  90.0103726 108.5869446
 126.8818265  92.9389469 100.8630580 127.6739557  92.5980294 100.4476880
 127.1214915  93.0484444 101.7832734 134.9153392  95.1109245  93.3360825
 134.2641372  95.6963326  92.9494839 135.7097755  95.6415440  93.3955862
 128.8409019  92.1998383  93.7347959 129.6139895  91.6527370  93.5960835
 129.1934418  93.0642632  93.9462421 130.6794062  93.5274765 106.9414858
 130.3883928  94.4320396 106.8261525 131.3151046  93.5691292 107.6558928
 131.6050269  90.9051613 103.5316218 132.2013841  90.6807636 102.8173181
 131.6625240  90.1636359 104.1341666 131.1775297  88.3591049  91.3666409
 131.4300818  87.8372570  90.6049872 130.2399856  88.1957194  91.4693093
 136.2218580  87.3626827  99.1741152 137.0081669  86.9446250  98.8231569
 136.4857284  88.2672919  99.3422801 136.3928657  92.7999677  93.8729809
 135.7574490  92.8734304  94.5850714 136.0626064  93.3893276  93.1948888
 141.6227007  87.3002060 100.0774131 142.3552179  86.7301277 100.3111960
 140.8666363  86.9123661 100.5180636 130.8971586  90.2619155  93.5690784
 130.7807844  89.5864058  94.2371868 131.0073846  89.7751529  92.7522937
 133.2403127  89.7229302  97.2737473 132.8761334  89.1959923  97.9850395
 134.0970243  89.3327771  97.1003959 139.1452427  81.0123634 104.5368739
 138.8135752  81.8819045 104.3129954 138.5498041  80.6959918 105.2162770
 132.8808614  84.7519201  92.2698822 133.0483016  85.6199438  92.6369293
 132.6905783  84.9146483  91.3460111 135.6383947  93.2136180 103.9364652
 135.3384670  94.1161219 103.8280459 135.2935006  92.9468364 104.7885805
 129.0896428  89.6649977  99.9701357 128.1646925  89.5326191 100.1779048
 129.3380841  90.4444196 100.4671299 139.0381091  85.7318720 101.6162089
 138.1297968  85.6634129 101.3220850 138.9868686  86.2090665 102.4443915
 132.8597835  87.2076859  93.2545489 132.7397460  87.6533910  94.0930969
 132.1650423  87.5562177  92.6959027 126.4505239  89.3083251 100.8045146
 126.5797620  89.5617730 101.7184557 125.7702691  89.9010959 100.4849801
 130.6204727  99.9780501  96.9035620 130.5428756 100.9288326  96.9824100
 130.0166370  99.6326373  97.5610546 133.1121956  87.1508366 109.5596987
 132.3355290  87.7102286 109.5499851 133.7512519  87.6365149 110.0811857
 140.9042737  83.9335159 103.3939963 140.2617117  84.2267692 102.7479758
 140.3997666  83.8188079 104.1993160 138.5582901  87.6798332  94.0825823
 139.4700757  87.9125719  93.9073520 138.0492548  88.2635376  93.5200901
 131.3668329  89.9593819 109.1214954 132.1083013  90.4978863 108.8449777
 130.6605314  90.5860108 109.2786506 136.8423668  92.1022960 107.7187115
 137.2507024  91.6605370 106.9741748 136.1200930  91.5275587 107.9721308
 133.1954738  87.0395567 105.0920672 134.0415934  87.4634980 105.2355321
 133.1353376  86.3829191 105.7859235 137.1652483  92.6624151 101.4739404
 136.5361345  92.8269865 100.7715472 136.7778145  93.0765760 102.2450368
 141.0441715  93.5978588  98.8283768 140.3592753  93.9777490  98.2780801
 141.1285564  94.2073915  99.5615716 136.3454184  84.6999935 106.7501846
 136.1015116  85.4541996 106.2136121 136.6214114  85.0785283 107.5849093
 138.2992646  91.2438547 105.4279111 138.5109542  91.8870307 104.7513492
 138.2522395  90.4100864 104.9601041 135.9018875  83.8556368 102.3315684
 135.0403354  84.1537622 102.6232421 135.9281310  84.0726767 101.3996716
 132.7180445  92.3998559  98.7389489 133.1818790  92.6786262  97.9494112
 132.4537243  91.4982003  98.5562580 129.6104526  91.9470040 101.6769252
 130.1805883  92.3757309 101.0386737 130.2012638  91.6652625 102.3753438
 131.6549331  88.5221711  95.5479054 132.3573374  88.9742755  96.0152981
 131.3229959  87.8805530  96.1758947 130.1029692  87.1133468 109.9230264
 129.4728353  87.7949748 110.1565661 129.9965780  87.0016549 108.9783402
 125.3974665  86.7805264 100.8496188 124.6073719  87.0362792 100.3736298
 125.8885912  87.5953601 100.9548228 139.4138474  94.1210503 103.6001469
 140.2355918  93.7190690 103.3184150 139.4100877  94.0178737 104.5517585
 127.3489410  87.1449843  97.8079665 126.5520574  87.2568537  98.3263160
 127.1215002  87.4836495  96.9420555 133.1795078  93.6694546 105.7562179
 133.2439510  94.1314953 106.5920351 132.4706002  93.0391911 105.8844489
 123.6812368  87.0335754 103.2811179 123.9320406  87.9182764 103.5468755
 124.2171916  86.8540356 102.5086271 147.5044467  90.4649251  99.9486440
 146.7508176  89.8956649  99.7930445 147.6392009  90.4311916 100.8957075
 132.8943096  95.3362654  95.6241160 132.7588770  96.1814189  96.0526007
 133.4352908  95.5381931  94.8607093 129.3810435  81.4154233 112.2855515
 128.9877381  80.8620432 112.9603159 130.1976575  81.7264812 112.6762032
 126.3472493  92.8538092  96.1969085 126.8597013  93.6481342  96.3474649
 126.9995206  92.1564382  96.1302686 128.1567378  95.9703848  98.2791838
 128.3334006  96.8921813  98.0912822 128.9524211  95.6562267  98.7086218
 132.2978396  82.8312113 109.8775771 133.0388110  83.4319266 109.7980234
 132.5296319  82.0889750 109.3193814 127.4419734  88.0168480 108.1554001
 127.3273249  87.1153737 108.4561100 126.5864252  88.2632177 107.8038818
 134.5211572  95.9586220 109.7541502 134.0775426  95.1722599 109.4362406
 135.1828785  96.1465371 109.0885392 129.2798693  97.4882022 104.2802180
 129.8306118  97.3599085 103.5079174 128.4410169  97.7876911 103.9297073
 136.6192810  96.2389020 107.7822903 136.6011285  97.0597901 107.2903172
 137.5412730  96.1143095 108.0073044 133.0765864  93.7533150 108.6246411
 133.6094201  92.9921438 108.3945719 132.5479945  93.4606801 109.3670566
 136.2435559  78.8593215 104.1540053 135.8999828  79.7494857 104.0779164
 136.6114522  78.6694873 103.2909638 124.3121410  91.1826746  96.9728655
 125.1496632  91.5923754  96.7562363 124.4899677  90.2426188  96.9428849
 136.2085842  88.8501827  92.6612488 135.6932465  89.6206431  92.9000876
 135.9363150  88.1766963  93.2845550 133.7932953  83.6951527  97.7197726
 132.9374549  83.3058378  97.5403365 134.2059905  83.7743488  96.8597512
 135.3232099  81.2297871 102.1189286 134.8196895  81.1928006 101.3057092
 135.6162706  82.1390613 102.1785943 131.5674985  81.3136600 101.1255468
 132.4327982  81.1179409 100.7661357 131.6352494  81.0846952 102.0524825
 141.1820116  91.6034181  94.5965662 140.4049559  91.2645341  94.1520824
 141.8611597  91.6086804  93.9220627 135.9972145  86.7228919  94.4872269
 135.6922281  87.0375068  95.3382412 136.9502587  86.8010339  94.5299602
 134.4418577  92.8819142  96.1365223 133.9139938  92.1471902  95.8238461
 133.9406080  93.6593818  95.8905192 139.4211423  91.0768162 101.2532270
 138.7635097  91.7667424 101.3412398 140.2251822  91.4664594 101.5966256
 129.1737304  83.5438808  98.4971835 129.7481056  83.3213990  97.7645028
 129.7608287  83.6127503  99.2500436 138.2316882  89.4312535  99.3036211
 138.7448763  90.0642527  99.8057921 138.8818106  88.8313731  98.9379571
 129.5006892  85.5743269  92.5167720 128.6644204  85.9117956  92.8376995
 129.3611661  85.4392249  91.5794857 131.4759972  80.4180057  97.2246904
 130.8224384  80.1029074  96.6003519 131.4340446  79.7955798  97.9506727
 132.5871177  90.6999352  89.1400196 131.6798239  90.4688606  89.3391345
 133.0842209  89.9036972  89.3274178 135.4939256  99.4096859  92.0596882
 134.8200955  99.7128556  92.6681840 135.8805078 100.2125940  91.7102340
 134.7097713  86.9061991 101.5494552 133.7920274  87.1276938 101.3916240
 135.1257856  86.9808301 100.6906259 135.4932760  88.3053406  96.6797232
 136.2404579  88.8174804  96.3704354 135.7624350  87.9837459  97.5401626
 133.7659410  90.8011947  93.6624186 132.8570630  90.5170980  93.7596656
 133.7954494  91.2211026  92.8027493 138.9978678  94.4118537  97.4315354
 138.5441005  93.5709447  97.4880544 138.3672645  95.0479935  97.7690134
 137.9411597  85.3410523  98.6616021 137.2034354  84.8287909  98.9926264
 138.1938371  84.9010904  97.8499298 137.4411617  96.2495033  98.3665172
 137.7334591  96.8100090  97.6477538 137.9510238  96.5423594  99.1218331
 138.0423225  78.1186775  99.2557791 138.3482102  77.2584138  98.9683706
 138.7675830  78.7104395  99.0556785 124.3347581  88.5217461  97.6439389
 124.1371981  87.9286822  96.9190455 123.7794245  88.2169671  98.3615327
 132.3144304  88.4140568  99.7633982 132.3692914  87.4614404  99.6876458
 131.5035507  88.5700007 100.2475280 133.4635498  92.3420691  91.0012265
 133.0254928  91.6256550  90.5417902 134.2045939  92.5696806  90.4397356
 130.2536664  87.0317627  97.5224361 129.4404530  87.3311798  97.9289553
 130.7495659  86.6373316  98.2398843 132.4045242  97.0275384  99.4558625
 132.3621421  97.2536231  98.5267157 133.3207941  96.7938759  99.6044426
 135.8510876  87.4959452 106.3539255 136.2060264  87.7230925 107.2133720
 136.4983007  87.8277829 105.7316510 141.5808613  90.6177888  97.0588584
 141.4426512  90.8079484  96.1309773 141.2244832  91.3797271  97.5156635
 129.7450739  84.6035983 103.1385596 130.3850118  84.4624742 102.4408559
 128.9128270  84.3170496 102.7624198 141.6077993  92.6854415 102.0699855
 142.0414499  92.5929704 102.9182909 142.3209573  92.6611915 101.4319871
 130.5211043  93.9038413  99.2520588 131.3151642  93.4088734  99.0503163
 129.8102735  93.3756277  98.8888294 135.3405888  96.2856509 103.6032956
 135.3942910  96.8547445 104.3710672 134.4720669  96.4558394 103.2386993
 126.8293807  88.0481495  95.3280341 125.8991395  87.9865951  95.5450303
 126.9251279  87.5257448  94.5316982 126.7479356  84.5736308  97.9158582
 127.0086173  85.4881641  97.8067743 127.5696528  84.1060751  98.0655195
 128.2204281  85.9874065 105.0857407 128.8927334  85.7791427 104.4370056
 127.3934067  85.7896151 104.6462639 142.4693542  92.7278115 104.6032740
 142.6629432  93.6323926 104.8492015 142.3694160  92.2685535 105.4371325
 134.1229853  82.6136006 107.1023068 133.4757768  83.3125956 107.0087544
 134.8930868  83.0472150 107.4699316 137.5308651  92.8784858 110.1773621
 137.3794157  92.6495410 109.2603705 137.5213330  93.8355460 110.1904966
 134.2993987  90.4516771 105.1619887 135.2286047  90.6027931 104.9888855
 133.8785017  90.5400792 104.3068534 133.0982319  94.4767435 102.9318425
 132.9593405  94.1086220 103.8044363 132.3096915  94.9915075 102.7602383
 133.6930471  99.5776532  94.2743962 133.8682227  99.1064575  95.0889584
 133.0063259 100.2042298  94.5025222 134.6487534  93.8549038 100.3207263
 134.3137367  93.8149808 101.2164913 134.1491480  93.1893754  99.8477673
 128.6231778  89.2616668 105.8459844 128.4851576  88.5296907 106.4471383
 129.5336702  89.1725568 105.5644032 137.5846726  91.2005072  90.5944323
 136.9675896  90.4751901  90.4977375 137.1163214  91.9614433  90.2511397
 131.2514079  88.9736627 105.3343524 131.9613697  88.3329820 105.2930142
 131.2083387  89.2249522 106.2569704 139.2400858  95.9103981 108.2550103
 139.1813404  95.2263201 107.5880686 139.6420376  96.6522971 107.8030729
 129.9643013  85.9601845 107.1539163 129.4280370  85.5092584 107.8060760
 129.3759721  86.0947754 106.4109628 128.2591556 102.7265895 101.0483822
 128.4988155 103.3584419 101.7262840 127.4160753 102.3753935 101.3349181
 129.3745272  85.4190497  89.7165627 128.4974738  85.2979298  89.3527874
 129.8503025  84.6276575  89.4644515 139.2418265  93.8743565 106.4864083
 138.3545044  93.5369487 106.6090481 139.8116816  93.1426596 106.7232848
 120.8947412  90.2067656  99.8107134 121.5818452  89.8929387  99.2228149
 120.7395541  91.1109021  99.5374385 125.6982134  85.0957853 104.2392158
 125.6140323  84.4883523 103.5042568 124.8764840  85.5866871 104.2401654
 132.7719418  98.5345017 103.4525326 132.6989590  99.3399989 103.9644630
 132.3296811  98.7336983 102.6273347 132.5609198  97.7716787  96.9628147
 131.7776720  98.3138467  97.0566372 133.2601943  98.2890767  97.3622389
 135.8705848  83.5811417  99.6062353 136.3674547  82.8281379  99.2863423
 135.0992829  83.6175733  99.0405562 143.7235605  89.2851782 101.2480644
 143.7125482  90.1676498 100.8774577 142.8552985  88.9323333 101.0535181
 135.2318102  98.4331851 105.6083484 135.9446074  99.0679316 105.5359386
 134.7408130  98.5295717 104.7923486 136.9535629  92.3383104  97.1800776
 136.0191907  92.4584566  97.0105480 137.1312297  91.4355571  96.9160786
 132.4540817  85.7228800  99.3334037 132.0838604  85.1699840 100.0214943
 132.9499909  85.1186933  98.7809037 140.3408180  88.1800423  97.7150810
 140.8068632  89.0128415  97.6411113 140.7915680  87.7145405  98.4196069
 130.2830015  96.1826295 106.4289055 130.9839475  96.8162778 106.5818449
 129.8125130  96.5241026 105.6684695 138.4084411  94.5244244  94.7136962
 138.6844255  94.4100839  95.6230836 137.5388910  94.1261729  94.6749135
 138.3124843  80.5481010 101.7541712 137.3987923  80.7785237 101.9223919
 138.7417944  80.6319454 102.6055744 138.0831301  88.7370902 104.2541606
 137.4302751  88.9846809 103.5994058 138.4611681  87.9235040 103.9204083
 135.0438475  98.7730595  98.3569776 135.2260870  97.9552251  98.8197528
 135.8671461  98.9898287  97.9194666 135.3780641  97.6998780  95.6184824
 135.9068407  97.1891235  95.0054987 135.6408860  97.3841311  96.4830357
 134.1318874  89.4790713 110.7407643 133.4559511  89.3784842 111.4110018
 134.9546508  89.3229927 111.2043640 125.8797733  95.7162650 103.3620158
 126.4651170  94.9706338 103.4948062 125.6822572  96.0266606 104.2456822
 128.7336389  98.7513897  98.3782600 128.0646764  99.2360025  97.8946640
 128.5949258  98.9983117  99.2925979 120.4715388  88.2868250 102.0824601
 120.5099488  87.7531841 102.8761719 119.9655681  87.7603455 101.4635578
 132.8741657 100.7857641 104.9765259 133.4259965 100.9489262 105.7414344
 133.2147851 101.3762078 104.3045284 127.8506150  83.1332790 105.5787143
 127.9147477  83.9947621 105.1664541 127.7873271  82.5206792 104.8459502
 127.3258423  85.2055923 109.2260178 127.9530462  84.8233000 109.8397702
 126.4686342  84.9870125 109.5915870 137.7252531  95.6118898 110.8313913
 138.2692435  96.2248856 110.3368868 137.1439376  96.1698476 111.3480926
 124.1023966  87.0132352  95.1578532 124.3977407  86.1043030  95.1045586
 123.2012001  86.9920091  94.8359535 136.0110044  98.7339616 101.9628941
 135.8861184  97.9329356 101.4539886 136.6689135  99.2285809 101.4742911
 127.6318213  85.0888349 101.1406081 126.9104798  85.7024316 101.0013554
 128.4211468  85.6246113 101.0622727 138.0744953  96.5348636 103.5908491
 137.1275288  96.4153987 103.5186818 138.4227726  95.6471134 103.6734752
 130.4344526  82.4242775 107.4146733 130.9578928  82.6705072 108.1773042
 130.2156859  83.2562810 106.9949870 125.8311807  84.6946450  95.2817858
 125.5024513  83.8143829  95.0992964 126.1851178  84.6394118  96.1694247
 135.0791386  96.3301352  99.7912843 134.9316348  95.4018060  99.9720413
 135.9044880  96.3521443  99.3069918 128.9453630  84.9819419  95.6493335
 129.2849703  85.5105341  94.9271944 129.3925751  85.3199826  96.4251902
 138.6825508  97.1529911 100.8777716 139.6072055  96.9472772 100.7402167
 138.5140811  96.9046312 101.7867057 131.6397071  83.3656470 105.0996403
 131.2993892  82.5664283 105.5017083 130.9336077  83.6658181 104.5273237
 132.2913543  80.4505783 103.5523726 133.1139612  79.9766261 103.4302617
 132.5351607  81.2296266 104.0522413 130.9321777  83.4794041  93.8486628
 131.6530140  83.8575294  93.3450345 130.3087082  84.1982918  93.9521606
 135.0752900  84.1839190  94.7844960 135.2916515  85.0663828  94.4833789
 134.5946968  83.7925403  94.0550602 129.8152122  87.1424903 101.3615705
 129.6696702  87.4565206 102.2539987 129.3377325  87.7609804 100.8086604
 131.6748505  84.1327451 101.4096595 131.6610073  83.2368545 101.0728893
 132.3920933  84.1398115 102.0434881 133.5274635  84.5664791 103.4549722
 133.2692413  85.4881862 103.4534052 132.9959676  84.1695226 104.1450186
 138.4720824  97.6715579  96.2339807 138.6457702  97.1062001  95.4813660
 138.9649715  98.4716473  96.0519297 124.2897784  89.6830248 104.3003366
 123.7451252  90.4590056 104.4323641 125.1677134  90.0301052 104.1422488
 131.0785401  83.0141831  96.6784165 131.2001312  82.0858478  96.8775052
 130.7887443  83.0280517  95.7662480 133.9476591  80.6996742  99.8150885
 133.9698288  80.7636075  98.8602864 134.3644650  79.8601251 100.0091391
 144.3260215  90.4352001  97.8530107 144.7691361  89.6859327  97.4549230
 143.4486726  90.4262138  97.4703839 139.4595997  96.9882343  93.3336706
 140.1546901  97.6089036  93.5524020 139.8019147  96.1377694  93.6089084
 125.0763806  88.8100144 107.1933523 124.3345542  88.9582779 107.7798153
 124.7556550  89.0708410 106.3300272 141.3587420  94.4382048  94.8624036
 141.8838744  94.7769321  94.1373356 141.2709772  93.5029064  94.6787171
 133.0207468  98.3516122 106.9913913 133.3294595  98.1065269 107.8636613
 133.8182950  98.5562761 106.5032783 133.0428080 100.5054032  99.2219290
 132.6033071 100.0130410  99.9152146 133.7936197  99.9626999  98.9811365
 125.5220419  96.6965573  99.2243918 126.3478439  96.3969344  98.8442561
 125.1714471  95.9273195  99.6733706 130.4901953  96.0492041 101.2941591
 129.8681962  95.3862746 100.9943819 131.1606820  96.0753173 100.6115239
 123.7229025  94.6151899 100.1832851 122.8860933  94.1874073 100.0016853
 123.6952670  94.8084342 101.1203642 130.5626480  84.5273829 110.8874097
 130.6114636  85.4035952 110.5051867 131.1048994  83.9851222 110.3145741
 141.0481326  95.0714952 110.1675234 140.2576869  95.0539091 109.6279734
 140.8114680  95.6103246 110.9224271 141.1679201  91.9207418 107.4807963
 141.2177206  91.7557426 108.4223486 141.0593124  91.0534678 107.0905844
 130.0515460  94.5995964  94.7700052 130.2003580  95.2831429  94.1166725
 130.8581903  94.5801054  95.2849508 138.4582963  87.9038347 108.7967270
 139.3592826  87.7644811 108.5051267 138.5330938  88.0692801 109.7365447
 132.7925769  85.2805201 107.6420456 131.9229078  85.5738767 107.3703045
 133.0285249  85.8645646 108.3627720 142.6697398  94.3404360 107.7249984
 142.3782206  94.7034341 108.5613445 142.0569529  93.6271368 107.5463317
 143.8693080  91.9057240 100.2452555 144.7039971  92.3447044 100.4090115
 144.0052209  91.4295893  99.4260800 140.9184586  89.4636975 106.1930042
 141.3938708  89.6564621 105.3848894 139.9950151  89.5196160 105.9473426
 127.8068093  90.6261142  95.7761121 127.5614134  89.7223472  95.9741331
 127.9764007  90.6278292  94.8340599 135.4964802  81.4984818 105.1585876
 136.0146746  82.2345845 104.8332365 135.1419935  81.8048811 105.9932635
 127.0763740  86.3589499  93.2747282 126.3832985  86.4333854  92.6187318
 126.8315492  85.5949843  93.7968799 135.7477397  77.9185101 100.6786773
 136.0279150  77.2508290 101.3047199 136.5328003  78.1114196 100.1661437
 133.5510865  97.0944095  92.2411799 132.9784832  97.7134282  91.7882271
 134.1243659  97.6443456  92.7751721 139.6186255  86.3402735 104.4258348
 140.5703678  86.4400832 104.4470572 139.4489705  85.5481003 104.9356432
 137.6400634  83.4258318 104.6117749 137.0450566  83.7063331 103.9164238
 137.3550331  83.9152219 105.3834490 136.7708125  97.3781245  93.3720382
 137.7038798  97.3126806  93.5753257 136.6831338  98.2137512  92.9134914
 139.3996142  96.6947115  90.3324329 139.3209773  96.3606979  91.2260087
 140.2205808  97.1868883  90.3315801 142.0974333  89.5608854 103.5400648
 142.0650653  88.6224855 103.7260332 142.7074956  89.6392891 102.8066473
 133.9357664  88.4304907  89.5827852 134.8816768  88.3011115  89.6516270
 133.5571909  87.6919569  90.0597280 142.2468821  86.3519898 103.5858931
 141.7307870  85.5678354 103.3988860 143.1308770  86.0238614 103.7505450
 139.9079548  80.0960913  99.5454744 139.7104369  79.7876002 100.4298076
 140.5179254  80.8222552  99.6752673 145.9966180  88.7632724 103.2781136
 145.2699343  88.6288689 102.6697627 145.5813467  89.0709552 104.0837854
 133.8196356  92.4822654 111.0428509 134.7399366  92.6601253 111.2368555
 133.7845939  91.5378699 110.8908208 132.1200581  86.3554884  89.5182737
 131.2132036  86.0587996  89.5945451 132.3976562  86.0584702  88.6517023
 123.0378521  87.6761247  99.9681783 122.7181305  86.8226555  99.6756157
 122.4911949  87.8909825 100.7239751 126.8158429  90.3923688 103.6851290
 127.0344438  91.3240796 103.7039324 127.2284202  90.0331663 104.4706094
 133.7362646  80.8991773  95.6726978 132.9263375  80.5538858  96.0482224
 134.4247063  80.5899317  96.2614590 135.6653195  79.9769820  97.2951275
 136.2184233  80.3965274  97.9541298 135.9023281  79.0505568  97.3374231
 131.6886294  85.9656894 113.0754039 131.5883021  86.9151251 113.0066130
 131.4707836  85.6375133 112.2030109 130.8899365  83.2141819  89.6594716
 131.7518529  83.5396717  89.9190534 131.0749709  82.4273315  89.1467782
 122.9066781  91.2964159 101.9374905 122.2130253  90.8818111 101.4244859
 123.6539772  91.3384695 101.3408324 139.0432002  82.0870345  96.8029939
 138.4630671  82.7455149  96.4207992 138.7767934  81.2647690  96.3917357
 137.4935568  81.4875403  99.0051260 137.9935347  81.5991938  98.1965578
 138.1371176  81.1836456  99.6452068 131.5517564  89.3954033 111.8919100
 131.0684646  90.1954393 112.0982990 131.6378503  89.4061978 110.9386544
 124.8203524  91.2282412  99.8140920 124.7974212  91.3270100  98.8622803
 125.1304160  92.0747563 100.1358086 127.4790902  93.2858567 103.9287534
 128.4334155  93.2542510 103.8617466 127.2803425  92.8249191 104.7437760
 128.0690284  91.8559684 106.4958332 128.8883173  92.3503762 106.5193169
 128.3427091  90.9391652 106.4675899 137.8256880  84.2470436  95.8586287
 136.9382735  84.5320086  95.6406482 138.2410869  84.0864199  95.0113564
 141.1771416  84.2716957  99.5740627 141.9531806  84.7613409  99.8465244
 140.4519550  84.6975011 100.0312496 143.6143975  84.9844576 100.6314567
 144.2088465  84.7440312  99.9207876 143.6870558  84.2651707 101.2588104
 125.8341130  98.8278187 100.9457732 125.6995598  98.0678588 100.3795730
 125.4173193  99.5519087 100.4786521 136.9700093  94.0115110  89.9534307
 137.6735943  94.2165113  90.5691963 136.2462742  94.5791872  90.2183391
 137.7997904  89.7624972  96.0736578 137.7433105  90.2193523  95.2344210
 138.3526246  89.0015656  95.8959420 141.6102709  85.5514704  96.8986697
 141.3539644  85.1511339  97.7294905 140.9855578  86.2658498  96.7736836
 145.9215047  88.2910777  99.4057988 145.3614605  88.3603966 100.1789551
 145.3158551  88.1151762  98.6857485 128.9910256  99.7247504 101.1576175
 128.8742640 100.6692936 101.0554865 128.1702702  99.4221066 101.5461974
 138.8786791  94.4497640  92.0032767 139.7132395  94.0178838  91.8210242
 138.7171134  94.2779653  92.9309662 138.5332683  90.9529753  93.3689107
 138.4781487  90.7874024  92.4277551 137.9078738  91.6605786  93.5251296
 123.3225198  86.1897817 107.1950529 123.9684061  85.6796771 107.6837754
 123.1142349  86.9266499 107.7693954 135.8478590  93.2578665 112.6942670
 136.7169750  93.4319317 112.3329304 135.3685342  94.0773082 112.5718399
 131.8428808  80.4537862  92.9474425 131.8307478  81.3979702  93.1042696
 132.7352230  80.2708007  92.6533886 130.0164770 100.3775766 104.3732103
 130.9192017 100.4099376 104.6898598 129.7902140  99.4476217 104.3878439
 131.7718372  99.1306752 101.0342182 130.8214003  99.1308614 100.9206554
 132.0750858  98.3839487 100.5178216 135.6580928  77.0480639  97.2020362
 134.8913324  76.4939125  97.3477044 136.0691633  77.1202507  98.0634514
 127.6622689  83.3365434 111.2925543 128.5254150  82.9802239 111.5028868
 127.0888100  82.9979329 111.9800947 144.3160772 104.9194719 102.0349469
 143.9779284 104.8035784 101.1470004 145.1850540 104.5185884 102.0150475
 140.1747588 106.7730195  98.0246360 139.6112453 106.6820132  97.2562648
 140.0599983 105.9530100  98.5048852 144.7980555 106.0729571 107.9935674
 144.7869196 105.6782369 107.1216178 144.9601195 105.3395643 108.5869446
 137.7212020 108.2681387 100.8630580 138.5133312 107.9272212 100.4476880
 137.9608670 108.3776362 101.7832734 145.7547147 110.4401163  93.3360825
 145.1035126 111.0255243  92.9494839 146.5491509 110.9707358  93.3955862
 139.6802774 107.5290300  93.7347959 140.4533650 106.9819287  93.5960835
 140.0328173 108.3934550  93.9462421 141.5187816 108.8566682 106.9414858
 141.2277682 109.7612313 106.8261525 142.1544801 108.8983210 107.6558928
 142.4444023 106.2343531 103.5316218 143.0407595 106.0099553 102.8173181
 142.5018995 105.4928276 104.1341666 142.0169051 103.6882966  91.3666409
 142.2694572 103.1664488  90.6049872 141.0793611 103.5249112  91.4693093
 147.0612334 102.6918745  99.1741152 147.8475424 102.2738168  98.8231569
 147.3251039 103.5964837  99.3422801 147.2322412 108.1291595  93.8729809
 146.5968245 108.2026221  94.5850714 146.9019818 108.7185194  93.1948888
 141.7365340 105.5911072  93.5690784 141.6201598 104.9155976  94.2371868
 141.8467600 105.1043446  92.7522937 144.0796881 105.0521219  97.2737473
 143.7155088 104.5251840  97.9850395 144.9363997 104.6619688  97.1003959
 143.7202368 100.0811119  92.2698822 143.8876770 100.9491355  92.6369293
 143.5299537 100.2438401  91.3460111 146.4777701 108.5428098 103.9364652
 146.1778424 109.4453137 103.8280459 146.1328761 108.2760281 104.7885805
 139.9290183 104.9941895  99.9701357 139.0040679 104.8618109 100.1779048
 140.1774596 105.7736114 100.4671299 143.6991589 102.5368777  93.2545489
 143.5791214 102.9825827  94.0930969 143.0044177 102.8854094  92.6959027
 137.2898994 104.6375168 100.8045146 137.4191375 104.8909647 101.7184557
 136.6096445 105.2302876 100.4849801 141.4598481 115.3072418  96.9035620
 141.3822511 116.2580243  96.9824100 140.8560125 114.9618291  97.5610546
 143.9515711 102.4800284 109.5596987 143.1749045 103.0394204 109.5499851
 144.5906274 102.9657067 110.0811857 142.2062083 105.2885737 109.1214954
 142.9476768 105.8270781 108.8449777 141.4999069 105.9152026 109.2786506
 144.0348493 102.3687484 105.0920672 144.8809688 102.7926898 105.2355321
 143.9747131 101.7121109 105.7859235 147.1847938 100.0291853 106.7501846
 146.9408870 100.7833913 106.2136121 147.4607869 100.4077200 107.5849093
 146.7412630  99.1848286 102.3315684 145.8797109  99.4829539 102.6232421
 146.7675065  99.4018685 101.3996716 143.5574199 107.7290476  98.7389489
 144.0212545 108.0078179  97.9494112 143.2930997 106.8273921  98.5562580
 140.4498280 107.2761958 101.6769252 141.0199637 107.7049226 101.0386737
 141.0406392 106.9944543 102.3753438 142.4943085 103.8513629  95.5479054
 143.1967129 104.3034672  96.0152981 142.1623714 103.2097448  96.1758947
 140.9423447 102.4425385 109.9230264 140.3122107 103.1241666 110.1565661
 140.8359535 102.3308467 108.9783402 136.2368419 102.1097181 100.8496188
 135.4467473 102.3654710 100.3736298 136.7279667 102.9245519 100.9548228
 138.1883165 102.4741761  97.8079665 137.3914328 102.5860455  98.3263160
 137.9608757 102.8128413  96.9420555 144.0188832 108.9986464 105.7562179
 144.0833265 109.4606871 106.5920351 143.3099756 108.3683829 105.8844489
 134.5206122 102.3627672 103.2811179 134.7714161 103.2474682 103.5468755
 135.0565671 102.1832273 102.5086271 143.7336850 110.6654571  95.6241160
 143.5982525 111.5106107  96.0526007 144.2746663 110.8673849  94.8607093
 140.2204190  96.7446151 112.2855515 139.8271135  96.1912350 112.9603159
 141.0370330  97.0556730 112.6762032 137.1866247 108.1830009  96.1969085
 137.6990768 108.9773260  96.3474649 137.8388960 107.4856300  96.1302686
 138.9961132 111.2995766  98.2791838 139.1727760 112.2213730  98.0912822
 139.7917966 110.9854185  98.7086218 143.1372151  98.1604030 109.8775771
 143.8781864  98.7611183 109.7980234 143.3690073  97.4181668 109.3193814
 138.2813489 103.3460397 108.1554001 138.1667004 102.4445655 108.4561100
 137.4258006 103.5924094 107.8038818 145.3605326 111.2878138 109.7541502
 144.9169181 110.5014516 109.4362406 146.0222540 111.4757288 109.0885392
 140.1192448 112.8173939 104.2802180 140.6699873 112.6891003 103.5079174
 139.2803923 113.1168828 103.9297073 143.9159619 109.0825067 108.6246411
 144.4487955 108.3213355 108.3945719 143.3873700 108.7898719 109.3670566
 147.0829314  94.1885133 104.1540053 146.7393583  95.0786775 104.0779164
 147.4508276  93.9986791 103.2909638 135.1515164 106.5118664  96.9728655
 135.9890386 106.9215672  96.7562363 135.3293432 105.5718106  96.9428849
 147.0479596 104.1793744  92.6612488 146.5326220 104.9498349  92.9000876
 146.7756905 103.5058880  93.2845550 144.6326707  99.0243445  97.7197726
 143.7768304  98.6350295  97.5403365 145.0453659  99.1035406  96.8597512
 146.1625854  96.5589788 102.1189286 145.6590650  96.5219923 101.3057092
 146.4556461  97.4682531 102.1785943 142.4068740  96.6428518 101.1255468
 143.2721737  96.4471327 100.7661357 142.4746249  96.4138870 102.0524825
 146.8365899 102.0520836  94.4872269 146.5316035 102.3666986  95.3382412
 147.7896342 102.1302256  94.5299602 145.2812331 108.2111060  96.1365223
 144.7533693 107.4763819  95.8238461 144.7799834 108.9885736  95.8905192
 140.0131059  98.8730726  98.4971835 140.5874811  98.6505907  97.7645028
 140.6002041  98.9419420  99.2500436 140.3400646 100.9035187  92.5167720
 139.5037958 101.2409874  92.8376995 140.2005416 100.7684167  91.5794857
 142.3153727  95.7471975  97.2246904 141.6618139  95.4320992  96.6003519
 142.2734201  95.1247715  97.9506727 143.4264931 106.0291270  89.1400196
 142.5191993 105.7980523  89.3391345 143.9235963 105.2328889  89.3274178
 146.3333010 114.7388777  92.0596882 145.6594709 115.0420474  92.6681840
 146.7198832 115.5417857  91.7102340 145.5491467 102.2353908 101.5494552
 144.6314028 102.4568855 101.3916240 145.9651611 102.3100219 100.6906259
 146.3326515 103.6345324  96.6797232 147.0798334 104.1466721  96.3704354
 146.6018104 103.3129377  97.5401626 144.6053165 106.1303865  93.6624186
 143.6964384 105.8462898  93.7596656 144.6348249 106.5502943  92.8027493
 135.1741335 103.8509379  97.6439389 134.9765735 103.2578740  96.9190455
 134.6187999 103.5461589  98.3615327 143.1538059 103.7432485  99.7633982
 143.2086669 102.7906322  99.6876458 142.3429261 103.8991924 100.2475280
 144.3029253 107.6712608  91.0012265 143.8648683 106.9548467  90.5417902
 145.0439694 107.8988723  90.4397356 141.0930419 102.3609545  97.5224361
 140.2798284 102.6603716  97.9289553 141.5889413 101.9665234  98.2398843
 143.2438997 112.3567302  99.4558625 143.2015176 112.5828148  98.5267157
 144.1601696 112.1230677  99.6044426 146.6904631 102.8251370 106.3539255
 147.0454018 103.0522843 107.2133720 147.3376762 103.1569746 105.7316510
 140.5844494  99.9327901 103.1385596 141.2243873  99.7916660 102.4408559
 139.7522024  99.6462414 102.7624198 141.3604798 109.2330331  99.2520588
 142.1545396 108.7380651  99.0503163 140.6496490 108.7048194  98.8888294
 146.1799642 111.6148427 103.6032956 146.2336664 112.1839363 104.3710672
 145.3114423 111.7850312 103.2386993 137.6687561 103.3773413  95.3280341
 136.7385149 103.3157868  95.5450303 137.7645033 102.8549366  94.5316982
 137.5873110  99.9028226  97.9158582 137.8479927 100.8173559  97.8067743
 138.4090282  99.4352668  98.0655195 139.0598035 101.3165983 105.0857407
 139.7321089 101.1083345 104.4370056 138.2327822 101.1188069 104.6462639
 144.9623607  97.9427924 107.1023068 144.3151522  98.6417873 107.0087544
 145.7324623  98.3764068 107.4699316 145.1387742 105.7808689 105.1619887
 146.0679802 105.9319848 104.9888855 144.7178772 105.8692709 104.3068534
 143.9376074 109.8059353 102.9318425 143.7987159 109.4378137 103.8044363
 143.1490670 110.3206993 102.7602383 144.5324226 114.9068450  94.2743962
 144.7075981 114.4356493  95.0889584 143.8457014 115.5334216  94.5025222
 145.4881289 109.1840956 100.3207263 145.1531121 109.1441726 101.2164913
 144.9885234 108.5185672  99.8477673 139.4625533 104.5908586 105.8459844
 139.3245331 103.8588825 106.4471383 140.3730456 104.5017486 105.5644032
 142.0907833 104.3028545 105.3343524 142.8007452 103.6621737 105.2930142
 142.0477141 104.5541440 106.2569704 140.8036767 101.2893763 107.1539163
 140.2674124 100.8384501 107.8060760 140.2153476 101.4239672 106.4109628
 139.0985311 118.0557812 101.0483822 139.3381909 118.6876336 101.7262840
 138.2554507 117.7045852 101.3349181 140.2139026 100.7482414  89.7165627
 139.3368493 100.6271215  89.3527874 140.6896779  99.9568493  89.4644515
 131.7341166 105.5359574  99.8107134 132.4212206 105.2221304  99.2228149
 131.5789295 106.4400939  99.5374385 136.5375889 100.4249771 104.2392158
 136.4534077  99.8175440 103.5042568 135.7158595 100.9158789 104.2401654
 143.6113173 113.8636935 103.4525326 143.5383344 114.6691906 103.9644630
 143.1690566 114.0628901 102.6273347 143.4002952 113.1008705  96.9628147
 142.6170474 113.6430385  97.0566372 144.0995697 113.6182684  97.3622389
 146.7099602  98.9103334  99.6062353 147.2068302  98.1573297  99.2863423
 145.9386584  98.9467651  99.0405562 146.0711856 113.7623769 105.6083484
 146.7839828 114.3971234 105.5359386 145.5801885 113.8587635 104.7923486
 143.2934571 101.0520717  99.3334037 142.9232359 100.4991758 100.0214943
 143.7893664 100.4478851  98.7809037 141.1223770 111.5118212 106.4289055
 141.8233229 112.1454695 106.5818449 140.6518885 111.8532944 105.6684695
 145.8832230 114.1022513  98.3569776 146.0654624 113.2844169  98.8197528
 146.7065216 114.3190205  97.9194666 146.2174395 113.0290698  95.6184824
 146.7462161 112.5183153  95.0054987 146.4802615 112.7133228  96.4830357
 144.9712629 104.8082631 110.7407643 144.2953266 104.7076760 111.4110018
 145.7940263 104.6521844 111.2043640 136.7191488 111.0454567 103.3620158
 137.3044925 110.2998255 103.4948062 136.5216326 111.3558524 104.2456822
 139.5730143 114.0805815  98.3782600 138.9040518 114.5651942  97.8946640
 139.4343013 114.3275035  99.2925979 131.3109143 103.6160168 102.0824601
 131.3493242 103.0823758 102.8761719 130.8049435 103.0895373 101.4635578
 143.7135412 116.1149558 104.9765259 144.2653720 116.2781180 105.7414344
 144.0541605 116.7053996 104.3045284 138.6899905  98.4624708 105.5787143
 138.7541231  99.3239539 105.1664541 138.6267025  97.8498710 104.8459502
 138.1652177 100.5347841 109.2260178 138.7924216 100.1524918 109.8397702
 137.3080096 100.3162042 109.5915870 134.9417720 102.3424270  95.1578532
 135.2371161 101.4334948  95.1045586 134.0405756 102.3212009  94.8359535
 146.8503799 114.0631534 101.9628941 146.7254938 113.2621274 101.4539886
 147.5082890 114.5577727 101.4742911 138.4711967 100.4180266 101.1406081
 137.7498553 101.0316234 101.0013554 139.2605223 100.9538031 101.0622727
 141.2738281  97.7534693 107.4146733 141.7972682  97.9996989 108.1773042
 141.0550614  98.5854728 106.9949870 136.6705562 100.0238367  95.2817858
 136.3418268  99.1435746  95.0992964 137.0244932  99.9686036  96.1694247
 145.9185141 111.6593270  99.7912843 145.7710103 110.7309977  99.9720413
 146.7438634 111.6813361  99.3069918 139.7847385 100.3111337  95.6493335
 140.1243457 100.8397258  94.9271944 140.2319505 100.6491743  96.4251902
 142.4790826  98.6948388 105.0996403 142.1387646  97.8956201 105.5017083
 141.7729832  98.9950099 104.5273237 143.1307297  95.7797700 103.5523726
 143.9533367  95.3058178 103.4302617 143.3745361  96.5588184 104.0522413
 141.7715532  98.8085959  93.8486628 142.4923894  99.1867211  93.3450345
 141.1480836  99.5274836  93.9521606 145.9146655  99.5131108  94.7844960
 146.1310269 100.3955746  94.4833789 145.4340722  99.1217321  94.0550602
 140.6545876 102.4716821 101.3615705 140.5090457 102.7857124 102.2539987
 140.1771080 103.0901721 100.8086604 142.5142259  99.4619369 101.4096595
 142.5003828  98.5660462 101.0728893 143.2314687  99.4690033 102.0434881
 144.3668390  99.8956709 103.4549722 144.1086168 100.8173780 103.4534052
 143.8353430  99.4987144 104.1450186 135.1291538 105.0122165 104.3003366
 134.5845006 105.7881973 104.4323641 136.0070888 105.3592970 104.1422488
 141.9179155  98.3433749  96.6784165 142.0395066  97.4150395  96.8775052
 141.6281197  98.3572435  95.7662480 144.7870345  96.0288660  99.8150885
 144.8092042  96.0927993  98.8602864 145.2038404  95.1893168 100.0091391
 135.9157560 104.1392062 107.1933523 135.1739296 104.2874697 107.7798153
 135.5950305 104.4000327 106.3300272 143.8601223 113.6808040 106.9913913
 144.1688349 113.4357187 107.8636613 144.6576705 113.8854678 106.5032783
 143.8821835 115.8345949  99.2219290 143.4426825 115.3422328  99.9152146
 144.6329952 115.2918917  98.9811365 136.3614174 112.0257490  99.2243918
 137.1872194 111.7261262  98.8442561 136.0108226 111.2565113  99.6733706
 141.3295707 111.3783959 101.2941591 140.7075716 110.7154664 100.9943819
 142.0000574 111.4045090 100.6115239 134.5622779 109.9443817 100.1832851
 133.7254687 109.5165991 100.0016853 134.5346424 110.1376260 101.1203642
 141.4020235  99.8565747 110.8874097 141.4508390 100.7327869 110.5051867
 141.9442749  99.3143140 110.3145741 140.8909214 109.9287882  94.7700052
 141.0397334 110.6123346  94.1166725 141.6975657 109.9092972  95.2849508
 143.6319523 100.6097119 107.6420456 142.7622832 100.9030685 107.3703045
 143.8679003 101.1937564 108.3627720 138.6461847 105.9553059  95.7761121
 138.4007889 105.0515389  95.9741331 138.8157762 105.9570210  94.8340599
 146.3358557  96.8276736 105.1585876 146.8540501  97.5637763 104.8332365
 145.9813690  97.1340729 105.9932635 137.9157495 101.6881417  93.2747282
 137.2226739 101.7625772  92.6187318 137.6709246 100.9241761  93.7968799
 146.5871151  93.2477018 100.6786773 146.8672905  92.5800207 101.3047199
 147.3721758  93.4406114 100.1661437 144.3904620 112.4236012  92.2411799
 143.8178587 113.0426199  91.7882271 144.9637413 112.9735374  92.7751721
 144.7751418 103.7596825  89.5827852 145.7210523 103.6303033  89.6516270
 144.3965663 103.0211487  90.0597280 144.6590111 107.8114571 111.0428509
 145.5793120 107.9893170 111.2368555 144.6239694 106.8670617 110.8908208
 142.9594335 101.6846801  89.5182737 142.0525791 101.3879914  89.5945451
 143.2370316 101.3876620  88.6517023 133.8772276 103.0053165  99.9681783
 133.5575060 102.1518473  99.6756157 133.3305704 103.2201743 100.7239751
 137.6552183 105.7215606 103.6851290 137.8738193 106.6532714 103.7039324
 138.0677957 105.3623580 104.4706094 144.5756401  96.2283691  95.6726978
 143.7657129  95.8830776  96.0482224 145.2640818  95.9191235  96.2614590
 146.5046949  95.3061738  97.2951275 147.0577988  95.7257191  97.9541298
 146.7417036  94.3797486  97.3374231 142.5280048 101.2948812 113.0754039
 142.4276775 102.2443169 113.0066130 142.3101590 100.9667051 112.2030109
 141.7293120  98.5433737  89.6594716 142.5912284  98.8688635  89.9190534
 141.9143464  97.7565233  89.1467782 133.7460536 106.6256076 101.9374905
 133.0524007 106.2110029 101.4244859 134.4933527 106.6676613 101.3408324
 142.3911319 104.7245950 111.8919100 141.9078400 105.5246311 112.0982990
 142.4772258 104.7353895 110.9386544 135.6597278 106.5574330  99.8140920
 135.6367966 106.6562017  98.8622803 135.9697915 107.4039481 100.1358086
 138.3184656 108.6150485 103.9287534 139.2727910 108.5834427 103.8617466
 138.1197180 108.1541109 104.7437760 138.9084038 107.1851601 106.4958332
 139.7276927 107.6795680 106.5193169 139.1820846 106.2683569 106.4675899
 136.6734885 114.1570105 100.9457732 136.5389353 113.3970506 100.3795730
 136.2566947 114.8811005 100.4786521 139.8304011 115.0539422 101.1576175
 139.7136395 115.9984854 101.0554865 139.0096457 114.7512983 101.5461974
 134.1618952 101.5189735 107.1950529 134.8077816 101.0088689 107.6837754
 133.9536103 102.2558417 107.7693954 146.6872345 108.5870583 112.6942670
 147.5563504 108.7611235 112.3329304 146.2079096 109.4064999 112.5718399
 142.6822563  95.7829780  92.9474425 142.6701233  96.7271620  93.1042696
 143.5745985  95.5999925  92.6533886 140.8558525 115.7067684 104.3732103
 141.7585771 115.7391294 104.6898598 140.6295895 114.7768135 104.3878439
 142.6112127 114.4598670 101.0342182 141.6607758 114.4600532 100.9206554
 142.9144613 113.7131405 100.5178216 146.4974682  92.3772556  97.2020362
 145.7307078  91.8231043  97.3477044 146.9085387  92.4494425  98.0634514
 138.5016443  98.6657352 111.2925543 139.3647905  98.3094157 111.5028868
 137.9281854  98.3271247 111.9800947 147.0762174 117.4389099 100.8496188
 146.2861228 117.6946628 100.3736298 147.5673421 118.2537437 100.9548228
 145.3599877 117.6919589 103.2811179 145.6107915 118.5766599 103.5468755
 145.8959425 117.5124191 102.5086271 145.9908919 121.8410581  96.9728655
 146.8284141 122.2507590  96.7562363 146.1687186 120.9010023  96.9428849
 146.0135090 119.1801297  97.6439389 145.8159490 118.5870657  96.9190455
 145.4581754 118.8753507  98.3615327 142.5734921 120.8651492  99.8107134
 143.2605961 120.5513222  99.2228149 142.4183050 121.7692856  99.5374385
 147.3769643 115.7541688 104.2392158 147.2927832 115.1467358 103.5042568
 146.5552349 116.2450707 104.2401654 142.1502897 118.9452085 102.0824601
 142.1886997 118.4115676 102.8761719 141.6443190 118.4187291 101.4635578
 145.7811475 117.6716187  95.1578532 146.0764916 116.7626866  95.1045586
 144.8799510 117.6503927  94.8359535 145.9685293 120.3414083 104.3003366
 145.4238761 121.1173891 104.4323641 146.8464643 120.6884887 104.1422488
 146.7551315 119.4683979 107.1933523 146.0133051 119.6166615 107.7798153
 146.4344059 119.7292245 106.3300272 145.4016533 125.2735734 100.1832851
 144.5648442 124.8457909 100.0016853 145.3740179 125.4668178 101.1203642
 144.7166030 118.3345083  99.9681783 144.3968814 117.4810391  99.6756157
 144.1699458 118.5493661 100.7239751 144.5854290 121.9547994 101.9374905
 143.8917762 121.5401947 101.4244859 145.3327281 121.9968531 101.3408324
 146.4991033 121.8866248  99.8140920 146.4761721 121.9853935  98.8622803
 146.8091669 122.7331399 100.1358086 145.0012707 116.8481653 107.1950529
 145.6471570 116.3380607 107.6837754 144.7929858 117.5850334 107.7693954
  76.4235955   0.3383035  83.6280926  76.3459985   1.2890860  83.7069407
  75.8197599  -0.0071093  84.2855853  75.0829922  -2.1515444  91.0047487
  75.6337347  -2.2798381  90.2324481  74.2441398  -1.8520555  90.6542380
  81.2970485  -0.2300606  78.7842189  80.6232183   0.0731090  79.3927147
  81.6836307   0.5728474  78.4347646  79.4961700  -0.0620934  80.9989268
  79.6713456  -0.5332891  81.8134891  78.8094488   0.5644832  81.2270529
  74.0622785   3.0868429  87.7729128  74.3019383   3.7186953  88.4508147
  73.2191982   2.7356469  88.0594488  78.5750647  -1.1052449  90.1770632
  78.5020818  -0.2997477  90.6889937  78.1328040  -0.9060483  89.3518654
  78.3640427  -1.8680679  83.6873454  77.5807949  -1.3258998  83.7811679
  79.0633172  -1.3506699  84.0867695  81.0349331  -1.2065615  92.3328791
  81.7477303  -0.5718150  92.2604693  80.5439359  -1.1101749  91.5168793
  74.5367617  -0.8883569  85.1027907  73.8677993  -0.4037441  84.6191947
  74.3980487  -0.6414348  86.0171286  78.6772886   1.1460175  91.7010565
  79.2291194   1.3091796  92.4659651  79.0179079   1.7364613  91.0290590
  78.8238697  -1.2881344  93.7159220  79.1325824  -1.5332197  94.5881919
  79.6214179  -1.0834705  93.2278090  78.8459309   0.8656566  85.9464596
  78.4064300   0.3732945  86.6397453  79.5967426   0.3229534  85.7056672
  71.3251648  -2.9431893  85.9489224  72.1509668  -3.2428121  85.5687868
  70.9745700  -3.7124271  86.3979013  69.5260253  -5.0245567  86.9078158
  68.6892162  -5.4523392  86.7262159  69.4983899  -4.8313123  87.8448949
  71.6372359  -0.8119279  87.6703039  71.5026827  -1.5718878  87.1041037
  71.2204421  -0.0878379  87.2031828  74.7941485   0.0850038  87.8821481
  74.6773869   1.0295471  87.7800172  73.9733931  -0.2176400  88.2707281
  75.8195999   0.7378300  91.0977410  76.7223246   0.7701910  91.4143905
  75.5933369  -0.1921249  91.1123746  77.5749601  -0.5090713  87.7587488
  76.6245232  -0.5088852  87.6451861  77.8782087  -1.2557979  87.2423523
  93.3102295   5.3269825  88.8233251  93.9480705   5.2076572  88.1196591
  93.1923137   6.2750669  88.8821203  90.1192001   5.2797253  88.7594776
  89.7810512   5.1638318  87.8715310  90.9881769   4.8788418  88.7395782
  85.9778817   7.1332730  84.7491667  85.4143682   7.0422666  83.9807954
  85.8631212   6.3132634  85.2294159  90.6011784   6.4332105  94.7180981
  90.5900425   6.0384903  93.8461485  90.7632423   5.6998177  95.3114753
  83.5243249   8.6283921  87.5875887  84.3164540   8.2874746  87.1722186
  83.7639899   8.7378896  88.5078040  91.5578375  10.8003697  80.0606131
  90.9066355  11.3857778  79.6740145  92.3522738  11.3309892  80.1201169
  85.4834002   7.8892834  80.4593266  86.2564878   7.3421821  80.3206142
  85.8359401   8.7537084  80.6707727  87.3219045   9.2169217  93.6660165
  87.0308911  10.1214848  93.5506831  87.9576029   9.2585744  94.3804235
  88.2475252   6.5946065  90.2561525  88.8438824   6.3702088  89.5418488
  88.3050223   5.8530811  90.8586973  87.8200280   4.0485501  78.0911716
  88.0725801   3.5267022  77.3295179  86.8824839   3.8851646  78.1938399
  93.0353640   8.4894129  80.5975116  92.3999473   8.5628756  81.3096020
  92.7051047   9.0787728  79.9194195  87.5396569   5.9513606  80.2936091
  87.4232827   5.2758510  80.9617175  87.6498829   5.4645980  79.4768244
  89.8828110   5.4123754  83.9982780  89.5186317   4.8854375  84.7095701
  90.7395226   5.0222223  83.8249265  92.2808930   8.9030632  90.6609959
  91.9809653   9.8055671  90.5525766  91.9359990   8.6362815  91.5131112
  85.7321412   5.3544429  86.6946663  84.8071908   5.2220643  86.9024355
  85.9805825   6.1338648  87.1916606  89.5022818   2.8971311  79.9790795
  89.3822443   3.3428362  80.8176275  88.8075406   3.2456628  79.4204333
  83.0930223   4.9977703  87.5290452  83.2222604   5.2512182  88.4429864
  82.4127674   5.5905411  87.2095107  87.2629710  15.6674953  83.6280926
  87.1853740  16.6182778  83.7069407  86.6591353  15.3220825  84.2855853
  89.7546940   2.8402818  96.2842293  88.9780274   3.3996738  96.2745158
  90.3937503   3.3259601  96.8057163  88.0093312   5.6488271  95.8460260
  88.7507996   6.1873315  95.5695084  87.3030297   6.2754560  96.0031812
  93.4848652   7.7917412  94.4432422  93.8932008   7.3499822  93.6987054
  92.7625913   7.2170039  94.6966615  89.8379722   2.7290019  91.8165979
  90.6840917   3.1529432  91.9600628  89.7778359   2.0723643  92.5104542
  93.8077466   8.3518602  88.1984711  93.1786329   8.5164317  87.4960779
  93.4203128   8.7660212  88.9695675  97.6866698   9.2873040  85.5529074
  97.0017736   9.6671942  85.0026108  97.7710547   9.8968367  86.2861022
  94.9417630   6.9332999  92.1524418  95.1534525   7.5764759  91.4758799
  94.8947378   6.0995316  91.6846348  89.3605428   8.0893010  85.4634796
  89.8243774   8.3680713  84.6739418  89.0962226   7.1876455  85.2807887
  86.2529509   7.6364492  88.4014559  86.8230866   8.0651760  87.7632044
  86.8437621   7.3547077  89.0998745  88.2974314   4.2116163  82.2724361
  88.9998358   4.6637207  82.7398287  87.9654943   3.5699982  82.9004254
  86.7454676   2.8027919  96.6475570  86.1153336   3.4844200  96.8810967
  86.6390764   2.6911001  95.7028709  82.0399648   2.4699716  87.5741495
  81.2498702   2.7257244  87.0981605  82.5310896   3.2848053  87.6793535
  96.0563458   9.8104955  90.3246775  96.8780901   9.4085142  90.0429457
  96.0525861   9.7073189  91.2762891  83.9914394   2.8344295  84.5324971
  83.1945557   2.9462989  85.0508467  83.7639986   3.1730947  83.6665862
  89.8220061   9.3588998  92.4807486  89.8864494   9.8209405  93.3165658
  89.1130985   8.7286363  92.6089796  80.3237351   2.7230206  90.0056485
  80.5745390   3.6077216  90.2714061  80.8596900   2.5434808  89.2331577
  89.5368079  11.0257105  82.3486466  89.4013754  11.8708641  82.7771314
  90.0777891  11.2276383  81.5852400  82.9897476   8.5432544  82.9214391
  83.5021997   9.3375794  83.0719956  83.6420189   7.8458834  82.8547993
  84.7992361  11.6598300  85.0037144  84.9758989  12.5816264  84.8158128
  85.5949194  11.3456719  85.4331524  84.0844717   3.7062932  94.8799308
  83.9698233   2.8048189  95.1806407  83.2289235   3.9526628  94.5284124
  91.1636555  11.6480672  96.4786808  90.7200409  10.8617051  96.1607713
  91.8253769  11.8359822  95.8130699  85.9223676  13.1776474  91.0047487
  86.4731101  13.0493537  90.2324481  85.0835152  13.4771363  90.6542380
  93.2617793  11.9283472  94.5068210  93.2436269  12.7492353  94.0148479
  94.1837713  11.8037547  94.7318351  89.7190847   9.4427601  95.3491718
  90.2519184   8.6815890  95.1191026  89.1904929   9.1501253  96.0915872
  80.9546393   6.8721198  83.6973962  81.7921615   7.2818206  83.4807670
  81.1324661   5.9320640  83.6674156  92.8510825   4.5396278  79.3857795
  92.3357449   5.3100883  79.6246182  92.5788134   3.8661415  80.0090856
  97.8245099   7.2928633  81.3210968  97.0474542   6.9539793  80.8766130
  98.5036580   7.2981256  80.6465933  91.0843560   8.5713594  82.8610530
  90.5564922   7.8366353  82.5483767  90.5831063   9.3488270  82.6150498
  96.0636406   6.7662614  87.9777576  95.4060081   7.4561876  88.0657705
  96.8676805   7.1559046  88.3211563  94.8741865   5.1206987  86.0281518
  95.3873747   5.7536979  86.5303228  95.5243089   4.5208183  85.6624878
  86.1431875   1.2637721  79.2413027  85.3069187   1.6012408  79.5622301
  86.0036644   1.1286701  78.3040164  89.2296160   6.3893804  75.8645503
  88.3223222   6.1583058  76.0636652  89.7267192   5.5931423  76.0519484
  92.1364239  15.0991311  78.7842189  91.4625938  15.4023008  79.3927147
  92.5230061  15.9020392  78.4347646  91.3522696   2.5956443  88.2739858
  90.4345257   2.8171390  88.1161547  91.7682839   2.6702753  87.4151566
  92.1357744   3.9947858  83.4042539  92.8829563   4.5069256  83.0949661
  92.4049333   3.6731911  84.2646932  90.4084394   6.4906399  80.3869493
  89.4995613   6.2065432  80.4841963  90.4379478   6.9105478  79.5272800
  95.6403661  10.1012989  84.1560661  95.1865988   9.2603898  84.2125851
  95.0097628  10.7374387  84.4935441  94.0836600  11.9389485  85.0910479
  94.3759575  12.4994542  84.3722844  94.5935221  12.2318046  85.8463638
  80.9772564   4.2111913  84.3684695  80.7796964   3.6181274  83.6435762
  80.4219228   3.9064123  85.0860634  88.9569288   4.1035020  86.4879288
  89.0117898   3.1508856  86.4121765  88.1460490   4.2594459  86.9720587
  90.1060482   8.0315143  77.7257572  89.6679911   7.3151002  77.2663209
  90.8470922   8.2591258  77.1642663  86.8961648   2.7212079  84.2469667
  86.0829513   3.0206250  84.6534859  87.3920642   2.3267768  84.9644150
  89.0470226  12.7169836  86.1803932  89.0046404  12.9430683  85.2512464
  89.9632924  12.4833211  86.3289733  92.4935859   3.1853904  93.0784561
  92.8485247   3.4125377  93.9379027  93.1407991   3.5172281  92.4561816
  98.2233596   6.3072340  83.7833890  98.0851495   6.4973936  82.8555079
  97.8669815   7.0691723  84.2401941  98.2502976   8.3748867  88.7945162
  98.6839483   8.2824156  89.6428216  98.9634557   8.3506367  88.1565178
  87.1636026   9.5932865  85.9765895  87.9576625   9.0983185  85.7748470
  86.4527719   9.0650728  85.6133600  91.9830871  11.9750961  90.3278262
  92.0367893  12.5441897  91.0955978  91.1145652  12.1452846  89.9632299
  83.4718790   3.7375947  82.0525647  82.5416378   3.6760403  82.2695609
  83.5676262   3.2151900  81.2562289  83.3904339   0.2630760  84.6403889
  83.6511156   1.1776093  84.5313049  84.2121511  -0.2044798  84.7900502
  84.8629264   1.6768517  91.8102714  85.5352318   1.4685879  91.1615362
  84.0359051   1.4790603  91.3707946  99.1118526   8.4172567  91.3278047
  99.3054416   9.3218378  91.5737322  99.0119144   7.9579986  92.1616632
  94.1733634   8.5679310  96.9018928  94.0219141   8.3389862  95.9849011
  94.1638314   9.5249912  96.9150273  90.9418971   6.1411223  91.8865194
  91.8711031   6.2922382  91.7134161  90.5210001   6.2295244  91.0313841
  89.7407302  10.1661887  89.6563732  89.6018388   9.7980672  90.5289670
  88.9521899  10.6809527  89.4847690  90.3355454  15.2670984  80.9989268
  90.5107210  14.7959027  81.8134891  89.6488242  15.8936750  81.2270529
  91.2912518   9.5443490  87.0452570  90.9562350   9.5044260  87.9410219
  90.7916463   8.8788206  86.5722980  85.2656761   4.9511120  92.5705151
  85.1276559   4.2191359  93.1716690  86.1761685   4.8620020  92.2889338
  94.2271709   6.8899524  77.3189629  93.6100880   6.1646352  77.2222682
  93.7588198   7.6508885  76.9756703  87.8939062   4.6631079  92.0588830
  88.6038681   4.0224272  92.0175449  87.8508370   4.9143974  92.9815011
  95.8825841  11.5998433  94.9795410  95.8238387  10.9157653  94.3125993
  96.2845359  12.3417423  94.5276036  86.6067996   1.6496297  93.8784470
  86.0705353   1.1987036  94.5306066  86.0184705   1.7842206  93.1354934
  84.9016540  18.4160347  87.7729128  85.1413138  19.0478871  88.4508147
  84.0585736  18.0648387  88.0594488  95.8843248   9.5638017  93.2109389
  94.9970027   9.2263938  93.3335788  96.4541799   8.8321048  93.4478155
  77.5372395   5.8962108  86.5352441  78.2243435   5.5823838  85.9473456
  77.3820524   6.8003473  86.2619692  82.3407117   0.7852305  90.9637464
  82.2565306   0.1777974  90.2287874  81.5189824   1.2761323  90.9646961
  89.4144401  14.2239469  90.1770632  89.3414573  15.0294440  90.6889937
  88.9721795  14.4231435  89.3518654  89.2034181  13.4611239  83.6873454
  88.4201703  14.0032919  83.7811679  89.9026926  13.9785219  84.0867695
  91.8743085  14.1226303  92.3328791  92.5871057  14.7573768  92.2604693
  91.3833114  14.2190169  91.5168793  93.5960612   8.0277556  83.9046083
  92.6616891   8.1479018  83.7350787  93.7737280   7.1250022  83.6406093
  86.9254999  11.8720746  93.1534362  87.6264458  12.5057229  93.3063756
  86.4550114  12.2135478  92.3930001  95.0509394  10.2138696  81.4382269
  95.3269238  10.0995291  82.3476143  94.1813893   9.8156181  81.3994442
  91.6863458  14.4625047  85.0815083  91.8685853  13.6446703  85.5442835
  92.5096444  14.6792739  84.6439973  92.0205624  13.3893232  82.3430131
  92.5493390  12.8785687  81.7300293  92.2833843  13.0735762  83.2075664
  90.7743858   5.1685165  97.4652949  90.0984495   5.0679294  98.1355325
  91.5971491   5.0124379  97.9288947  82.5222717  11.4057102  90.0865465
  83.1076153  10.6600789  90.2193369  82.3247555  11.7161058  90.9702129
  85.3761372  14.4408349  85.1027907  84.7071747  14.9254477  84.6191947
  85.2374242  14.6877569  86.0171286  77.1140371   3.9762702  88.8069908
  77.1524471   3.4426292  89.6007026  76.6080664   3.4497907  88.1880885
  89.5166640  16.4752092  91.7010565  90.0684948  16.6383714  92.4659651
  89.8572834  17.0656530  91.0290590  83.9683406   0.8950375  95.9505484
  84.5955445   0.5127452  96.5643009  83.1111325   0.6764577  96.3161177
  94.3677515  11.3013350  97.5559220  94.9117419  11.9143308  97.0614175
  93.7864360  11.8592928  98.0726233  80.7448949   2.7026804  81.8823839
  81.0402390   1.7937482  81.8290893  79.8436985   2.6814543  81.5604841
  92.6535028  14.4234068  88.6874248  92.5286167  13.6223808  88.1785193
  93.3114119  14.9180261  88.1988217  84.2743196   0.7782800  87.8651388
  83.5529782   1.3918768  87.7258861  85.0636452   1.3140565  87.7868034
  94.7169936  12.2243088  90.3153798  93.7700272  12.1048439  90.2432124
  95.0652709  11.3365586  90.3980059  82.4736791   0.3840902  82.0063164
  82.1449497  -0.4961720  81.8238270  82.8276161   0.3288570  82.8939554
  91.7216369  12.0195804  86.5158150  91.5741332  11.0912512  86.6965720
  92.5469863  12.0415895  86.0315225  85.5878614   0.6713871  82.3738642
  85.9274686   1.1999793  81.6517250  86.0350734   1.0094277  83.1497209
  95.3250491  12.8424363  87.6023023  96.2497039  12.6367224  87.4647474
  95.1565795  12.5940764  88.5112364  86.4577105   2.8319355  88.0861012
  86.3121686   3.1459658  88.9785293  85.9802309   3.4504255  87.5331910
  95.1145807  13.3610030  82.9585114  95.2882685  12.7956453  82.2058966
  95.6074699  14.1610925  82.7764604  80.9322767   5.3724700  91.0248673
  80.3876235   6.1484507  91.1568947  81.8102117   5.7195504  90.8667794
  96.1020980  12.6776795  80.0582012  96.7971885  13.2983488  80.2769327
  96.4444130  11.8272146  80.3334390  81.7188789   4.4994596  93.9178830
  80.9770525   4.6477231  94.5043460  81.3981533   4.7602861  93.0545579
  98.0012403  10.1276500  81.5869343  98.5263727  10.4663773  80.8618663
  97.9134756   9.1923516  81.4032478  89.6632452  14.0410574  93.7159220
  89.9719578  13.7959721  94.5881919  90.4607934  14.2457212  93.2278090
  89.6853064  16.1948484  85.9464596  89.2458054  15.7024862  86.6397453
  90.4361181  15.6521451  85.7056672  82.1645403  12.3860024  85.9489224
  82.9903423  12.0863796  85.5687868  81.8139455  11.6167647  86.3979013
  87.1326936  11.7386493  88.0186898  86.5106945  11.0757198  87.7189126
  87.8031803  11.7647625  87.3360546  80.3654008  10.3046351  86.9078158
  79.5285916   9.8768525  86.7262159  80.3377653  10.4978794  87.8448949
  97.6906309  10.7609404  96.8920541  96.9001853  10.7433543  96.3525040
  97.4539664  11.2997698  97.6469578  97.8104184   7.6101870  94.2053270
  97.8602189   7.4451878  95.1468792  97.7018107   6.7429129  93.8151150
  86.6940443  10.2890416  81.4945358  86.8428563  10.9725880  80.8412031
  87.5006886  10.2695506  82.0094814  99.3122381  10.0298812  94.4495291
  99.0207189  10.3928792  95.2858752  98.6994512   9.3165820  94.2708623
 100.5118063   7.5951692  86.9697861 101.3464955   8.0341496  87.1335422
 100.6477192   7.1190345  86.1506107  97.5609569   5.1531427  92.9175349
  98.0363691   5.3459073  92.1094200  96.6375135   5.2090612  92.6718733
  84.4493076   6.3155594  82.5006427  84.2039118   5.4117924  82.6986638
  84.6188990   6.3172744  81.5585905  83.7188723   2.0483951  79.9992589
  83.0257968   2.1228306  79.3432625  83.4740475   1.2844295  80.5214106
  90.1935848  12.7838547  78.9657106  89.6209815  13.4028734  78.5127578
  90.7668642  13.3337908  79.4997028  93.4133108  13.0675697  80.0965688
  94.3463781  13.0021258  80.2998564  93.3256321  13.9031963  79.6380221
  96.0421125  12.3841567  77.0569636  95.9634756  12.0501431  77.9505394
  96.8630792  12.8763335  77.0561108  90.5782647   4.1199359  76.3073158
  91.5241752   3.9905567  76.3761576  90.1996892   3.3814021  76.7842587
  90.4621339   8.1717105  97.7673815  91.3824349   8.3495704  97.9613862
  90.4270922   7.2273151  97.6153515  88.7625564   2.0449336  76.2428044
  87.8557019   1.7482448  76.3190757  89.0401545   1.7479154  75.3762330
  79.6803504   3.3655699  86.6927090  79.3606289   2.5121007  86.4001464
  79.1336933   3.5804277  87.4485057  83.4583412   6.0818140  90.4096597
  83.6769422   7.0135248  90.4284630  83.8709186   5.7226114  91.1951400
  88.3311277   1.6551346  99.7999345  88.2308004   2.6045703  99.7311437
  88.1132819   1.3269585  98.9275416  79.5491764   6.9858611  88.6620212
  78.8555236   6.5712563  88.1490166  80.2964755   7.0279147  88.0653631
  88.1942547   5.0848485  98.6164407  87.7109629   5.8848845  98.8228296
  88.2803486   5.0956430  97.6631851  81.4628507   6.9176864  86.5386226
  81.4399195   7.0164552  85.5868110  81.7729143   7.7642015  86.8603393
  84.1215885   8.9753019  90.6532841  85.0759138   8.9436962  90.5862772
  83.9228408   8.5143643  91.4683067  84.7115267   7.5454135  93.2203639
  85.5308156   8.0398214  93.2438476  84.9852075   6.6286104  93.1921206
  82.4766114  14.5172639  87.6703039  82.3420582  13.7573040  87.1041037
  82.0598176  15.2413539  87.2031828  93.6125077   9.7009562  76.6779614
  94.3160927   9.9059565  77.2937270  92.8887725  10.2686324  76.9428698
  94.4422887   5.4519424  82.7981884  94.3858088   5.9087975  81.9589517
  94.9951229   4.6910108  82.6204727  85.6335239  15.4141956  87.8821481
  85.5167624  16.3587388  87.7800172  84.8127686  15.1115517  88.2707281
  95.5211774  10.1392092  78.7278074  96.3557378   9.7073290  78.5455549
  95.3596117   9.9674105  79.6554969  95.1757666   6.6424205  80.0934413
  95.1206470   6.4768476  79.1522858  94.5503721   7.3500238  80.2496603
  79.9650181   1.8792269  93.9195836  80.6109045   1.3691223  94.4083061
  79.7567332   2.6160951  94.4939261  92.4903573   8.9473117  99.4187976
  93.3594733   9.1213769  99.0574611  92.0110325   9.7667534  99.2963706
  86.6589754  16.0670218  91.0977410  87.5617000  16.0993828  91.4143905
  86.4327124  15.1370669  91.1123746  88.4143356  14.8201204  87.7587488
  87.4638987  14.8203066  87.6451861  88.7175842  14.0733939  87.2423523
 104.1496049  20.6561743  88.8233251 104.7874459  20.5368490  88.1196591
 104.0316892  21.6042587  88.8821203 100.9585755  20.6089171  88.7594776
 100.6204267  20.4930236  87.8715310 101.8275524  20.2080336  88.7395782
  96.8172571  22.4624647  84.7491667  96.2537436  22.3714584  83.9807954
  96.7024966  21.6424552  85.2294159 101.4405538  21.7624023  94.7180981
 101.4294179  21.3676821  93.8461485 101.6026178  21.0290095  95.3114753
  94.3637003  23.9575839  87.5875887  95.1558295  23.6166663  87.1722186
  94.6033653  24.0670814  88.5078040 102.3972130  26.1295615  80.0606131
 101.7460110  26.7149695  79.6740145 103.1916493  26.6601810  80.1201169
  96.3227757  23.2184752  80.4593266  97.0958633  22.6713739  80.3206142
  96.6753156  24.0829001  80.6707727  98.1612800  24.5461134  93.6660165
  97.8702665  25.4506765  93.5506831  98.7969784  24.5877662  94.3804235
  99.0869006  21.9237983  90.2561525  99.6832579  21.6994005  89.5418488
  99.1443978  21.1822728  90.8586973  98.6594035  19.3777418  78.0911716
  98.9119555  18.8558939  77.3295179  97.7218594  19.2143564  78.1938399
 103.7037318  18.3813197  85.8986459 104.4900407  17.9632620  85.5476876
 103.9676022  19.2859289  86.0668107 103.8747395  23.8186047  80.5975116
 103.2393228  23.8920673  81.3096020 103.5444801  24.4079646  79.9194195
 109.1045745  18.3188430  86.8019437 109.8370917  17.7487647  87.0357267
 108.3485100  17.9310030  87.2425943  98.3790324  21.2805524  80.2936091
  98.2626582  20.6050428  80.9617175  98.4892583  20.7937898  79.4768244
 100.7221864  20.7415671  83.9982780 100.3580072  20.2146292  84.7095701
 101.5788980  20.3514140  83.8249265 106.6271165  12.0310004  91.2614046
 106.2954490  12.9005415  91.0375261 106.0316778  11.7146288  91.9408076
 100.3627351  15.7705571  78.9944128 100.5301754  16.6385807  79.3614599
 100.1724520  15.9332853  78.0705418 103.1202685  24.2322550  90.6609959
 102.8203408  25.1347589  90.5525766 102.7753744  23.9654733  91.5131112
  96.5715166  20.6836347  86.6946663  95.6465663  20.5512561  86.9024355
  96.8199579  21.4630566  87.1916606 106.5199828  16.7505090  88.3407396
 105.6116706  16.6820498  88.0466157 106.4687424  17.2277035  89.1689222
 100.3416572  18.2263228  79.9790795 100.2216197  18.6720279  80.8176275
  99.6469161  18.5748546  79.4204333  93.9323977  20.3269620  87.5290452
  94.0616358  20.5804099  88.4429864  93.2521428  20.9197328  87.2095107
  98.1023464  30.9966870  83.6280926  98.0247494  31.9474695  83.7069407
  97.4985108  30.6512743  84.2855853 100.5940694  18.1694736  96.2842293
  99.8174028  18.7288656  96.2745158 101.2331257  18.6551519  96.8057163
 108.3861475  14.9521528  90.1185270 107.7435855  15.2454062  89.4725065
 107.8816403  14.8374449  90.9238467 106.0401638  18.6984702  80.8071129
 106.9519495  18.9312088  80.6318827 105.5311286  19.2821746  80.2446208
  98.8487066  20.9780189  95.8460260  99.5901751  21.5165233  95.5695084
  98.1424052  21.6046478  96.0031812 104.3242406  23.1209329  94.4432422
 104.7325762  22.6791740  93.6987054 103.6019668  22.5461957  94.6966615
 100.6773476  18.0581936  91.8165979 101.5234671  18.4821350  91.9600628
 100.6172114  17.4015561  92.5104542 104.6471221  23.6810520  88.1984711
 104.0180083  23.8456234  87.4960779 104.2596883  24.0952130  88.9695675
 108.5260453  24.6164958  85.5529074 107.8411491  24.9963859  85.0026108
 108.6104302  25.2260285  86.2861022 103.8272921  15.7186305  93.4747152
 103.5833853  16.4728365  92.9381428 104.1032852  16.0971652  94.3094399
 105.7811384  22.2624917  92.1524418 105.9928279  22.9056677  91.4758799
 105.7341133  21.4287234  91.6846348 103.3837613  14.8742738  89.0560990
 102.5222092  15.1723991  89.3477728 103.4100048  15.0913136  88.1242023
 100.1999183  23.4184928  85.4634796 100.6637528  23.6972631  84.6739418
  99.9355981  22.5168373  85.2807887  97.0923264  22.9656410  88.4014559
  97.6624621  23.3943678  87.7632044  97.6831376  22.6838994  89.0998745
  99.1368069  19.5408081  82.2724361  99.8392112  19.9929124  82.7398287
  98.8048697  18.8991899  82.9004254  97.5848430  18.1319837  96.6475570
  96.9547091  18.8136118  96.8810967  97.4784518  18.0202919  95.7028709
  92.8793403  17.7991633  87.5741495  92.0892457  18.0549162  87.0981605
  93.3704650  18.6139971  87.6793535 106.8957212  25.1396872  90.3246775
 107.7174656  24.7377060  90.0429457 106.8919615  25.0365107  91.2762891
  94.8308148  18.1636212  84.5324971  94.0339311  18.2754907  85.0508467
  94.6033740  18.5022865  83.6665862 100.6613816  24.6880916  92.4807486
 100.7258248  25.1501323  93.3165658  99.9524740  24.0578281  92.6089796
  91.1631106  18.0522124  90.0056485  91.4139144  18.9369134  90.2714061
  91.6990654  17.8726725  89.2331577 114.9863205  21.4835621  86.6731747
 114.2326914  20.9143019  86.5175751 115.1210746  21.4498285  87.6202382
 100.3761833  26.3549023  82.3486466 100.2407508  27.2000559  82.7771314
 100.9171646  26.5568301  81.5852400  96.8629173  12.4340603  99.0100821
  96.4696119  11.8806802  99.6848466  97.6795313  12.7451181  99.4007339
  93.8291231  23.8724461  82.9214391  94.3415751  24.6667711  83.0719956
  94.4813944  23.1750752  82.8547993  95.6386115  26.9890217  85.0037144
  95.8152744  27.9108182  84.8158128  96.4342949  26.6748637  85.4331524
  99.7797134  13.8498482  96.6021078 100.5206847  14.4505635  96.5225540
 100.0115057  13.1076120  96.0439121  94.9238472  19.0354849  94.8799308
  94.8091987  18.1340107  95.1806407  94.0682990  19.2818546  94.5284124
 102.0030310  26.9772590  96.4786808 101.5594164  26.1908968  96.1607713
 102.6647523  27.1651740  95.8130699  96.7617431  28.5068391  91.0047487
  97.3124856  28.3785455  90.2324481  95.9228907  28.8063280  90.6542380
 104.1011548  27.2575390  94.5068210 104.0830023  28.0784271  94.0148479
 105.0231468  27.1329465  94.7318351 100.5584602  24.7719519  95.3491718
 101.0912939  24.0107807  95.1191026 100.0298683  24.4793171  96.0915872
 103.7254297   9.8779585  90.8785360 103.3818566  10.7681227  90.8024470
 104.0933259   9.6881243  90.0154945  91.7940147  22.2013115  83.6973962
  92.6315369  22.6110124  83.4807670  91.9718415  21.2612558  83.6674156
 103.6904580  19.8688196  79.3857795 103.1751203  20.6392801  79.6246182
 103.4181888  19.1953332  80.0090856 101.2751691  14.7137897  84.4443033
 100.4193287  14.3244747  84.2648672 101.6878642  14.7929858  83.5842819
 102.8050837  12.2484240  88.8434593 102.3015633  12.2114375  88.0302398
 103.0981444  13.1576983  88.9031250  99.0493723  12.3322970  87.8500775
  99.9146720  12.1365779  87.4906664  99.1171232  12.1033322  88.7770131
 108.6638854  22.6220551  81.3210968 107.8868296  22.2831710  80.8766130
 109.3430335  22.6273174  80.6465933 103.4790883  17.7415288  81.2117576
 103.1741018  18.0561437  82.0627719 104.4321325  17.8196708  81.2544909
 101.9237315  23.9005512  82.8610530 101.3958676  23.1658271  82.5483767
 101.4224817  24.6780188  82.6150498 106.9030161  22.0954532  87.9777576
 106.2453835  22.7853793  88.0657705 107.7070560  22.4850964  88.3211563
  96.6556042  14.5625178  85.2217141  97.2299794  14.3400359  84.4890334
  97.2427025  14.6313872  85.9745743 105.7135619  20.4498905  86.0281518
 106.2267501  21.0828897  86.5303228 106.3636843  19.8500100  85.6624878
  96.9825629  16.5929639  79.2413027  96.1462942  16.9304325  79.5622301
  96.8430399  16.4578619  78.3040164  98.9578710  11.4366427  83.9492211
  98.3043122  11.1215444  83.3248826  98.9159184  10.8142167  84.6752034
 100.0689915  21.7185722  75.8645503  99.1616977  21.4874975  76.0636652
 100.5660947  20.9223341  76.0519484 102.9757994  30.4283229  78.7842189
 102.3019692  30.7314926  79.3927147 103.3623816  31.2312309  78.4347646
 102.1916450  17.9248360  88.2739858 101.2739012  18.1463307  88.1161547
 102.6076594  17.9994671  87.4151566 102.9751498  19.3239776  83.4042539
 103.7223317  19.8361173  83.0949661 103.2443088  19.0023829  84.2646932
 101.2478148  21.8198317  80.3869493 100.3389367  21.5357350  80.4841963
 101.2773232  22.2397395  79.5272800 106.4797416  25.4304906  84.1560661
 106.0259743  24.5895816  84.2125851 105.8491382  26.0666305  84.4935441
 105.4230335  16.3596892  85.3861328 104.6853092  15.8474278  85.7171571
 105.6757109  15.9197274  84.5744605 104.9230355  27.2681403  85.0910479
 105.2153329  27.8286460  84.3722844 105.4328975  27.5609964  85.8463638
 105.5241963   9.1373144  85.9803097 105.8300839   8.2770508  85.6929012
 106.2494567   9.7290764  85.7802091  91.8166319  19.5403831  84.3684695
  91.6190718  18.9473192  83.6435762  91.2612983  19.2356041  85.0860634
  99.7963042  19.4326937  86.4879288  99.8511652  18.4800774  86.4121765
  98.9854244  19.5886376  86.9720587 100.9454236  23.3607060  77.7257572
 100.5073666  22.6442919  77.2663209 101.6864677  23.5883175  77.1642663
  97.7355402  18.0503997  84.2469667  96.9223268  18.3498168  84.6534859
  98.2314396  17.6559686  84.9644150  99.8863980  28.0461754  86.1803932
  99.8440159  28.2722600  85.2512464 100.8026679  27.8125129  86.3289733
 103.3329614  18.5145822  93.0784561 103.6879002  18.7417295  93.9379027
 103.9801745  18.8464198  92.4561816 109.0627351  21.6364257  83.7833890
 108.9245249  21.8265853  82.8555079 108.7063570  22.3983640  84.2401941
  97.2269477  15.6222353  89.8630902  97.8668856  15.4811112  89.1653866
  96.3947008  15.3356866  89.4869504 109.0896730  23.7040784  88.7945162
 109.5233237  23.6116074  89.6428216 109.8028311  23.6798285  88.1565178
  98.0029781  24.9224783  85.9765895  98.7970379  24.4275103  85.7748470
  97.2921473  24.3942646  85.6133600 102.8224625  27.3042879  90.3278262
 102.8761648  27.8733815  91.0955978 101.9539407  27.4744764  89.9632299
  94.3112544  19.0667865  82.0525647  93.3810132  19.0052320  82.2695609
  94.4070016  18.5443817  81.2562289  94.2298093  15.5922678  84.6403889
  94.4904911  16.5068011  84.5313049  95.0515266  15.1247120  84.7900502
  95.7023019  17.0060435  91.8102714  96.3746072  16.7977797  91.1615362
  94.8752805  16.8082521  91.3707946 109.9512280  23.7464485  91.3278047
 110.1448170  24.6510296  91.5737322 109.8512898  23.2871904  92.1616632
 101.6048591  13.6322376  93.8268374 100.9576506  14.3312325  93.7332851
 102.3749606  14.0658520  94.1944623 105.0127389  23.8971228  96.9018928
 104.8612895  23.6681780  95.9849011 105.0032068  24.8541829  96.9150273
 101.7812725  21.4703141  91.8865194 102.7104785  21.6214300  91.7134161
 101.3603755  21.5587161  91.0313841 100.5801057  25.4953805  89.6563732
 100.4412143  25.1272589  90.5289670  99.7915653  26.0101444  89.4847690
 101.1749209  30.5962901  80.9989268 101.3500965  30.1250945  81.8134891
 100.4881997  31.2228668  81.2270529 102.1306272  24.8735408  87.0452570
 101.7956105  24.8336178  87.9410219 101.6310218  24.2080124  86.5722980
  96.1050516  20.2803038  92.5705151  95.9670314  19.5483277  93.1716690
  97.0155439  20.1911938  92.2889338 105.0665464  22.2191442  77.3189629
 104.4494634  21.4938270  77.2222682 104.5981952  22.9800802  76.9756703
  98.7332817  19.9922997  92.0588830  99.4432435  19.3516189  92.0175449
  98.6902125  20.2435892  92.9815011 106.7219595  26.9290350  94.9795410
 106.6632141  26.2449570  94.3125993 107.1239114  27.6709340  94.5276036
  97.4461751  16.9788215  93.8784470  96.9099108  16.5278953  94.5306066
  96.8578459  17.1134124  93.1354934  95.7410294  33.7452264  87.7729128
  95.9806892  34.3770788  88.4508147  94.8979491  33.3940304  88.0594488
  96.8564010  16.4376866  76.4410933  95.9793476  16.3165667  76.0773180
  97.3321763  15.6462945  76.1889822 106.7237003  24.8929934  93.2109389
 105.8363781  24.5555856  93.3335788 107.2935554  24.1612966  93.4478155
  88.3766150  21.2254026  86.5352441  89.0637190  20.9115756  85.9473456
  88.2214278  22.1295391  86.2619692  93.1800872  16.1144223  90.9637464
  93.0959061  15.5069892  90.2287874  92.3583578  16.6053241  90.9646961
 100.2538156  29.5531387  90.1770632 100.1808327  30.3586358  90.6889937
  99.8115549  29.7523352  89.3518654 100.0427936  28.7903157  83.6873454
  99.2595457  29.3324837  83.7811679 100.7420681  29.3077136  84.0867695
 103.3524586  14.5997786  86.3307659 103.8493285  13.8467748  86.0108730
 102.5811567  14.6362103  85.7650869 111.2054343  20.3038152  87.9725951
 111.1944219  21.1862867  87.6019884 110.3371723  19.9509702  87.7780488
 102.7136839  29.4518221  92.3328791 103.4264812  30.0865685  92.2604693
 102.2226868  29.5482087  91.5168793 104.4354366  23.3569473  83.9046083
 103.5010645  23.4770936  83.7350787 104.6131035  22.4541940  83.6406093
  99.9359554  16.7415169  86.0579344  99.5657342  16.1886210  86.7460250
 100.4318647  16.1373303  85.5054344 107.8226918  19.1986793  84.4396117
 108.2887370  20.0314784  84.3656420 108.2734418  18.7331774  85.1441375
  97.7648753  27.2012664  93.1534362  98.4658213  27.8349147  93.3063756
  97.2943868  27.5427396  92.3930001 105.8903149  25.5430614  81.4382269
 106.1662993  25.4287209  82.3476143 105.0207648  25.1448099  81.3994442
 105.7943580  11.5667380  88.4787018 104.8806660  11.7971606  88.6469225
 106.2236682  11.6505824  89.3301051 105.5650039  19.7557272  90.9786912
 104.9121489  20.0033179  90.3239365 105.9430419  18.9421410  90.6449390
 102.5257213  29.7916965  85.0815083 102.7079607  28.9738621  85.5442835
 103.3490199  30.0084657  84.6439973 102.8599378  28.7185150  82.3430131
 103.3887145  28.2077604  81.7300293 103.1227598  28.4027680  83.2075664
 101.6137612  20.4977083  97.4652949 100.9378249  20.3971212  98.1355325
 102.4365246  20.3416296  97.9288947  93.3616471  26.7349019  90.0865465
  93.9469908  25.9892707  90.2193369  93.1641310  27.0452976  90.9702129
  96.2155126  29.7700267  85.1027907  95.5465502  30.2546394  84.6191947
  96.0767996  30.0169487  86.0171286  87.9534126  19.3054619  88.8069908
  87.9918225  18.7718210  89.6007026  87.4474419  18.7789825  88.1880885
 100.3560395  31.8044010  91.7010565 100.9078703  31.9675632  92.4659651
 100.6966588  32.3948448  91.0290590  95.3324888  14.1519160  92.3032450
  95.3966215  15.0133991  91.8909848  95.2692008  13.5393162  91.5704809
  94.8077161  16.2242292  95.9505484  95.4349199  15.8419370  96.5643009
  93.9505080  16.0056494  96.3161177 105.2071269  26.6305268  97.5559220
 105.7511173  27.2435226  97.0614175 104.6258114  27.1884846  98.0726233
  91.5842703  18.0318722  81.8823839  91.8796144  17.1229400  81.8290893
  90.6830739  18.0106461  81.5604841 103.4928782  29.7525986  88.6874248
 103.3679922  28.9515725  88.1785193 104.1507873  30.2472179  88.1988217
  95.1136950  16.1074718  87.8651388  94.3923536  16.7210686  87.7258861
  95.9030206  16.6432483  87.7868034 105.5563691  27.5535006  90.3153798
 104.6094026  27.4340357  90.2432124 105.9046464  26.6657504  90.3980059
  97.9163264  13.4429145  94.1392040  98.4397666  13.6891441  94.9018349
  97.6975597  14.2749179  93.7195177  93.3130545  15.7132819  82.0063164
  92.9843251  14.8330198  81.8238270  93.6669916  15.6580488  82.8939554
 102.5610124  27.3487722  86.5158150 102.4135086  26.4204429  86.6965720
 103.3863617  27.3707813  86.0315225  96.4272368  16.0005789  82.3738642
  96.7668441  16.5291710  81.6517250  96.8744489  16.3386195  83.1497209
 106.1644246  28.1716281  87.6023023 107.0890793  27.9659142  87.4647474
 105.9959549  27.9232682  88.5112364  99.1215809  14.3842840  91.8241710
  98.7812629  13.5850653  92.2262390  98.4154815  14.6844551  91.2518543
  99.7732281  11.4692152  90.2769033 100.5958350  10.9952630  90.1547923
 100.0170344  12.2482636  90.7767719  98.4140515  14.4980411  80.5731935
  99.1348878  14.8761663  80.0695652  97.7905819  15.2169287  80.6766913
 102.5571638  15.2025560  81.5090267 102.7735253  16.0850197  81.2079095
 102.0765705  14.8111773  80.7795909  97.2970860  18.1611273  88.0861012
  97.1515440  18.4751576  88.9785293  96.8196063  18.7796173  87.5331910
  99.1567242  15.1513821  88.1341901  99.1428811  14.2554914  87.7974199
  99.8739671  15.1584485  88.7680187 101.0093373  15.5851161  90.1795029
 100.7511151  16.5068232  90.1779359 100.4778414  15.1881596  90.8695493
 105.9539562  28.6901948  82.9585114 106.1276439  28.1248371  82.2058966
 106.4468453  29.4902843  82.7764604  91.7716522  20.7016617  91.0248673
  91.2269990  21.4776425  91.1568947  92.6495872  21.0487422  90.8667794
  98.5604138  14.0328201  83.4029471  98.6820050  13.1044847  83.6020359
  98.2706181  14.0466887  82.4907787 101.4295329  11.7183111  86.5396191
 101.4517026  11.7822445  85.5848171 101.8463388  10.8787620  86.7336697
 111.8078953  21.4538371  84.5775414 112.2510099  20.7045696  84.1794537
 110.9305463  21.4448507  84.1949146 106.9414734  28.0068713  80.0582012
 107.6365639  28.6275405  80.2769327 107.2837885  27.1564064  80.3334390
  92.5582544  19.8286513  93.9178830  91.8164280  19.9769149  94.5043460
  92.2375288  20.0894779  93.0545579 108.8406158  25.4568418  81.5869343
 109.3657482  25.7955691  80.8618663 108.7528510  24.5215433  81.4032478
 100.5026206  29.3702492  93.7159220 100.8113333  29.1251638  94.5881919
 101.3001688  29.5749130  93.2278090 100.5246818  31.5240401  85.9464596
 100.0851809  31.0316780  86.6397453 101.2754935  30.9813369  85.7056672
  93.0039157  27.7151942  85.9489224  93.8297177  27.4155714  85.5687868
  92.6533209  26.9459565  86.3979013  97.9720690  27.0678410  88.0186898
  97.3500700  26.4049115  87.7189126  98.6425557  27.0939542  87.3360546
  91.2047762  25.6338269  86.9078158  90.3679671  25.2060443  86.7262159
  91.1771408  25.8270712  87.8448949  98.0445218  15.5460198  97.6119404
  98.0933373  16.4222321  97.2297174  98.5867732  15.0037591  97.0391047
 108.5300064  26.0901322  96.8920541 107.7395607  26.0725461  96.3525040
 108.2933418  26.6289615  97.6469578 108.6497939  22.9393788  94.2053270
 108.6995944  22.7743795  95.1468792 108.5411862  22.0721047  93.8151150
  97.5334197  25.6182334  81.4945358  97.6822318  26.3017798  80.8412031
  98.3400641  25.5987424  82.0094814 105.9401701  18.9224716  95.5212576
 106.8411564  18.7831181  95.2296574 106.0149676  19.0879171  96.4610754
 100.2744506  16.2991571  94.3665763  99.4047816  16.5925137  94.0948351
 100.5103987  16.8832016  95.0873026 110.1516135  25.3590730  94.4495291
 109.8600944  25.7220710  95.2858752 109.5388267  24.6457738  94.2708623
 111.3511818  22.9243609  86.9697861 112.1858709  23.3633413  87.1335422
 111.4870947  22.4482263  86.1506107 108.4003324  20.4823344  92.9175349
 108.8757445  20.6750991  92.1094200 107.4768889  20.5382530  92.6718733
  95.2886830  21.6447511  82.5006427  95.0432872  20.7409841  82.6986638
  95.4582745  21.6464662  81.5585905 102.9783540  12.5171188  91.8831183
 103.4965484  13.2532215  91.5577672 102.6238673  12.8235181  92.7177942
  94.5582478  17.3775869  79.9992589  93.8651723  17.4520224  79.3432625
  94.3134230  16.6136213  80.5214106 103.2296134   8.9371470  87.4032080
 103.5097888   8.2694659  88.0292506 104.0146741   9.1300566  86.8906743
 101.0329603  28.1130464  78.9657106 100.4603570  28.7320651  78.5127578
 101.6062397  28.6629826  79.4997028 107.1004993  17.3589104  91.1503655
 108.0522416  17.4587202  91.1715879 106.9308443  16.5667373  91.6601739
 105.1219372  14.4444687  91.3363056 104.5269304  14.7249700  90.6409544
 104.8369069  14.9338588  92.1079797 104.2526863  28.3967614  80.0965688
 105.1857536  28.3313176  80.2998564 104.1650075  29.2323881  79.6380221
 106.8814879  27.7133485  77.0569636 106.8028511  27.3793348  77.9505394
 107.7024546  28.2055253  77.0561108 109.5793070  20.5795224  90.2645954
 109.5469391  19.6411225  90.4505638 110.1893694  20.6579261  89.5311779
 101.4176401  19.4491277  76.3073158 102.3635506  19.3197485  76.3761576
 101.0390646  18.7105939  76.7842587 109.7287559  17.3706267  90.3104238
 109.2126608  16.5864724  90.1234166 110.6127507  17.0424984  90.4750757
 107.3898286  11.1147283  86.2700050 107.1923107  10.8062371  87.1543382
 107.9997991  11.8408922  86.3997980 115.3969620  21.6411231  89.4051991
 116.1273009  21.3796519  89.9659694 114.7876566  20.9039953  89.4454059
 113.4784917  19.7819093  90.0026442 112.7518081  19.6475058  89.3942934
 113.0632204  20.0895922  90.8083160 101.3015094  23.5009023  97.7673815
 102.2218103  23.6787622  97.9613862 101.2664677  22.5565068  97.6153515
  99.6019319  17.3741253  76.2428044  98.6950774  17.0774366  76.3190757
  99.8795300  17.0771071  75.3762330  90.5197259  18.6947617  86.6927090
  90.2000043  17.8412925  86.4001464  89.9730687  18.9096195  87.4485057
  94.2977166  21.4110058  90.4096597  94.5163176  22.3427166  90.4284630
  94.7102940  21.0518032  91.1951400 101.2181384  11.9178143  82.3972285
 100.4082113  11.5725228  82.7727531 101.9065801  11.6085687  82.9859896
 103.1471933  10.9956190  84.0196582 103.7002971  11.4151643  84.6786605
 103.3842019  10.0691938  84.0619538  99.1705032  16.9843263  99.7999345
  99.0701759  17.9337620  99.7311437  98.9526574  16.6561502  98.9275416
  98.3718103  14.2328189  76.3840023  99.2337267  14.5583087  76.6435840
  98.5568447  13.4459684  75.8713089  90.3885519  22.3150528  88.6620212
  89.6948990  21.9004481  88.1490166  91.1358510  22.3571065  88.0653631
 106.5250740  13.1056715  83.5275246 105.9449409  13.7641519  83.1453298
 106.2586672  12.2834060  83.1162663 104.9754306  12.5061773  85.7296566
 105.4754084  12.6178307  84.9210885 105.6189914  12.2022826  86.3697375
  99.0336302  20.4140402  98.6164407  98.5503384  21.2140762  98.8228296
  99.1197241  20.4248347  97.6631851  92.3022261  22.2468782  86.5386226
  92.2792950  22.3456469  85.5868110  92.6122898  23.0933933  86.8603393
  94.9609639  24.3044937  90.6532841  95.9152893  24.2728879  90.5862772
  94.7622163  23.8435561  91.4683067  95.5509021  22.8746053  93.2203639
  96.3701910  23.3690132  93.2438476  95.8245829  21.9578021  93.1921206
 105.3075618  15.2656805  82.5831594 104.4201473  15.5506456  82.3651789
 105.7229607  15.1050569  81.7358871 108.6590154  15.2903326  86.2985933
 109.4350544  15.7799779  86.5710550 107.9338288  15.7161381  86.7557803
 111.0962712  16.0030946  87.3559874 111.6907203  15.7626682  86.6453182
 111.1689296  15.2838076  87.9833410  93.3159868  29.8464557  87.6703039
  93.1814336  29.0864957  87.1041037  92.8991930  30.5705456  87.2031828
 104.4518831  25.0301480  76.6779614 105.1554681  25.2351483  77.2937270
 103.7281480  25.5978242  76.9428698 105.2816641  20.7811341  82.7981884
 105.2251843  21.2379893  81.9589517 105.8344984  20.0202026  82.6204727
 109.0921447  16.5701073  83.6232004 108.8358382  16.1697709  84.4540211
 108.4674315  17.2844867  83.4982143 113.4033785  19.3097146  86.1303295
 112.8433343  19.3790336  86.9034857 112.7977289  19.1338131  85.4102791
  96.4728994  30.7433874  87.8821481  96.3561378  31.6879306  87.7800172
  95.6521440  30.4407435  88.2707281 106.3605528  25.4684009  78.7278074
 107.1951132  25.0365208  78.5455549 106.1989871  25.2966023  79.6554969
 106.0151421  21.9716123  80.0934413 105.9600224  21.8060394  79.1522858
 105.3897476  22.6792155  80.2496603  90.8043936  17.2084187  93.9195836
  91.4502799  16.6983141  94.4083061  90.5961087  17.9452869  94.4939261
 103.3297328  24.2765034  99.4187976 104.1988487  24.4505687  99.0574611
 102.8504079  25.0959451  99.2963706  99.3247546  11.4724232  79.6719732
  99.3126216  12.4166072  79.8288003 100.2170968  11.2894377  79.3779193
  97.4983508  31.3962135  91.0977410  98.4010755  31.4285746  91.4143905
  97.2720878  30.4662586  91.1123746  99.2537110  30.1493122  87.7587488
  98.3032741  30.1494984  87.6451861  99.5569596  29.4025857  87.2423523
 103.1399666   8.0667008  83.9265669 102.3732061   7.5125495  84.0722351
 103.5510371   8.1388877  84.7879820  95.1441427  14.3551804  98.0170850
  96.0072888  13.9988609  98.2274174  94.5706837  14.0165699  98.7046254
 114.9889804  35.9853660  88.8233251 115.6268214  35.8660408  88.1196591
 114.8710646  36.9334504  88.8821203 111.7979510  35.9381088  88.7594776
 111.4598021  35.8222153  87.8715310 112.6669278  35.5372254  88.7395782
 107.6566326  37.7916565  84.7491667 107.0931191  37.7006502  83.9807954
 107.5418721  36.9716469  85.2294159 112.2799293  37.0915940  94.7180981
 112.2687934  36.6968738  93.8461485 112.4419932  36.3582013  95.3114753
 105.2030757  39.2867756  87.5875887 105.9952049  38.9458581  87.1722186
 105.4427408  39.3962732  88.5078040 113.2365884  41.4587533  80.0606131
 112.5853864  42.0441613  79.6740145 114.0310247  41.9893728  80.1201169
 107.1621511  38.5476670  80.4593266 107.9352387  38.0005657  80.3206142
 107.5146910  39.4120919  80.6707727 109.0006554  39.8753052  93.6660165
 108.7096420  40.7798683  93.5506831 109.6363538  39.9169580  94.3804235
 109.9262761  37.2529901  90.2561525 110.5226333  37.0285923  89.5418488
 109.9837732  36.5114646  90.8586973 109.4987789  34.7069336  78.0911716
 109.7513310  34.1850857  77.3295179 108.5612348  34.5435481  78.1938399
 114.5431072  33.7105114  85.8986459 115.3294161  33.2924537  85.5476876
 114.8069776  34.6151206  86.0668107 114.7141149  39.1477965  80.5975116
 114.0786982  39.2212591  81.3096020 114.3838556  39.7371563  79.9194195
 119.9439499  33.6480347  86.8019437 120.6764671  33.0779564  87.0357267
 119.1878855  33.2601948  87.2425943 109.2184078  36.6097442  80.2936091
 109.1020336  35.9342345  80.9617175 109.3286338  36.1229816  79.4768244
 111.5615619  36.0707589  83.9982780 111.1973826  35.5438210  84.7095701
 112.4182735  35.6806058  83.8249265 117.4664920  27.3601922  91.2614046
 117.1348244  28.2297333  91.0375261 116.8710533  27.0438206  91.9408076
 111.2021106  31.0997489  78.9944128 111.3695508  31.9677725  79.3614599
 111.0118275  31.2624770  78.0705418 113.9596439  39.5614468  90.6609959
 113.6597162  40.4639506  90.5525766 113.6147499  39.2946651  91.5131112
 107.4108921  36.0128264  86.6946663 106.4859417  35.8804478  86.9024355
 107.6593334  36.7922484  87.1916606 117.3593583  32.0797008  88.3407396
 116.4510460  32.0112416  88.0466157 117.3081179  32.5568953  89.1689222
 111.1810327  33.5555146  79.9790795 111.0609952  34.0012197  80.8176275
 110.4862915  33.9040464  79.4204333 104.7717732  35.6561538  87.5290452
 104.9010113  35.9096017  88.4429864 104.0915183  36.2489246  87.2095107
 108.9417219  46.3258788  83.6280926 108.8641249  47.2766613  83.7069407
 108.3378862  45.9804660  84.2855853 111.4334449  33.4986653  96.2842293
 110.6567783  34.0580573  96.2745158 112.0725012  33.9843436  96.8057163
 119.2255229  30.2813446  90.1185270 118.5829610  30.5745979  89.4725065
 118.7210158  30.1666366  90.9238467 116.8795393  34.0276619  80.8071129
 117.7913249  34.2604006  80.6318827 116.3705040  34.6113664  80.2446208
 109.6880821  36.3072107  95.8460260 110.4295505  36.8457151  95.5695084
 108.9817806  36.9338395  96.0031812 115.1636161  38.4501247  94.4432422
 115.5719517  38.0083658  93.6987054 114.4413422  37.8753875  94.6966615
 111.5167231  33.3873854  91.8165979 112.3628426  33.8113267  91.9600628
 111.4565868  32.7307478  92.5104542 115.4864975  39.0102438  88.1984711
 114.8573838  39.1748152  87.4960779 115.0990637  39.4244047  88.9695675
 119.3654207  39.9456876  85.5529074 118.6805245  40.3255777  85.0026108
 119.4498056  40.5552202  86.2861022 114.6666676  31.0478222  93.4747152
 114.4227608  31.8020283  92.9381428 114.9426606  31.4263570  94.3094399
 116.6205139  37.5916835  92.1524418 116.8322034  38.2348595  91.4758799
 116.5734887  36.7579151  91.6846348 114.2231368  30.2034655  89.0560990
 113.3615847  30.5015909  89.3477728 114.2493802  30.4205054  88.1242023
 111.0392937  38.7476846  85.4634796 111.5031283  39.0264549  84.6739418
 110.7749735  37.8460290  85.2807887 107.9317018  38.2948327  88.4014559
 108.5018375  38.7235596  87.7632044 108.5225130  38.0130912  89.0998745
 109.9761823  34.8699998  82.2724361 110.6785867  35.3221042  82.7398287
 109.6442452  34.2283817  82.9004254 108.4242185  33.4611755  96.6475570
 107.7940845  34.1428036  96.8810967 108.3178273  33.3494836  95.7028709
 103.7187157  33.1283551  87.5741495 102.9286211  33.3841079  87.0981605
 104.2098405  33.9431889  87.6793535 117.7350967  40.4688790  90.3246775
 118.5568410  40.0668977  90.0429457 117.7313370  40.3657024  91.2762891
 105.6701903  33.4928130  84.5324971 104.8733066  33.6046824  85.0508467
 105.4427495  33.8314782  83.6665862 111.5007570  40.0172833  92.4807486
 111.5652003  40.4793241  93.3165658 110.7918494  39.3870198  92.6089796
 102.0024860  33.3814041  90.0056485 102.2532899  34.2661051  90.2714061
 102.5384409  33.2018643  89.2331577 125.8256960  36.8127539  86.6731747
 125.0720668  36.2434937  86.5175751 125.9604501  36.7790203  87.6202382
 111.2155588  41.6840941  82.3486466 111.0801263  42.5292477  82.7771314
 111.7565400  41.8860218  81.5852400 107.7022927  27.7632521  99.0100821
 107.3089873  27.2098719  99.6848466 108.5189068  28.0743099  99.4007339
 104.6684985  39.2016379  82.9214391 105.1809506  39.9959629  83.0719956
 105.3207698  38.5042669  82.8547993 106.4779870  42.3182135  85.0037144
 106.6546498  43.2400100  84.8158128 107.2736703  42.0040554  85.4331524
 110.6190888  29.1790400  96.6021078 111.3600602  29.7797553  96.5225540
 110.8508811  28.4368038  96.0439121 105.7632226  34.3646767  94.8799308
 105.6485742  33.4632024  95.1806407 104.9076744  34.6110464  94.5284124
 112.8424064  42.3064507  96.4786808 112.3987918  41.5200886  96.1607713
 113.5041278  42.4943658  95.8130699 107.6011185  43.8360309  91.0047487
 108.1518610  43.7077372  90.2324481 106.7622661  44.1355198  90.6542380
 114.9405302  42.5867307  94.5068210 114.9223778  43.4076188  94.0148479
 115.8625222  42.4621382  94.7318351 111.3978356  40.1011437  95.3491718
 111.9306693  39.3399725  95.1191026 110.8692437  39.8085089  96.0915872
 114.5648051  25.2071503  90.8785360 114.2212321  26.0973144  90.8024470
 114.9327014  25.0173160  90.0154945 102.6333902  37.5305033  83.6973962
 103.4709124  37.9402042  83.4807670 102.8112170  36.5904475  83.6674156
 114.5298334  35.1980114  79.3857795 114.0144958  35.9684718  79.6246182
 114.2575643  34.5245250  80.0090856 112.1145445  30.0429815  84.4443033
 111.2587041  29.6536665  84.2648672 112.5272397  30.1221775  83.5842819
 113.6444592  27.5776158  88.8434593 113.1409387  27.5406293  88.0302398
 113.9375199  28.4868901  88.9031250 109.8887478  27.6614888  87.8500775
 110.7540474  27.4657696  87.4906664 109.9564987  27.4325239  88.7770131
 119.5032608  37.9512468  81.3210968 118.7262051  37.6123628  80.8766130
 120.1824089  37.9565092  80.6465933 114.3184637  33.0707206  81.2117576
 114.0134773  33.3853355  82.0627719 115.2715079  33.1488626  81.2544909
 112.7631069  39.2297429  82.8610530 112.2352431  38.4950189  82.5483767
 112.2618572  40.0072106  82.6150498 117.7423915  37.4246450  87.9777576
 117.0847590  38.1145711  88.0657705 118.5464314  37.8142882  88.3211563
 107.4949797  29.8917096  85.2217141 108.0693549  29.6692277  84.4890334
 108.0820779  29.9605790  85.9745743 116.5529374  35.7790822  86.0281518
 117.0661256  36.4120814  86.5303228 117.2030598  35.1792018  85.6624878
 107.8219384  31.9221557  79.2413027 106.9856696  32.2596243  79.5622301
 107.6824153  31.7870536  78.3040164 109.7972464  26.7658344  83.9492211
 109.1436877  26.4507362  83.3248826 109.7552939  26.1434085  84.6752034
 110.9083669  37.0477640  75.8645503 110.0010731  36.8166893  76.0636652
 111.4054701  36.2515259  76.0519484 113.8151748  45.7575147  78.7842189
 113.1413447  46.0606843  79.3927147 114.2017570  46.5604227  78.4347646
 113.0310205  33.2540278  88.2739858 112.1132766  33.4755225  88.1161547
 113.4470348  33.3286588  87.4151566 113.8145253  34.6531694  83.4042539
 114.5617071  35.1653091  83.0949661 114.0836842  34.3315746  84.2646932
 112.0871903  37.1490234  80.3869493 111.1783122  36.8649267  80.4841963
 112.1166987  37.5689313  79.5272800 117.3191170  40.7596824  84.1560661
 116.8653497  39.9187734  84.2125851 116.6885137  41.3958222  84.4935441
 116.2624090  31.6888810  85.3861328 115.5246846  31.1766196  85.7171571
 116.5150863  31.2489192  84.5744605 115.7624109  42.5973321  85.0910479
 116.0547084  43.1578378  84.3722844 116.2722730  42.8901882  85.8463638
 116.3635717  24.4665062  85.9803097 116.6694594  23.6062425  85.6929012
 117.0888322  25.0582682  85.7802091 102.6560073  34.8695748  84.3684695
 102.4584473  34.2765109  83.6435762 102.1006737  34.5647959  85.0860634
 110.6356797  34.7618855  86.4879288 110.6905407  33.8092691  86.4121765
 109.8247999  34.9178294  86.9720587 111.7847991  38.6898978  77.7257572
 111.3467420  37.9734837  77.2663209 112.5258431  38.9175093  77.1642663
 108.5749157  33.3795915  84.2469667 107.7617022  33.6790085  84.6534859
 109.0708151  32.9851603  84.9644150 110.7257735  43.3753672  86.1803932
 110.6833913  43.6014518  85.2512464 111.6420433  43.1417046  86.3289733
 114.1723368  33.8437739  93.0784561 114.5272756  34.0709212  93.9379027
 114.8195500  34.1756116  92.4561816 119.9021105  36.9656175  83.7833890
 119.7639004  37.1557771  82.8555079 119.5457324  37.7275558  84.2401941
 108.0663231  30.9514270  89.8630902 108.7062611  30.8103029  89.1653866
 107.2340762  30.6648784  89.4869504 119.9290485  39.0332702  88.7945162
 120.3626992  38.9407991  89.6428216 120.6422066  39.0090203  88.1565178
 108.8423535  40.2516701  85.9765895 109.6364134  39.7567021  85.7748470
 108.1315228  39.7234564  85.6133600 113.6618380  42.6334796  90.3278262
 113.7155402  43.2025733  91.0955978 112.7933161  42.8036681  89.9632299
 105.1506299  34.3959782  82.0525647 104.2203887  34.3344238  82.2695609
 105.2463771  33.8735735  81.2562289 105.0691848  30.9214595  84.6403889
 105.3298665  31.8359928  84.5313049 105.8909020  30.4539038  84.7900502
 106.5416773  32.3352352  91.8102714 107.2139827  32.1269715  91.1615362
 105.7146560  32.1374438  91.3707946 120.7906034  39.0756403  91.3278047
 120.9841925  39.9802213  91.5737322 120.6906653  38.6163822  92.1616632
 112.4442345  28.9614293  93.8268374 111.7970260  29.6604243  93.7332851
 113.2143361  29.3950437  94.1944623 115.8521143  39.2263145  96.9018928
 115.7006650  38.9973697  95.9849011 115.8425823  40.1833747  96.9150273
 112.6206480  36.7995058  91.8865194 113.5498540  36.9506218  91.7134161
 112.1997510  36.8879079  91.0313841 111.4194811  40.8245723  89.6563732
 111.2805897  40.4564507  90.5289670 110.6309408  41.3393362  89.4847690
 112.0142963  45.9254819  80.9989268 112.1894719  45.4542862  81.8134891
 111.3275751  46.5520585  81.2270529 112.9700026  40.2027325  87.0452570
 112.6349859  40.1628095  87.9410219 112.4703972  39.5372041  86.5722980
 106.9444270  35.6094955  92.5705151 106.8064068  34.8775194  93.1716690
 107.8549194  35.5203855  92.2889338 115.9059218  37.5483360  77.3189629
 115.2888389  36.8230188  77.2222682 115.4375707  38.3092720  76.9756703
 109.5726571  35.3214915  92.0588830 110.2826190  34.6808107  92.0175449
 109.5295879  35.5727810  92.9815011 117.5613350  42.2582268  94.9795410
 117.5025896  41.5741488  94.3125993 117.9632868  43.0001258  94.5276036
 108.2855505  32.3080133  93.8784470 107.7492862  31.8570871  94.5306066
 107.6972214  32.4426041  93.1354934 106.5804049  49.0744182  87.7729128
 106.8200647  49.7062706  88.4508147 105.7373245  48.7232222  88.0594488
 107.6957764  31.7668784  76.4410933 106.8187230  31.6457585  76.0773180
 108.1715517  30.9754862  76.1889822 117.5630757  40.2221852  93.2109389
 116.6757536  39.8847774  93.3335788 118.1329308  39.4904883  93.4478155
  99.2159904  36.5545944  86.5352441  99.9030944  36.2407674  85.9473456
  99.0608033  37.4587308  86.2619692 104.0194626  31.4436140  90.9637464
 103.9352815  30.8361810  90.2287874 103.1977333  31.9345159  90.9646961
 111.0931910  44.8823304  90.1770632 111.0202082  45.6878276  90.6889937
 110.6509304  45.0815270  89.3518654 110.8821690  44.1195074  83.6873454
 110.0989212  44.6616755  83.7811679 111.5814435  44.6369054  84.0867695
 114.1918340  29.9289704  86.3307659 114.6887040  29.1759666  86.0108730
 113.4205322  29.9654020  85.7650869 122.0448098  35.6330069  87.9725951
 122.0337974  36.5154785  87.6019884 121.1765477  35.2801620  87.7780488
 113.5530594  44.7810138  92.3328791 114.2658566  45.4157603  92.2604693
 113.0620623  44.8774004  91.5168793 115.2748121  38.6861391  83.9046083
 114.3404400  38.8062853  83.7350787 115.4524789  37.7833858  83.6406093
 110.7753309  32.0707087  86.0579344 110.4051096  31.5178127  86.7460250
 111.2712401  31.4665220  85.5054344 118.6620672  34.5278710  84.4396117
 119.1281124  35.3606702  84.3656420 119.1128173  34.0623692  85.1441375
 108.6042508  42.5304582  93.1534362 109.3051967  43.1641065  93.3063756
 108.1337623  42.8719313  92.3930001 116.7296903  40.8722532  81.4382269
 117.0056747  40.7579126  82.3476143 115.8601402  40.4740016  81.3994442
 116.6337335  26.8959297  88.4787018 115.7200415  27.1263524  88.6469225
 117.0630436  26.9797741  89.3301051 116.4043793  35.0849189  90.9786912
 115.7515244  35.3325097  90.3239365 116.7824173  34.2713327  90.6449390
 113.3650967  45.1208882  85.0815083 113.5473362  44.3030538  85.5442835
 114.1883953  45.3376575  84.6439973 113.6993133  44.0477068  82.3430131
 114.2280899  43.5369522  81.7300293 113.9621352  43.7319598  83.2075664
 112.4531367  35.8269000  97.4652949 111.7772004  35.7263130  98.1355325
 113.2759000  35.6708214  97.9288947 104.2010226  42.0640937  90.0865465
 104.7863662  41.3184625  90.2193369 104.0035064  42.3744894  90.9702129
 107.0548881  45.0992184  85.1027907 106.3859256  45.5838312  84.6191947
 106.9161750  45.3461405  86.0171286  98.7927880  34.6346537  88.8069908
  98.8311980  34.1010128  89.6007026  98.2868173  34.1081743  88.1880885
 111.1954149  47.1335928  91.7010565 111.7472457  47.2967549  92.4659651
 111.5360343  47.7240366  91.0290590 106.1718643  29.4811078  92.3032450
 106.2359969  30.3425908  91.8909848 106.1085763  28.8685079  91.5704809
 105.6470915  31.5534210  95.9505484 106.2742954  31.1711287  96.5643009
 104.7898834  31.3348412  96.3161177 116.0465024  41.9597185  97.5559220
 116.5904928  42.5727144  97.0614175 115.4651869  42.5176764  98.0726233
 102.4236458  33.3610639  81.8823839 102.7189899  32.4521318  81.8290893
 101.5224494  33.3398379  81.5604841 114.3322537  45.0817903  88.6874248
 114.2073676  44.2807643  88.1785193 114.9901628  45.5764097  88.1988217
 105.9530705  31.4366636  87.8651388 105.2317291  32.0502604  87.7258861
 106.7423961  31.9724401  87.7868034 116.3957445  42.8826923  90.3153798
 115.4487781  42.7632275  90.2432124 116.7440218  41.9949421  90.3980059
 108.7557018  28.7721062  94.1392040 109.2791420  29.0183359  94.9018349
 108.5369352  29.6041097  93.7195177 104.1524299  31.0424737  82.0063164
 103.8237006  30.1622116  81.8238270 104.5063670  30.9872406  82.8939554
 113.4003878  42.6779640  86.5158150 113.2528841  41.7496347  86.6965720
 114.2257372  42.6999730  86.0315225 107.2666123  31.3297707  82.3738642
 107.6062195  31.8583628  81.6517250 107.7138243  31.6678113  83.1497209
 117.0038000  43.5008198  87.6023023 117.9284548  43.2951060  87.4647474
 116.8353304  43.2524599  88.5112364 109.9609563  29.7134757  91.8241710
 109.6206384  28.9142570  92.2262390 109.2548570  30.0136468  91.2518543
 110.6126035  26.7984070  90.2769033 111.4352105  26.3244548  90.1547923
 110.8564099  27.5774554  90.7767719 109.2534270  29.8272328  80.5731935
 109.9742632  30.2053581  80.0695652 108.6299574  30.5461205  80.6766913
 113.3965393  30.5317477  81.5090267 113.6129007  31.4142115  81.2079095
 112.9159460  30.1403691  80.7795909 108.1364614  33.4903190  88.0861012
 107.9909195  33.8043494  88.9785293 107.6589818  34.1088091  87.5331910
 109.9960997  30.4805738  88.1341901 109.9822566  29.5846832  87.7974199
 110.7133425  30.4876402  88.7680187 111.8487128  30.9143079  90.1795029
 111.5904905  31.8360149  90.1779359 111.3172168  30.5173513  90.8695493
 116.7933316  44.0193866  82.9585114 116.9670194  43.4540288  82.2058966
 117.2862208  44.8194761  82.7764604 102.6110276  36.0308535  91.0248673
 102.0663744  36.8068343  91.1568947 103.4889626  36.3779339  90.8667794
 109.3997893  29.3620119  83.4029471 109.5213804  28.4336765  83.6020359
 109.1099935  29.3758805  82.4907787 112.2689083  27.0475029  86.5396191
 112.2910780  27.1114362  85.5848171 112.6857142  26.2079538  86.7336697
 122.6472708  36.7830289  84.5775414 123.0903854  36.0337614  84.1794537
 121.7699218  36.7740425  84.1949146 117.7808489  43.3360630  80.0582012
 118.4759394  43.9567323  80.2769327 118.1231639  42.4855981  80.3334390
 103.3976298  35.1578431  93.9178830 102.6558034  35.3061066  94.5043460
 103.0769042  35.4186697  93.0545579 119.6799912  40.7860336  81.5869343
 120.2051236  41.1247608  80.8618663 119.5922265  39.8507351  81.4032478
 111.3419961  44.6994409  93.7159220 111.6507087  44.4543556  94.5881919
 112.1395443  44.9041048  93.2278090 111.3640573  46.8532319  85.9464596
 110.9245563  46.3608698  86.6397453 112.1148690  46.3105287  85.7056672
 103.8432912  43.0443860  85.9489224 104.6690932  42.7447632  85.5687868
 103.4926964  42.2751482  86.3979013 108.8114445  42.3970328  88.0186898
 108.1894454  41.7341033  87.7189126 109.4819312  42.4231460  87.3360546
 102.0441517  40.9630186  86.9078158 101.2073425  40.5352361  86.7262159
 102.0165162  41.1562630  87.8448949 108.8838972  30.8752116  97.6119404
 108.9327128  31.7514239  97.2297174 109.4261487  30.3329509  97.0391047
 119.3693818  41.4193239  96.8920541 118.5789362  41.4017378  96.3525040
 119.1327173  41.9581533  97.6469578 119.4891693  38.2685706  94.2053270
 119.5389698  38.1035713  95.1468792 119.3805616  37.4012965  93.8151150
 108.3727952  40.9474251  81.4945358 108.5216072  41.6309716  80.8412031
 109.1794395  40.9279341  82.0094814 116.7795456  34.2516634  95.5212576
 117.6805318  34.1123099  95.2296574 116.8543430  34.4171089  96.4610754
 111.1138261  31.6283489  94.3665763 110.2441570  31.9217055  94.0948351
 111.3497741  32.2123934  95.0873026 120.9909890  40.6882647  94.4495291
 120.6994698  41.0512628  95.2858752 120.3782021  39.9749656  94.2708623
 122.1905572  38.2535527  86.9697861 123.0252464  38.6925331  87.1335422
 122.3264701  37.7774180  86.1506107 119.2397078  35.8115262  92.9175349
 119.7151200  36.0042908  92.1094200 118.3162644  35.8674448  92.6718733
 106.1280585  36.9739429  82.5006427 105.8826627  36.0701759  82.6986638
 106.2976499  36.9756580  81.5585905 113.8177295  27.8463105  91.8831183
 114.3359239  28.5824132  91.5577672 113.4632427  28.1527099  92.7177942
 105.3976232  32.7067787  79.9992589 104.7045477  32.7812142  79.3432625
 105.1527984  31.9428130  80.5214106 114.0689889  24.2663388  87.4032080
 114.3491643  23.5986577  88.0292506 114.8540496  24.4592484  86.8906743
 111.8723357  43.4422382  78.9657106 111.2997324  44.0612569  78.5127578
 112.4456151  43.9921744  79.4997028 117.9398747  32.6881022  91.1503655
 118.8916170  32.7879120  91.1715879 117.7702198  31.8959291  91.6601739
 115.9613127  29.7736605  91.3363056 115.3663059  30.0541618  90.6409544
 115.6762823  30.2630506  92.1079797 115.0920617  43.7259532  80.0965688
 116.0251290  43.6605094  80.2998564 115.0043830  44.5615799  79.6380221
 117.7208634  43.0425402  77.0569636 117.6422265  42.7085266  77.9505394
 118.5418301  43.5347170  77.0561108 120.4186825  35.9087142  90.2645954
 120.3863145  34.9703142  90.4505638 121.0287449  35.9871178  89.5311779
 112.2570156  34.7783195  76.3073158 113.2029261  34.6489403  76.3761576
 111.8784401  34.0397857  76.7842587 120.5681313  32.6998185  90.3104238
 120.0520362  31.9156642  90.1234166 121.4521262  32.3716902  90.4750757
 118.2292040  26.4439201  86.2700050 118.0316862  26.1354289  87.1543382
 118.8391746  27.1700840  86.3997980 126.2363375  36.9703148  89.4051991
 126.9666763  36.7088437  89.9659694 125.6270320  36.2331870  89.4454059
 124.3178672  35.1111011  90.0026442 123.5911836  34.9766976  89.3942934
 123.9025959  35.4187840  90.8083160 112.1408848  38.8300941  97.7673815
 113.0611858  39.0079540  97.9613862 112.1058431  37.8856986  97.6153515
 110.4413073  32.7033171  76.2428044 109.5344528  32.4066284  76.3190757
 110.7189054  32.4062989  75.3762330 101.3591013  34.0239534  86.6927090
 101.0393798  33.1704843  86.4001464 100.8124442  34.2388113  87.4485057
 105.1370921  36.7401975  90.4096597 105.3556931  37.6719083  90.4284630
 105.5496695  36.3809950  91.1951400 112.0575139  27.2470061  82.3972285
 111.2475867  26.9017146  82.7727531 112.7459556  26.9377604  82.9859896
 113.9865687  26.3248108  84.0196582 114.5396726  26.7443561  84.6786605
 114.2235773  25.3983856  84.0619538 110.0098786  32.3135181  99.7999345
 109.9095513  33.2629538  99.7311437 109.7920328  31.9853420  98.9275416
 109.2111858  29.5620106  76.3840023 110.0731022  29.8875005  76.6435840
 109.3962202  28.7751602  75.8713089 101.2279273  37.6442446  88.6620212
 100.5342745  37.2296399  88.1490166 101.9752264  37.6862982  88.0653631
 117.3644494  28.4348633  83.5275246 116.7843163  29.0933437  83.1453298
 117.0980427  27.6125977  83.1162663 115.8148060  27.8353690  85.7296566
 116.3147839  27.9470225  84.9210885 116.4583668  27.5314743  86.3697375
 109.8730056  35.7432320  98.6164407 109.3897138  36.5432680  98.8228296
 109.9590995  35.7540265  97.6631851 103.1416016  37.5760700  86.5386226
 103.1186704  37.6748387  85.5868110 103.4516652  38.4225850  86.8603393
 105.8003394  39.6336855  90.6532841 106.7546647  39.6020797  90.5862772
 105.6015917  39.1727478  91.4683067 106.3902776  38.2037971  93.2203639
 107.2095665  38.6982049  93.2438476 106.6639584  37.2869939  93.1921206
 116.1469372  30.5948723  82.5831594 115.2595227  30.8798374  82.3651789
 116.5623361  30.4342486  81.7358871 119.4983908  30.6195244  86.2985933
 120.2744298  31.1091697  86.5710550 118.7732042  31.0453298  86.7557803
 121.9356467  31.3322863  87.3559874 122.5300958  31.0918599  86.6453182
 122.0083051  30.6129994  87.9833410 104.1553623  45.1756474  87.6703039
 104.0208090  44.4156875  87.1041037 103.7385685  45.8997374  87.2031828
 115.2912586  40.3593398  76.6779614 115.9948436  40.5643400  77.2937270
 114.5675234  40.9270160  76.9428698 116.1210396  36.1103259  82.7981884
 116.0645597  36.5671810  81.9589517 116.6738738  35.3493944  82.6204727
 119.9315202  31.8992991  83.6232004 119.6752136  31.4989627  84.4540211
 119.3068070  32.6136785  83.4982143 124.2427540  34.6389064  86.1303295
 123.6827098  34.7082253  86.9034857 123.6371043  34.4630049  85.4102791
 107.3122748  46.0725791  87.8821481 107.1955133  47.0171224  87.7800172
 106.4915195  45.7699353  88.2707281 117.1999283  40.7975927  78.7278074
 118.0344887  40.3657125  78.5455549 117.0383626  40.6257941  79.6554969
 116.8545175  37.3008040  80.0934413 116.7993979  37.1352312  79.1522858
 116.2291230  38.0084073  80.2496603 101.6437690  32.5376105  93.9195836
 102.2896554  32.0275059  94.4083061 101.4354841  33.2744786  94.4939261
 114.1691082  39.6056952  99.4187976 115.0382242  39.7797604  99.0574611
 113.6897834  40.4251369  99.2963706 110.1641301  26.8016149  79.6719732
 110.1519970  27.7457989  79.8288003 111.0564722  26.6186295  79.3779193
 108.3377263  46.7254053  91.0977410 109.2404509  46.7577663  91.4143905
 108.1114633  45.7954504  91.1123746 110.0930865  45.4785040  87.7587488
 109.1426496  45.4786901  87.6451861 110.3963351  44.7317774  87.2423523
 113.9793420  23.3958926  83.9265669 113.2125816  22.8417413  84.0722351
 114.3904125  23.4680795  84.7879820 105.9835181  29.6843722  98.0170850
 106.8466643  29.3280527  98.2274174 105.4100592  29.3457617  98.7046254
 125.8283558  51.3145578  88.8233251 126.4661968  51.1952325  88.1196591
 125.7104401  52.2626422  88.8821203 122.6373264  51.2673006  88.7594776
 122.2991776  51.1514071  87.8715310 123.5063033  50.8664171  88.7395782
 118.4960080  53.1208483  84.7491667 117.9324945  53.0298420  83.9807954
 118.3812475  52.3008387  85.2294159 123.1193047  52.4207858  94.7180981
 123.1081688  52.0260656  93.8461485 123.2813687  51.6873931  95.3114753
 116.0424512  54.6159674  87.5875887 116.8345804  54.2750499  87.1722186
 116.2821162  54.7254649  88.5078040 124.0759639  56.7879450  80.0606131
 123.4247619  57.3733531  79.6740145 124.8704002  57.3185645  80.1201169
 118.0015266  53.8768587  80.4593266 118.7746142  53.3297575  80.3206142
 118.3540665  54.7412837  80.6707727 119.8400308  55.2044970  93.6660165
 119.5490174  56.1090601  93.5506831 120.4757293  55.2461497  94.3804235
 120.7656515  52.5821818  90.2561525 121.3620088  52.3577841  89.5418488
 120.8231487  51.8406564  90.8586973 120.3381544  50.0361254  78.0911716
 120.5907064  49.5142775  77.3295179 119.4006103  49.8727399  78.1938399
 125.3824827  49.0397032  85.8986459 126.1687916  48.6216455  85.5476876
 125.6463531  49.9443124  86.0668107 125.5534904  54.4769882  80.5975116
 124.9180737  54.5504509  81.3096020 125.2232310  55.0663481  79.9194195
 130.7833254  48.9772265  86.8019437 131.5158426  48.4071482  87.0357267
 130.0272609  48.5893866  87.2425943 120.0577832  51.9389360  80.2936091
 119.9414091  51.2634263  80.9617175 120.1680092  51.4521733  79.4768244
 122.4009373  51.3999507  83.9982780 122.0367581  50.8730128  84.7095701
 123.2576489  51.0097976  83.8249265 128.3058674  42.6893839  91.2614046
 127.9741999  43.5589250  91.0375261 127.7104287  42.3730123  91.9408076
 122.0414860  46.4289406  78.9944128 122.2089263  47.2969643  79.3614599
 121.8512029  46.5916688  78.0705418 124.7990194  54.8906385  90.6609959
 124.4990917  55.7931424  90.5525766 124.4541253  54.6238568  91.5131112
 118.2502675  51.3420182  86.6946663 117.3253172  51.2096396  86.9024355
 118.4987088  52.1214401  87.1916606 128.1987337  47.4088925  88.3407396
 127.2904215  47.3404334  88.0466157 128.1474933  47.8860870  89.1689222
 122.0204081  48.8847064  79.9790795 121.9003706  49.3304115  80.8176275
 121.3256670  49.2332381  79.4204333 115.6111486  50.9853456  87.5290452
 115.7403867  51.2387935  88.4429864 114.9308937  51.5781164  87.2095107
 119.7810973  61.6550706  83.6280926 119.7035003  62.6058531  83.7069407
 119.1772617  61.3096578  84.2855853 122.2728203  48.8278571  96.2842293
 121.4961537  49.3872491  96.2745158 122.9118766  49.3135354  96.8057163
 130.0648984  45.6105364  90.1185270 129.4223364  45.9037897  89.4725065
 129.5603912  45.4958284  90.9238467 127.7189147  49.3568537  80.8071129
 128.6307004  49.5895924  80.6318827 127.2098794  49.9405581  80.2446208
 120.5274575  51.6364024  95.8460260 121.2689260  52.1749068  95.5695084
 119.8211561  52.2630313  96.0031812 126.0029915  53.7793165  94.4432422
 126.4113271  53.3375575  93.6987054 125.2807177  53.2045792  94.6966615
 122.3560985  48.7165772  91.8165979 123.2022180  49.1405185  91.9600628
 122.2959623  48.0599396  92.5104542 126.3258730  54.3394355  88.1984711
 125.6967592  54.5040070  87.4960779 125.9384392  54.7535965  88.9695675
 130.2047962  55.2748793  85.5529074 129.5199000  55.6547695  85.0026108
 130.2891811  55.8844120  86.2861022 125.5060430  46.3770140  93.4747152
 125.2621362  47.1312200  92.9381428 125.7820361  46.7555488  94.3094399
 127.4598893  52.9208752  92.1524418 127.6715788  53.5640512  91.4758799
 127.4128641  52.0871069  91.6846348 125.0625122  45.5326573  89.0560990
 124.2009601  45.8307827  89.3477728 125.0887557  45.7496972  88.1242023
 121.8786692  54.0768764  85.4634796 122.3425037  54.3556467  84.6739418
 121.6143490  53.1752208  85.2807887 118.7710773  53.6240245  88.4014559
 119.3412130  54.0527513  87.7632044 119.3618885  53.3422830  89.0998745
 120.8155578  50.1991916  82.2724361 121.5179621  50.6512960  82.7398287
 120.4836206  49.5575735  82.9004254 119.2635939  48.7903673  96.6475570
 118.6334600  49.4719953  96.8810967 119.1572027  48.6786754  95.7028709
 114.5580912  48.4575469  87.5741495 113.7679966  48.7132997  87.0981605
 115.0492159  49.2723806  87.6793535 128.5744721  55.7980708  90.3246775
 129.3962165  55.3960895  90.0429457 128.5707124  55.6948942  91.2762891
 116.5095657  48.8220048  84.5324971 115.7126820  48.9338742  85.0508467
 116.2821249  49.1606700  83.6665862 122.3401325  55.3464751  92.4807486
 122.4045757  55.8085158  93.3165658 121.6312249  54.7162116  92.6089796
 112.8418615  48.7105959  90.0056485 113.0926653  49.5952969  90.2714061
 113.3778163  48.5310561  89.2331577 136.6650714  52.1419456  86.6731747
 135.9114423  51.5726854  86.5175751 136.7998255  52.1082121  87.6202382
 122.0549342  57.0132859  82.3486466 121.9195017  57.8584394  82.7771314
 122.5959155  57.2152136  81.5852400 118.5416682  43.0924438  99.0100821
 118.1483627  42.5390637  99.6848466 119.3582822  43.4035017  99.4007339
 115.5078740  54.5308297  82.9214391 116.0203260  55.3251547  83.0719956
 116.1601453  53.8334587  82.8547993 117.3173624  57.6474053  85.0037144
 117.4940253  58.5692018  84.8158128 118.1130458  57.3332472  85.4331524
 121.4584643  44.5082317  96.6021078 122.1994356  45.1089471  96.5225540
 121.6902566  43.7659955  96.0439121 116.6025981  49.6938685  94.8799308
 116.4879496  48.7923942  95.1806407 115.7470499  49.9402381  94.5284124
 123.6817819  57.6356425  96.4786808 123.2381673  56.8492804  96.1607713
 124.3435032  57.8235576  95.8130699 118.4404940  59.1652227  91.0047487
 118.9912365  59.0369290  90.2324481 117.6016416  59.4647116  90.6542380
 125.7799057  57.9159225  94.5068210 125.7617532  58.7368106  94.0148479
 126.7018977  57.7913300  94.7318351 122.2372111  55.4303354  95.3491718
 122.7700448  54.6691643  95.1191026 121.7086192  55.1377006  96.0915872
 125.4041806  40.5363420  90.8785360 125.0606075  41.4265062  90.8024470
 125.7720768  40.3465078  90.0154945 113.4727656  52.8596951  83.6973962
 114.3102878  53.2693959  83.4807670 113.6505924  51.9196393  83.6674156
 125.3692089  50.5272031  79.3857795 124.8538712  51.2976636  79.6246182
 125.0969397  49.8537168  80.0090856 122.9539200  45.3721732  84.4443033
 122.0980796  44.9828583  84.2648672 123.3666151  45.4513693  83.5842819
 124.4838346  42.9068076  88.8434593 123.9803142  42.8698211  88.0302398
 124.7768953  43.8160818  88.9031250 120.7281232  42.9906805  87.8500775
 121.5934229  42.7949614  87.4906664 120.7958741  42.7617157  88.7770131
 130.3426363  53.2804386  81.3210968 129.5655805  52.9415546  80.8766130
 131.0217844  53.2857009  80.6465933 125.1578392  48.3999124  81.2117576
 124.8528527  48.7145273  82.0627719 126.1108834  48.4780543  81.2544909
 123.6024824  54.5589347  82.8610530 123.0746185  53.8242106  82.5483767
 123.1012326  55.3364023  82.6150498 128.5817670  52.7538367  87.9777576
 127.9241344  53.4437629  88.0657705 129.3858069  53.1434799  88.3211563
 118.3343551  45.2209013  85.2217141 118.9087303  44.9984195  84.4890334
 118.9214534  45.2897708  85.9745743 127.3923128  51.1082740  86.0281518
 127.9055010  51.7412732  86.5303228 128.0424352  50.5083936  85.6624878
 118.6613138  47.2513474  79.2413027 117.8250451  47.5888161  79.5622301
 118.5217908  47.1162454  78.3040164 120.6366219  42.0950262  83.9492211
 119.9830631  41.7799279  83.3248826 120.5946693  41.4726003  84.6752034
 121.7477424  52.3769557  75.8645503 120.8404486  52.1458811  76.0636652
 122.2448456  51.5807176  76.0519484 124.6545503  61.0867064  78.7842189
 123.9807201  61.3898761  79.3927147 125.0411325  61.8896145  78.4347646
 123.8703959  48.5832196  88.2739858 122.9526521  48.8047143  88.1161547
 124.2864103  48.6578506  87.4151566 124.6539007  49.9823611  83.4042539
 125.4010826  50.4945009  83.0949661 124.9230597  49.6607664  84.2646932
 122.9265657  52.4782152  80.3869493 122.0176876  52.1941185  80.4841963
 122.9560741  52.8981231  79.5272800 128.1584925  56.0888742  84.1560661
 127.7047252  55.2479651  84.2125851 127.5278891  56.7250140  84.4935441
 127.1017844  47.0180728  85.3861328 126.3640601  46.5058114  85.7171571
 127.3544618  46.5781109  84.5744605 126.6017864  57.9265238  85.0910479
 126.8940838  58.4870295  84.3722844 127.1116484  58.2193799  85.8463638
 127.2029472  39.7956980  85.9803097 127.5088348  38.9354343  85.6929012
 127.9282076  40.3874600  85.7802091 113.4953828  50.1987666  84.3684695
 113.2978227  49.6057027  83.6435762 112.9400492  49.8939876  85.0860634
 121.4750551  50.0910773  86.4879288 121.5299161  49.1384609  86.4121765
 120.6641753  50.2470212  86.9720587 122.6241745  54.0190896  77.7257572
 122.1861175  53.3026755  77.2663209 123.3652186  54.2467011  77.1642663
 119.4142911  48.7087832  84.2469667 118.6010777  49.0082003  84.6534859
 119.9101905  48.3143521  84.9644150 121.5651489  58.7045589  86.1803932
 121.5227668  58.9306436  85.2512464 122.4814188  58.4708964  86.3289733
 125.0117123  49.1729657  93.0784561 125.3666511  49.4001130  93.9379027
 125.6589254  49.5048034  92.4561816 130.7414860  52.2948093  83.7833890
 130.6032758  52.4849689  82.8555079 130.3851079  53.0567476  84.2401941
 118.9056986  46.2806188  89.8630902 119.5456365  46.1394947  89.1653866
 118.0734516  45.9940701  89.4869504 130.7684239  54.3624620  88.7945162
 131.2020746  54.2699909  89.6428216 131.4815820  54.3382120  88.1565178
 119.6817290  55.5808618  85.9765895 120.4757888  55.0858938  85.7748470
 118.9708982  55.0526481  85.6133600 124.5012134  57.9626714  90.3278262
 124.5549157  58.5317650  91.0955978 123.6326916  58.1328599  89.9632299
 115.9900053  49.7251700  82.0525647 115.0597641  49.6636156  82.2695609
 116.0857525  49.2027653  81.2562289 115.9085602  46.2506513  84.6403889
 116.1692420  47.1651846  84.5313049 116.7302775  45.7830955  84.7900502
 117.3810528  47.6644270  91.8102714 118.0533581  47.4561632  91.1615362
 116.5540314  47.4666356  91.3707946 131.6299789  54.4048320  91.3278047
 131.8235679  55.3094131  91.5737322 131.5300407  53.9455739  92.1616632
 123.2836100  44.2906211  93.8268374 122.6364015  44.9896161  93.7332851
 124.0537115  44.7242355  94.1944623 126.6914898  54.5555063  96.9018928
 126.5400404  54.3265615  95.9849011 126.6819577  55.5125665  96.9150273
 123.4600234  52.1286976  91.8865194 124.3892294  52.2798136  91.7134161
 123.0391264  52.2170997  91.0313841 122.2588566  56.1537640  89.6563732
 122.1199652  55.7856425  90.5289670 121.4703162  56.6685280  89.4847690
 122.8536718  61.2546737  80.9989268 123.0288473  60.7834780  81.8134891
 122.1669506  61.8812503  81.2270529 123.8093781  55.5319243  87.0452570
 123.4743614  55.4920013  87.9410219 123.3097727  54.8663959  86.5722980
 117.7838025  50.9386873  92.5705151 117.6457823  50.2067112  93.1716690
 118.6942948  50.8495773  92.2889338 126.7452973  52.8775277  77.3189629
 126.1282143  52.1522106  77.2222682 126.2769461  53.6384638  76.9756703
 120.4120326  50.6506832  92.0588830 121.1219944  50.0100025  92.0175449
 120.3689634  50.9019727  92.9815011 128.4007104  57.5874186  94.9795410
 128.3419650  56.9033406  94.3125993 128.8026623  58.3293176  94.5276036
 119.1249260  47.6372050  93.8784470 118.5886617  47.1862789  94.5306066
 118.5365968  47.7717959  93.1354934 117.4197803  64.4036100  87.7729128
 117.6594401  65.0354624  88.4508147 116.5767000  64.0524140  88.0594488
 118.5351519  47.0960702  76.4410933 117.6580985  46.9749502  76.0773180
 119.0109272  46.3046780  76.1889822 128.4024512  55.5513770  93.2109389
 127.5151290  55.2139691  93.3335788 128.9723063  54.8196801  93.4478155
 110.0553659  51.8837861  86.5352441 110.7424699  51.5699591  85.9473456
 109.9001787  52.7879226  86.2619692 114.8588381  46.7728058  90.9637464
 114.7746570  46.1653728  90.2287874 114.0371087  47.2637076  90.9646961
 121.9325665  60.2115222  90.1770632 121.8595836  61.0170193  90.6889937
 121.4903058  60.4107188  89.3518654 121.7215445  59.4486992  83.6873454
 120.9382966  59.9908672  83.7811679 122.4208190  59.9660972  84.0867695
 125.0312095  45.2581621  86.3307659 125.5280794  44.5051584  86.0108730
 124.2599076  45.2945938  85.7650869 132.8841852  50.9621987  87.9725951
 132.8731728  51.8446702  87.6019884 132.0159232  50.6093538  87.7780488
 124.3924348  60.1102056  92.3328791 125.1052321  60.7449521  92.2604693
 123.9014377  60.2065922  91.5168793 126.1141875  54.0153309  83.9046083
 125.1798154  54.1354771  83.7350787 126.2918544  53.1125775  83.6406093
 121.6147063  47.3999004  86.0579344 121.2444851  46.8470045  86.7460250
 122.1106156  46.7957138  85.5054344 129.5014427  49.8570628  84.4396117
 129.9674879  50.6898620  84.3656420 129.9521927  49.3915610  85.1441375
 119.4436262  57.8596499  93.1534362 120.1445721  58.4932982  93.3063756
 118.9731377  58.2011231  92.3930001 127.5690658  56.2014449  81.4382269
 127.8450502  56.0871044  82.3476143 126.6995157  55.8031934  81.3994442
 127.4731089  42.2251215  88.4787018 126.5594169  42.4555442  88.6469225
 127.9024191  42.3089659  89.3301051 127.2437548  50.4141107  90.9786912
 126.5908998  50.6617014  90.3239365 127.6217928  49.6005245  90.6449390
 124.2044722  60.4500800  85.0815083 124.3867116  59.6322456  85.5442835
 125.0277708  60.6668492  84.6439973 124.5386887  59.3768985  82.3430131
 125.0674654  58.8661440  81.7300293 124.8015107  59.0611515  83.2075664
 123.2925121  51.1560918  97.4652949 122.6165758  51.0555047  98.1355325
 124.1152755  51.0000132  97.9288947 115.0403980  57.3932855  90.0865465
 115.6257417  56.6476542  90.2193369 114.8428819  57.7036811  90.9702129
 117.8942635  60.4284102  85.1027907 117.2253011  60.9130230  84.6191947
 117.7555505  60.6753322  86.0171286 109.6321635  49.9638455  88.8069908
 109.6705734  49.4302045  89.6007026 109.1261928  49.4373660  88.1880885
 122.0347904  62.4627845  91.7010565 122.5866212  62.6259467  92.4659651
 122.3754097  63.0532283  91.0290590 117.0112397  44.8102995  92.3032450
 117.0753724  45.6717826  91.8909848 116.9479517  44.1976997  91.5704809
 116.4864670  46.8826128  95.9505484 117.1136708  46.5003205  96.5643009
 115.6292588  46.6640330  96.3161177 126.8858778  57.2889103  97.5559220
 127.4298682  57.9019061  97.0614175 126.3045623  57.8468681  98.0726233
 113.2630212  48.6902557  81.8823839 113.5583653  47.7813235  81.8290893
 112.3618248  48.6690296  81.5604841 125.1716291  60.4109821  88.6874248
 125.0467431  59.6099561  88.1785193 125.8295382  60.9056014  88.1988217
 116.7924459  46.7658553  87.8651388 116.0711045  47.3794521  87.7258861
 117.5817715  47.3016318  87.7868034 127.2351200  58.2118841  90.3153798
 126.2881535  58.0924192  90.2432124 127.5833973  57.3241339  90.3980059
 119.5950773  44.1012980  94.1392040 120.1185175  44.3475277  94.9018349
 119.3763106  44.9333015  93.7195177 114.9918054  46.3716655  82.0063164
 114.6630760  45.4914033  81.8238270 115.3457425  46.3164323  82.8939554
 124.2397633  58.0071557  86.5158150 124.0922595  57.0788265  86.6965720
 125.0651126  58.0291648  86.0315225 118.1059877  46.6589624  82.3738642
 118.4455950  47.1875546  81.6517250 118.5531998  46.9970030  83.1497209
 127.8431755  58.8300116  87.6023023 128.7678302  58.6242977  87.4647474
 127.6747058  58.5816517  88.5112364 120.8003318  45.0426675  91.8241710
 120.4600138  44.2434488  92.2262390 120.0942324  45.3428386  91.2518543
 121.4519790  42.1275987  90.2769033 122.2745859  41.6536466  90.1547923
 121.6957853  42.9066471  90.7767719 120.0928024  45.1564246  80.5731935
 120.8136387  45.5345499  80.0695652 119.4693328  45.8753123  80.6766913
 124.2359147  45.8609395  81.5090267 124.4522762  46.7434033  81.2079095
 123.7553214  45.4695608  80.7795909 118.9758369  48.8195108  88.0861012
 118.8302949  49.1335411  88.9785293 118.4983572  49.4380008  87.5331910
 120.8354751  45.8097656  88.1341901 120.8216320  44.9138749  87.7974199
 121.5527180  45.8168320  88.7680187 122.6880882  46.2434996  90.1795029
 122.4298660  47.1652067  90.1779359 122.1565923  45.8465431  90.8695493
 127.6327071  59.3485783  82.9585114 127.8063948  58.7832206  82.2058966
 128.1255962  60.1486678  82.7764604 113.4504031  51.3600453  91.0248673
 112.9057499  52.1360261  91.1568947 114.3283381  51.7071257  90.8667794
 120.2391647  44.6912036  83.4029471 120.3607559  43.7628683  83.6020359
 119.9493690  44.7050722  82.4907787 123.1082838  42.3766947  86.5396191
 123.1304535  42.4406280  85.5848171 123.5250897  41.5371455  86.7336697
 133.4866462  52.1122206  84.5775414 133.9297608  51.3629532  84.1794537
 132.6092972  52.1032343  84.1949146 128.6202243  58.6652548  80.0582012
 129.3153148  59.2859241  80.2769327 128.9625394  57.8147899  80.3334390
 114.2370053  50.4870349  93.9178830 113.4951789  50.6352984  94.5043460
 113.9162797  50.7478614  93.0545579 130.5193667  56.1152253  81.5869343
 131.0444991  56.4539526  80.8618663 130.4316019  55.1799269  81.4032478
 122.1813715  60.0286327  93.7159220 122.4900842  59.7835474  94.5881919
 122.9789197  60.2332966  93.2278090 122.2034327  62.1824237  85.9464596
 121.7639318  61.6900615  86.6397453 122.9542444  61.6397204  85.7056672
 114.6826666  58.3735778  85.9489224 115.5084686  58.0739549  85.5687868
 114.3320718  57.6043400  86.3979013 119.6508199  57.7262246  88.0186898
 119.0288209  57.0632951  87.7189126 120.3213066  57.7523378  87.3360546
 112.8835271  56.2922104  86.9078158 112.0467180  55.8644278  86.7262159
 112.8558917  56.4854547  87.8448949 119.7232727  46.2044034  97.6119404
 119.7720882  47.0806157  97.2297174 120.2655241  45.6621427  97.0391047
 130.2087573  56.7485157  96.8920541 129.4183116  56.7309296  96.3525040
 129.9720927  57.2873451  97.6469578 130.3285448  53.5977623  94.2053270
 130.3783453  53.4327631  95.1468792 130.2199371  52.7304882  93.8151150
 119.2121706  56.2766169  81.4945358 119.3609827  56.9601633  80.8412031
 120.0188150  56.2571259  82.0094814 127.6189210  49.5808551  95.5212576
 128.5199073  49.4415016  95.2296574 127.6937185  49.7463006  96.4610754
 121.9532015  46.9575406  94.3665763 121.0835325  47.2508972  94.0948351
 122.1891496  47.5415851  95.0873026 131.8303644  56.0174565  94.4495291
 131.5388453  56.3804545  95.2858752 131.2175776  55.3041573  94.2708623
 133.0299327  53.5827445  86.9697861 133.8646218  54.0217249  87.1335422
 133.1658456  53.1066098  86.1506107 130.0790833  51.1407180  92.9175349
 130.5544954  51.3334826  92.1094200 129.1556398  51.1966365  92.6718733
 116.9674339  52.3031347  82.5006427 116.7220381  51.3993677  82.6986638
 117.1370254  52.3048497  81.5585905 124.6571049  43.1755023  91.8831183
 125.1752993  43.9116050  91.5577672 124.3026182  43.4819016  92.7177942
 116.2369987  48.0359704  79.9992589 115.5439232  48.1104059  79.3432625
 115.9921739  47.2720048  80.5214106 124.9083643  39.5955306  87.4032080
 125.1885397  38.9278495  88.0292506 125.6934250  39.7884401  86.8906743
 122.7117112  58.7714300  78.9657106 122.1391079  59.3904487  78.5127578
 123.2849906  59.3213661  79.4997028 128.7792502  48.0172940  91.1503655
 129.7309925  48.1171037  91.1715879 128.6095952  47.2251208  91.6601739
 126.8006881  45.1028523  91.3363056 126.2056813  45.3833536  90.6409544
 126.5156578  45.5922424  92.1079797 125.9314372  59.0551450  80.0965688
 126.8645045  58.9897011  80.2998564 125.8437584  59.8907717  79.6380221
 128.5602388  58.3717320  77.0569636 128.4816020  58.0377184  77.9505394
 129.3812055  58.8639088  77.0561108 131.2580579  51.2379059  90.2645954
 131.2256900  50.2995060  90.4505638 131.8681203  51.3163096  89.5311779
 123.0963910  50.1075112  76.3073158 124.0423015  49.9781320  76.3761576
 122.7178155  49.3689774  76.7842587 131.4075068  48.0290103  90.3104238
 130.8914117  47.2448559  90.1234166 132.2915016  47.7008819  90.4750757
 129.0685795  41.7731118  86.2700050 128.8710616  41.4646207  87.1543382
 129.6785500  42.4992757  86.3997980 137.0757129  52.2995066  89.4051991
 137.8060518  52.0380354  89.9659694 136.4664075  51.5623788  89.4454059
 135.1572426  50.4402929  90.0026442 134.4305590  50.3058894  89.3942934
 134.7419713  50.7479757  90.8083160 122.9802603  54.1592858  97.7673815
 123.9005612  54.3371457  97.9613862 122.9452186  53.2148904  97.6153515
 121.2806827  48.0325089  76.2428044 120.3738283  47.7358201  76.3190757
 121.5582808  47.7354907  75.3762330 112.1984768  49.3531452  86.6927090
 111.8787552  48.4996760  86.4001464 111.6518196  49.5680030  87.4485057
 115.9764675  52.0693893  90.4096597 116.1950685  53.0011001  90.4284630
 116.3890449  51.7101867  91.1951400 122.8968893  42.5761978  82.3972285
 122.0869622  42.2309063  82.7727531 123.5853310  42.2669522  82.9859896
 124.8259441  41.6540025  84.0196582 125.3790480  42.0735479  84.6786605
 125.0629528  40.7275773  84.0619538 120.8492541  47.6427099  99.7999345
 120.7489268  48.5921456  99.7311437 120.6314083  47.3145338  98.9275416
 120.0505612  44.8912024  76.3840023 120.9124776  45.2166922  76.6435840
 120.2355956  44.1043520  75.8713089 112.0673028  52.9734364  88.6620212
 111.3736499  52.5588316  88.1490166 112.8146019  53.0154900  88.0653631
 128.2038249  43.7640550  83.5275246 127.6236918  44.4225354  83.1453298
 127.9374181  42.9417895  83.1162663 126.6541815  43.1645608  85.7296566
 127.1541593  43.2762143  84.9210885 127.2977423  42.8606661  86.3697375
 120.7123811  51.0724238  98.6164407 120.2290892  51.8724598  98.8228296
 120.7984750  51.0832183  97.6631851 113.9809770  52.9052617  86.5386226
 113.9580459  53.0040305  85.5868110 114.2910407  53.7517768  86.8603393
 116.6397148  54.9628772  90.6532841 117.5940402  54.9312715  90.5862772
 116.4409672  54.5019396  91.4683067 117.2296530  53.5329888  93.2203639
 118.0489419  54.0273967  93.2438476 117.5033338  52.6161857  93.1921206
 126.9863127  45.9240641  82.5831594 126.0988982  46.2090291  82.3651789
 127.4017116  45.7634404  81.7358871 130.3377663  45.9487162  86.2985933
 131.1138053  46.4383614  86.5710550 129.6125797  46.3745216  86.7557803
 132.7750221  46.6614781  87.3559874 133.3694712  46.4210517  86.6453182
 132.8476805  45.9421912  87.9833410 114.9947377  60.5048392  87.6703039
 114.8601845  59.7448793  87.1041037 114.5779439  61.2289292  87.2031828
 126.1306340  55.6885315  76.6779614 126.8342190  55.8935318  77.2937270
 125.4068989  56.2562077  76.9428698 126.9604150  51.4395177  82.7981884
 126.9039352  51.8963728  81.9589517 127.5132493  50.6785861  82.6204727
 130.7708956  47.2284909  83.6232004 130.5145890  46.8281544  84.4540211
 130.1461824  47.9428702  83.4982143 135.0821294  49.9680982  86.1303295
 134.5220852  50.0374171  86.9034857 134.4764797  49.7921966  85.4102791
 118.1516503  61.4017709  87.8821481 118.0348887  62.3463141  87.7800172
 117.3308949  61.0991270  88.2707281 128.0393037  56.1267845  78.7278074
 128.8738641  55.6949043  78.5455549 127.8777380  55.9549858  79.6554969
 127.6938930  52.6299958  80.0934413 127.6387733  52.4644229  79.1522858
 127.0684985  53.3375991  80.2496603 112.4831445  47.8668022  93.9195836
 113.1290308  47.3566976  94.4083061 112.2748596  48.6036704  94.4939261
 125.0084837  54.9348870  99.4187976 125.8775996  55.1089522  99.0574611
 124.5291588  55.7543287  99.2963706 121.0035055  42.1308067  79.6719732
 120.9913725  43.0749907  79.8288003 121.8958477  41.9478212  79.3779193
 119.1771017  62.0545971  91.0977410 120.0798264  62.0869581  91.4143905
 118.9508387  61.1246422  91.1123746 120.9324619  60.8076957  87.7587488
 119.9820250  60.8078819  87.6451861 121.2357105  60.0609692  87.2423523
 124.8187175  38.7250844  83.9265669 124.0519570  38.1709330  84.0722351
 125.2297880  38.7972712  84.7879820 116.8228936  45.0135639  98.0170850
 117.6860397  44.6572444  98.2274174 116.2494346  44.6749534  98.7046254
 136.6677313  66.6437496  88.8233251 137.3055723  66.5244243  88.1196591
 136.5498155  67.5918340  88.8821203 133.4767019  66.5964924  88.7594776
 133.1385530  66.4805989  87.8715310 134.3456787  66.1956089  88.7395782
 129.3353835  68.4500400  84.7491667 128.7718700  68.3590337  83.9807954
 129.2206230  67.6300305  85.2294159 133.9586802  67.7499776  94.7180981
 133.9475443  67.3552574  93.8461485 134.1207441  67.0165848  95.3114753
 126.8818266  69.9451592  87.5875887 127.6739558  69.6042416  87.1722186
 127.1214917  70.0546567  88.5078040 134.9153393  72.1171368  80.0606131
 134.2641373  72.7025448  79.6740145 135.7097756  72.6477563  80.1201169
 128.8409020  69.2060505  80.4593266 129.6139896  68.6589492  80.3206142
 129.1934419  70.0704754  80.6707727 130.6794063  70.5336887  93.6660165
 130.3883929  71.4382518  93.5506831 131.3151047  70.5753415  94.3804235
 131.6050270  67.9113736  90.2561525 132.2013842  67.6869758  89.5418488
 131.6625241  67.1698481  90.8586973 131.1775298  65.3653171  78.0911716
 131.4300819  64.8434692  77.3295179 130.2399857  65.2019317  78.1938399
 136.2218581  64.3688950  85.8986459 137.0081670  63.9508373  85.5476876
 136.4857285  65.2735042  86.0668107 136.3928658  69.8061800  80.5975116
 135.7574491  69.8796426  81.3096020 136.0626065  70.3955399  79.9194195
 141.6227008  64.3064183  86.8019437 142.3552180  63.7363400  87.0357267
 140.8666364  63.9185783  87.2425943 130.8971587  67.2681277  80.2936091
 130.7807845  66.5926181  80.9617175 131.0073847  66.7813651  79.4768244
 133.2403128  66.7291424  83.9982780 132.8761335  66.2022045  84.7095701
 134.0970244  66.3389893  83.8249265 139.1452429  58.0185757  91.2614046
 138.8135753  58.8881168  91.0375261 138.5498042  57.7022041  91.9408076
 132.8808615  61.7581324  78.9944128 133.0483017  62.6261560  79.3614599
 132.6905784  61.9208606  78.0705418 135.6383948  70.2198303  90.6609959
 135.3384671  71.1223342  90.5525766 135.2935008  69.9530486  91.5131112
 129.0896430  66.6712100  86.6946663 128.1646926  66.5388314  86.9024355
 129.3380843  67.4506319  87.1916606 139.0381092  62.7380843  88.3407396
 138.1297969  62.6696252  88.0466157 138.9868688  63.2152788  89.1689222
 132.8597836  64.2138981  79.9790795 132.7397461  64.6596032  80.8176275
 132.1650424  64.5624299  79.4204333 126.4505241  66.3145373  87.5290452
 126.5797622  66.5679852  88.4429864 125.7702692  66.9073081  87.2095107
 130.6204728  76.9842623  83.6280926 130.5428758  77.9350448  83.7069407
 130.0166371  76.6388496  84.2855853 133.1121958  64.1570489  96.2842293
 132.3355292  64.7164409  96.2745158 133.7512521  64.6427272  96.8057163
 140.9042738  60.9397281  90.1185270 140.2617118  61.2329815  89.4725065
 140.3997667  60.8250202  90.9238467 138.5582902  64.6860455  80.8071129
 139.4700758  64.9187841  80.6318827 138.0492549  65.2697499  80.2446208
 131.3668330  66.9655942  95.8460260 132.1083014  67.5040986  95.5695084
 130.6605315  67.5922231  96.0031812 136.8423670  69.1085082  94.4432422
 137.2507026  68.6667493  93.6987054 136.1200931  68.5337710  94.6966615
 133.1954740  64.0457689  91.8165979 134.0415935  64.4697103  91.9600628
 133.1353377  63.3891314  92.5104542 137.1652484  69.6686273  88.1984711
 136.5361347  69.8331987  87.4960779 136.7778146  70.0827883  88.9695675
 141.0441716  70.6040711  85.5529074 140.3592754  70.9839612  85.0026108
 141.1285565  71.2136038  86.2861022 136.3454185  61.7062058  93.4747152
 136.1015117  62.4604118  92.9381428 136.6214115  62.0847405  94.3094399
 138.2992648  68.2500670  92.1524418 138.5109543  68.8932430  91.4758799
 138.2522396  67.4162987  91.6846348 135.9018877  60.8618491  89.0560990
 135.0403356  61.1599744  89.3477728 135.9281311  61.0788890  88.1242023
 132.7180446  69.4060681  85.4634796 133.1818792  69.6848384  84.6739418
 132.4537244  68.5044126  85.2807887 129.6104527  68.9532163  88.4014559
 130.1805884  69.3819431  87.7632044 130.2012639  68.6714747  89.0998745
 131.6549332  65.5283834  82.2724361 132.3573375  65.9804877  82.7398287
 131.3229961  64.8867652  82.9004254 130.1029694  64.1195590  96.6475570
 129.4728354  64.8011871  96.8810967 129.9965782  64.0078672  95.7028709
 125.3974666  63.7867386  87.5741495 124.6073720  64.0424915  87.0981605
 125.8885913  64.6015724  87.6793535 139.4138476  71.1272625  90.3246775
 140.2355919  70.7252813  90.0429457 139.4100879  71.0240860  91.2762891
 127.3489411  64.1511965  84.5324971 126.5520575  64.2630660  85.0508467
 127.1215004  64.4898618  83.6665862 133.1795079  70.6756669  92.4807486
 133.2439512  71.1377076  93.3165658 132.4706003  70.0454034  92.6089796
 123.6812369  64.0397877  90.0056485 123.9320408  64.9244887  90.2714061
 124.2171917  63.8602478  89.2331577 147.5044469  67.4711374  86.6731747
 146.7508177  66.9018772  86.5175751 147.6392010  67.4374038  87.6202382
 132.8943097  72.3424776  82.3486466 132.7588772  73.1876312  82.7771314
 133.4352909  72.5444054  81.5852400 129.3810436  58.4216356  99.0100821
 128.9877382  57.8682555  99.6848466 130.1976577  58.7326935  99.4007339
 126.3472494  69.8600214  82.9214391 126.8597015  70.6543464  83.0719956
 126.9995207  69.1626505  82.8547993 128.1567379  72.9765971  85.0037144
 128.3334007  73.8983935  84.8158128 128.9524212  72.6624390  85.4331524
 132.2978397  59.8374235  96.6021078 133.0388111  60.4381388  96.5225540
 132.5296320  59.0951873  96.0439121 127.4419735  65.0230602  94.8799308
 127.3273251  64.1215860  95.1806407 126.5864253  65.2694299  94.5284124
 134.5211573  72.9648343  96.4786808 134.0775427  72.1784721  96.1607713
 135.1828787  73.1527493  95.8130699 129.2798694  74.4944144  91.0047487
 129.8306119  74.3661208  90.2324481 128.4410170  74.7939033  90.6542380
 136.6192811  73.2451143  94.5068210 136.6011287  74.0660024  94.0148479
 137.5412731  73.1205218  94.7318351 133.0765865  70.7595272  95.3491718
 133.6094202  69.9983560  95.1191026 132.5479946  70.4668924  96.0915872
 136.2435560  55.8655338  90.8785360 135.8999830  56.7556980  90.8024470
 136.6114523  55.6756996  90.0154945 124.3121411  68.1888869  83.6973962
 125.1496633  68.5985877  83.4807670 124.4899679  67.2488311  83.6674156
 136.2085843  65.8563949  79.3857795 135.6932466  66.6268554  79.6246182
 135.9363152  65.1829085  80.0090856 133.7932954  60.7013650  84.4443033
 132.9374550  60.3120500  84.2648672 134.2059906  60.7805611  83.5842819
 135.3232101  58.2359993  88.8434593 134.8196896  58.1990128  88.0302398
 135.6162708  59.1452736  88.9031250 131.5674987  58.3198723  87.8500775
 132.4327983  58.1241532  87.4906664 131.6352496  58.0909075  88.7770131
 141.1820117  68.6096304  81.3210968 140.4049560  68.2707463  80.8766130
 141.8611598  68.6148927  80.6465933 135.9972146  63.7291041  81.2117576
 135.6922282  64.0437190  82.0627719 136.9502588  63.8072461  81.2544909
 134.4418578  69.8881265  82.8610530 133.9139940  69.1534024  82.5483767
 133.9406081  70.6655941  82.6150498 139.4211424  68.0830285  87.9777576
 138.7635099  68.7729546  88.0657705 140.2251823  68.4726717  88.3211563
 129.1737306  60.5500931  85.2217141 129.7481058  60.3276112  84.4890334
 129.7608288  60.6189625  85.9745743 138.2316883  66.4374658  86.0281518
 138.7448765  67.0704650  86.5303228 138.8818107  65.8375853  85.6624878
 129.5006893  62.5805392  79.2413027 128.6644205  62.9180078  79.5622301
 129.3611662  62.4454372  78.3040164 131.4759973  57.4242180  83.9492211
 130.8224386  57.1091197  83.3248826 131.4340448  56.8017920  84.6752034
 132.5871178  67.7061475  75.8645503 131.6798240  67.4750728  76.0636652
 133.0842210  66.9099094  76.0519484 135.4939257  76.4158982  78.7842189
 134.8200956  76.7190679  79.3927147 135.8805079  77.2188062  78.4347646
 134.7097714  63.9124113  88.2739858 133.7920275  64.1339060  88.1161547
 135.1257857  63.9870424  87.4151566 135.4932762  65.3115529  83.4042539
 136.2404580  65.8236926  83.0949661 135.7624351  64.9899582  84.2646932
 133.7659412  67.8074070  80.3869493 132.8570631  67.5233103  80.4841963
 133.7954496  68.2273148  79.5272800 138.9978679  71.4180659  84.1560661
 138.5441006  70.5771569  84.2125851 138.3672646  72.0542058  84.4935441
 137.9411599  62.3472645  85.3861328 137.2034355  61.8350031  85.7171571
 138.1938372  61.9073027  84.5744605 137.4411618  73.2557156  85.0910479
 137.7334593  73.8162213  84.3722844 137.9510239  73.5485717  85.8463638
 138.0423226  55.1248897  85.9803097 138.3482103  54.2646261  85.6929012
 138.7675831  55.7166517  85.7802091 124.3347582  65.5279584  84.3684695
 124.1371982  64.9348945  83.6435762 123.7794246  65.2231794  85.0860634
 132.3144306  65.4202690  86.4879288 132.3692916  64.4676527  86.4121765
 131.5035508  65.5762129  86.9720587 133.4635500  69.3482813  77.7257572
 133.0254929  68.6318672  77.2663209 134.2045940  69.5758928  77.1642663
 130.2536666  64.0379750  84.2469667 129.4404531  64.3373921  84.6534859
 130.7495660  63.6435439  84.9644150 132.4045244  74.0337507  86.1803932
 132.3621422  74.2598353  85.2512464 133.3207942  73.8000882  86.3289733
 135.8510877  64.5021575  93.0784561 136.2060265  64.7293048  93.9379027
 136.4983009  64.8339951  92.4561816 141.5808614  67.6240010  83.7833890
 141.4426513  67.8141606  82.8555079 141.2244833  68.3859393  84.2401941
 129.7450740  61.6098106  89.8630902 130.3850120  61.4686865  89.1653866
 128.9128271  61.3232619  89.4869504 141.6077994  69.6916537  88.7945162
 142.0414501  69.5991827  89.6428216 142.3209575  69.6674038  88.1565178
 130.5211044  70.9100536  85.9765895 131.3151643  70.4150856  85.7748470
 129.8102737  70.3818399  85.6133600 135.3405889  73.2918632  90.3278262
 135.3942911  73.8609568  91.0955978 134.4720670  73.4620517  89.9632299
 126.8293808  65.0543618  82.0525647 125.8991396  64.9928073  82.2695609
 126.9251280  64.5319571  81.2562289 126.7479357  61.5798431  84.6403889
 127.0086174  62.4943764  84.5313049 127.5696529  61.1122873  84.7900502
 128.2204282  62.9936188  91.8102714 128.8927336  62.7853550  91.1615362
 127.3934069  62.7958274  91.3707946 142.4693543  69.7340238  91.3278047
 142.6629434  70.6386049  91.5737322 142.3694162  69.2747657  92.1616632
 134.1229854  59.6198129  93.8268374 133.4757769  60.3188078  93.7332851
 134.8930870  60.0534273  94.1944623 137.5308652  69.8846981  96.9018928
 137.3794159  69.6557533  95.9849011 137.5213332  70.8417582  96.9150273
 134.2993989  67.4578894  91.8865194 135.2286049  67.6090053  91.7134161
 133.8785019  67.5462914  91.0313841 133.0982320  71.4829558  89.6563732
 132.9593406  71.1148342  90.5289670 132.3096917  71.9977197  89.4847690
 133.6930472  76.5838654  80.9989268 133.8682228  76.1126698  81.8134891
 133.0063260  77.2104421  81.2270529 134.6487535  70.8611161  87.0452570
 134.3137368  70.8211931  87.9410219 134.1491481  70.1955877  86.5722980
 128.6231779  66.2678791  92.5705151 128.4851577  65.5359030  93.1716690
 129.5336703  66.1787691  92.2889338 137.5846727  68.2067195  77.3189629
 136.9675898  67.4814023  77.2222682 137.1163216  68.9676555  76.9756703
 131.2514080  65.9798750  92.0588830 131.9613699  65.3391942  92.0175449
 131.2083388  66.2311645  92.9815011 139.2400859  72.9166103  94.9795410
 139.1813405  72.2325324  94.3125993 139.6420377  73.6585093  94.5276036
 129.9643014  62.9663968  93.8784470 129.4280371  62.5154706  94.5306066
 129.3759723  63.1009877  93.1354934 128.2591558  79.7328017  87.7729128
 128.4988156  80.3646541  88.4508147 127.4160754  79.3816057  88.0594488
 129.3745273  62.4252619  76.4410933 128.4974739  62.3041420  76.0773180
 129.8503026  61.6338698  76.1889822 139.2418266  70.8805687  93.2109389
 138.3545045  70.5431609  93.3335788 139.8116817  70.1488719  93.4478155
 120.8947413  67.2129779  86.5352441 121.5818453  66.8991509  85.9473456
 120.7395542  68.1171144  86.2619692 125.6982135  62.1019976  90.9637464
 125.6140324  61.4945645  90.2287874 124.8764842  62.5928994  90.9646961
 132.7719419  75.5407140  90.1770632 132.6989591  76.3462111  90.6889937
 132.3296813  75.7399105  89.3518654 132.5609199  74.7778910  83.6873454
 131.7776721  75.3200590  83.7811679 133.2601944  75.2952889  84.0867695
 135.8705849  60.5873539  86.3307659 136.3674549  59.8343501  86.0108730
 135.0992831  60.6237856  85.7650869 143.7235607  66.2913905  87.9725951
 143.7125483  67.1738620  87.6019884 142.8552986  65.9385456  87.7780488
 135.2318103  75.4393974  92.3328791 135.9446075  76.0741439  92.2604693
 134.7408132  75.5357840  91.5168793 136.9535630  69.3445226  83.9046083
 136.0191909  69.4646689  83.7350787 137.1312298  68.4417693  83.6406093
 132.4540818  62.7290922  86.0579344 132.0838605  62.1761963  86.7460250
 132.9499910  62.1249056  85.5054344 140.3408181  65.1862546  84.4396117
 140.8068633  66.0190537  84.3656420 140.7915682  64.7207527  85.1441375
 130.2830016  73.1888417  93.1534362 130.9839476  73.8224900  93.3063756
 129.8125131  73.5303149  92.3930001 138.4084412  71.5306367  81.4382269
 138.6844256  71.4162962  82.3476143 137.5388911  71.1323852  81.3994442
 138.3124844  57.5543133  88.4787018 137.3987924  57.7847359  88.6469225
 138.7417945  57.6381577  89.3301051 138.0831302  65.7433025  90.9786912
 137.4302753  65.9908932  90.3239365 138.4611682  64.9297163  90.6449390
 135.0438476  75.7792718  85.0815083 135.2260871  74.9614374  85.5442835
 135.8671462  75.9960410  84.6439973 135.3780642  74.7060903  82.3430131
 135.9068408  74.1953358  81.7300293 135.6408861  74.3903433  83.2075664
 134.1318875  66.4852836  97.4652949 133.4559513  66.3846965  98.1355325
 134.9546509  66.3292049  97.9288947 125.8797735  72.7224772  90.0865465
 126.4651171  71.9768460  90.2193369 125.6822573  73.0328729  90.9702129
 128.7336390  75.7576020  85.1027907 128.0646765  76.2422147  84.6191947
 128.5949259  76.0045240  86.0171286 120.4715389  65.2930372  88.8069908
 120.5099489  64.7593963  89.6007026 119.9655682  64.7665578  88.1880885
 132.8741658  77.7919763  91.7010565 133.4259966  77.9551385  92.4659651
 133.2147852  78.3824201  91.0290590 127.8506152  60.1394913  92.3032450
 127.9147478  61.0009744  91.8909848 127.7873272  59.5268915  91.5704809
 127.3258424  62.2118045  95.9505484 127.9530463  61.8295123  96.5643009
 126.4686343  61.9932247  96.3161177 137.7252533  72.6181021  97.5559220
 138.2692437  73.2310979  97.0614175 137.1439378  73.1760599  98.0726233
 124.1023967  64.0194475  81.8823839 124.3977408  63.1105153  81.8290893
 123.2012003  63.9982214  81.5604841 136.0110046  75.7401739  88.6874248
 135.8861185  74.9391478  88.1785193 136.6689137  76.2347932  88.1988217
 127.6318214  62.0950471  87.8651388 126.9104800  62.7086439  87.7258861
 128.4211470  62.6308236  87.7868034 138.0744954  73.5410759  90.3153798
 137.1275290  73.4216110  90.2432124 138.4227727  72.6533257  90.3980059
 130.4344527  59.4304898  94.1392040 130.9578929  59.6767194  94.9018349
 130.2156861  60.2624932  93.7195177 125.8311808  61.7008572  82.0063164
 125.5024515  60.8205951  81.8238270 126.1851179  61.6456241  82.8939554
 135.0791387  73.3363475  86.5158150 134.9316350  72.4080182  86.6965720
 135.9044881  73.3583566  86.0315225 128.9453632  61.9881542  82.3738642
 129.2849704  62.5167463  81.6517250 129.3925752  62.3261948  83.1497209
 138.6825509  74.1592034  87.6023023 139.6072057  73.9534895  87.4647474
 138.5140813  73.9108435  88.5112364 131.6397072  60.3718593  91.8241710
 131.2993893  59.5726406  92.2262390 130.9336079  60.6720304  91.2518543
 132.2913544  57.4567905  90.2769033 133.1139614  56.9828383  90.1547923
 132.5351608  58.2358389  90.7767719 130.9321779  60.4856164  80.5731935
 131.6530141  60.8637416  80.0695652 130.3087083  61.2045040  80.6766913
 135.0752902  61.1901313  81.5090267 135.2916516  62.0725950  81.2079095
 134.5946969  60.7987526  80.7795909 129.8152123  64.1487026  88.0861012
 129.6696704  64.4627329  88.9785293 129.3377327  64.7671926  87.5331910
 131.6748506  61.1389574  88.1341901 131.6610075  60.2430667  87.7974199
 132.3920934  61.1460238  88.7680187 133.5274637  61.5726914  90.1795029
 133.2692414  62.4943985  90.1779359 132.9959677  61.1757349  90.8695493
 138.4720825  74.6777701  82.9585114 138.6457703  74.1124124  82.2058966
 138.9649717  75.4778596  82.7764604 124.2897785  66.6892370  91.0248673
 123.7451253  67.4652178  91.1568947 125.1677135  67.0363175  90.8667794
 131.0785402  60.0203954  83.4029471 131.2001313  59.0920600  83.6020359
 130.7887444  60.0342640  82.4907787 133.9476592  57.7058865  86.5396191
 133.9698289  57.7698198  85.5848171 134.3644651  56.8663373  86.7336697
 144.3260217  67.4414124  84.5775414 144.7691363  66.6921449  84.1794537
 143.4486727  67.4324260  84.1949146 139.4595998  73.9944466  80.0582012
 140.1546902  74.6151158  80.2769327 139.8019148  73.1439817  80.3334390
 125.0763807  65.8162266  93.9178830 124.3345543  65.9644902  94.5043460
 124.7556551  66.0770532  93.0545579 141.3587421  71.4444171  81.5869343
 141.8838745  71.7831444  80.8618663 141.2709774  70.5091186  81.4032478
 133.0207470  75.3578245  93.7159220 133.3294596  75.1127391  94.5881919
 133.8182952  75.5624883  93.2278090 133.0428082  77.5116154  85.9464596
 132.6033072  77.0192533  86.6397453 133.7936199  76.9689122  85.7056672
 125.5220421  73.7027695  85.9489224 126.3478441  73.4031467  85.5687868
 125.1714473  72.9335318  86.3979013 130.4901954  73.0554163  88.0186898
 129.8681963  72.3924868  87.7189126 131.1606821  73.0815295  87.3360546
 123.7229026  71.6214022  86.9078158 122.8860934  71.1936196  86.7262159
 123.6952671  71.8146465  87.8448949 130.5626481  61.5335951  97.6119404
 130.6114637  62.4098074  97.2297174 131.1048996  60.9913345  97.0391047
 141.0481327  72.0777075  96.8920541 140.2576871  72.0601214  96.3525040
 140.8114682  72.6165368  97.6469578 141.1679202  68.9269541  94.2053270
 141.2177207  68.7619549  95.1468792 141.0593125  68.0596800  93.8151150
 130.0515461  71.6058087  81.4945358 130.2003581  72.2893551  80.8412031
 130.8581904  71.5863177  82.0094814 138.4582965  64.9100469  95.5212576
 139.3592827  64.7706934  95.2296574 138.5330939  65.0754924  96.4610754
 132.7925770  62.2867324  94.3665763 131.9229079  62.5800890  94.0948351
 133.0285250  62.8707769  95.0873026 142.6697399  71.3466483  94.4495291
 142.3782207  71.7096463  95.2858752 142.0569530  70.6333491  94.2708623
 143.8693081  68.9119362  86.9697861 144.7039973  69.3509166  87.1335422
 144.0052210  68.4358016  86.1506107 140.9184587  66.4699097  92.9175349
 141.3938709  66.6626744  92.1094200 139.9950153  66.5258283  92.6718733
 127.8068094  67.6323264  82.5006427 127.5614136  66.7285594  82.6986638
 127.9764008  67.6340415  81.5585905 135.4964804  58.5046941  91.8831183
 136.0146748  59.2407968  91.5577672 135.1419936  58.8110934  92.7177942
 127.0763741  63.3651622  79.9992589 126.3832986  63.4395977  79.3432625
 126.8315493  62.6011966  80.5214106 135.7477398  54.9247223  87.4032080
 136.0279152  54.2570412  88.0292506 136.5328005  55.1176319  86.8906743
 133.5510866  74.1006217  78.9657106 132.9784833  74.7196404  78.5127578
 134.1243660  74.6505579  79.4997028 139.6186256  63.3464857  91.1503655
 140.5703679  63.4462955  91.1715879 139.4489707  62.5543126  91.6601739
 137.6400636  60.4320441  91.3363056 137.0450568  60.7125453  90.6409544
 137.3550332  60.9214341  92.1079797 136.7708126  74.3843367  80.0965688
 137.7038799  74.3188929  80.2998564 136.6831339  75.2199634  79.6380221
 139.3996143  73.7009238  77.0569636 139.3209774  73.3669101  77.9505394
 140.2205810  74.1931006  77.0561108 142.0974334  66.5670977  90.2645954
 142.0650654  65.6286978  90.4505638 142.7074958  66.6455014  89.5311779
 133.9357665  65.4367030  76.3073158 134.8816770  65.3073238  76.3761576
 133.5571910  64.6981692  76.7842587 142.2468822  63.3582020  90.3104238
 141.7307871  62.5740477  90.1234166 143.1308771  63.0300737  90.4750757
 139.9079549  57.1023036  86.2700050 139.7104370  56.7938124  87.1543382
 140.5179255  57.8284675  86.3997980 145.9966181  65.7694846  90.0026442
 145.2699345  65.6350811  89.3942934 145.5813468  66.0771675  90.8083160
 133.8196357  69.4884776  97.7673815 134.7399367  69.6663375  97.9613862
 133.7845940  68.5440821  97.6153515 132.1200582  63.3617006  76.2428044
 131.2132037  63.0650119  76.3190757 132.3976563  63.0646824  75.3762330
 123.0378522  64.6823370  86.6927090 122.7181307  63.8288678  86.4001464
 122.4911951  64.8971948  87.4485057 126.8158430  67.3985811  90.4096597
 127.0344440  68.3302919  90.4284630 127.2284204  67.0393785  91.1951400
 133.7362648  57.9053896  82.3972285 132.9263376  57.5600981  82.7727531
 134.4247065  57.5961440  82.9859896 135.6653196  56.9831943  84.0196582
 136.2184235  57.4027396  84.6786605 135.9023282  56.0567691  84.0619538
 131.6886295  62.9719017  99.7999345 131.5883022  63.9213373  99.7311437
 131.4707837  62.6437255  98.9275416 130.8899367  60.2203942  76.3840023
 131.7518531  60.5458840  76.6435840 131.0749711  59.4335437  75.8713089
 122.9066782  68.3026281  88.6620212 122.2130254  67.8880234  88.1490166
 123.6539773  68.3446818  88.0653631 139.0432003  59.0932468  83.5275246
 138.4630672  59.7517272  83.1453298 138.7767936  58.2709813  83.1162663
 137.4935569  58.4937526  85.7296566 137.9935348  58.6054060  84.9210885
 138.1371177  58.1898579  86.3697375 131.5517565  66.4016155  98.6164407
 131.0684647  67.2016515  98.8228296 131.6378504  66.4124100  97.6631851
 124.8203525  68.2344535  86.5386226 124.7974213  68.3332222  85.5868110
 125.1304161  69.0809686  86.8603393 127.4790903  70.2920690  90.6532841
 128.4334156  70.2604632  90.5862772 127.2803426  69.8311314  91.4683067
 128.0690285  68.8621806  93.2203639 128.8883174  69.3565885  93.2438476
 128.3427093  67.9453774  93.1921206 137.8256881  61.2532558  82.5831594
 136.9382736  61.5382209  82.3651789 138.2410870  61.0926322  81.7358871
 141.1771417  61.2779079  86.2985933 141.9531807  61.7675532  86.5710550
 140.4519551  61.7037134  86.7557803 143.6143976  61.9906699  87.3559874
 144.2088467  61.7502435  86.6453182 143.6870560  61.2713829  87.9833410
 125.8341132  75.8340310  87.6703039 125.6995599  75.0740710  87.1041037
 125.4173194  76.5581209  87.2031828 136.9700095  71.0177233  76.6779614
 137.6735945  71.2227236  77.2937270 136.2462743  71.5853995  76.9428698
 137.7997905  66.7687094  82.7981884 137.7433106  67.2255646  81.9589517
 138.3526247  66.0077779  82.6204727 141.6102711  62.5576826  83.6232004
 141.3539645  62.1573462  84.4540211 140.9855579  63.2720620  83.4982143
 145.9215049  65.2972899  86.1303295 145.3614607  65.3666089  86.9034857
 145.3158552  65.1213884  85.4102791 128.9910257  76.7309627  87.8821481
 128.8742642  77.6755059  87.7800172 128.1702704  76.4283188  88.2707281
 138.8786792  71.4559762  78.7278074 139.7132396  71.0240961  78.5455549
 138.7171135  71.2841776  79.6554969 138.5332684  67.9591876  80.0934413
 138.4781488  67.7936147  79.1522858 137.9078739  68.6667909  80.2496603
 123.3225199  63.1959940  93.9195836 123.9684063  62.6858894  94.4083061
 123.1142350  63.9328622  94.4939261 135.8478591  70.2640787  99.4187976
 136.7169751  70.4381440  99.0574611 135.3685343  71.0835204  99.2963706
 131.8428810  57.4599985  79.6719732 131.8307479  58.4041825  79.8288003
 132.7352231  57.2770130  79.3779193 130.0164772  77.3837888  91.0977410
 130.9192018  77.4161499  91.4143905 129.7902142  76.4538339  91.1123746
 131.7718374  76.1368875  87.7587488 130.8214005  76.1370737  87.6451861
 132.0750860  75.3901610  87.2423523 135.6580929  54.0542761  83.9265669
 134.8913325  53.5001248  84.0722351 136.0691634  54.1264630  84.7879820
 127.6622690  60.3427557  98.0170850 128.5254152  59.9864362  98.2274174
 127.0888101  60.0041452  98.7046254 144.3160773  81.9256842  88.7594776
 143.9779285  81.8097906  87.8715310 145.1850542  81.5248007  88.7395782
 140.1747589  83.7792318  84.7491667 139.6112454  83.6882255  83.9807954
 140.0599984  82.9592222  85.2294159 144.7980556  83.0791693  94.7180981
 144.7869197  82.6844492  93.8461485 144.9601196  82.3457766  95.3114753
 137.7212021  85.2743510  87.5875887 138.5133313  84.9334334  87.1722186
 137.9608671  85.3838485  88.5078040 145.7547148  87.4463286  80.0606131
 145.1035128  88.0317366  79.6740145 146.5491511  87.9769481  80.1201169
 139.6802775  84.5352423  80.4593266 140.4533651  83.9881410  80.3206142
 140.0328174  85.3996672  80.6707727 141.5187817  85.8628805  93.6660165
 141.2277683  86.7674436  93.5506831 142.1544802  85.9045333  94.3804235
 142.4444024  83.2405654  90.2561525 143.0407597  83.0161676  89.5418488
 142.5018996  82.4990399  90.8586973 142.0169053  80.6945089  78.0911716
 142.2694573  80.1726610  77.3295179 141.0793612  80.5311234  78.1938399
 147.0612336  79.6980867  85.8986459 147.8475425  79.2800290  85.5476876
 147.3251040  80.6026959  86.0668107 147.2322413  85.1353718  80.5975116
 146.5968246  85.2088344  81.3096020 146.9019819  85.7247316  79.9194195
 141.7365341  82.5973195  80.2936091 141.6201600  81.9218098  80.9617175
 141.8467601  82.1105569  79.4768244 144.0796882  82.0583342  83.9982780
 143.7155090  81.5313963  84.7095701 144.9363998  81.6681811  83.8249265
 143.7202369  77.0873242  78.9944128 143.8876772  77.9553478  79.3614599
 143.5299538  77.2500523  78.0705418 146.4777703  85.5490221  90.6609959
 146.1778426  86.4515259  90.5525766 146.1328762  85.2822404  91.5131112
 139.9290184  82.0004017  86.6946663 139.0040681  81.8680232  86.9024355
 140.1774597  82.7798237  87.1916606 143.6991590  79.5430899  79.9790795
 143.5791215  79.9887950  80.8176275 143.0044179  79.8916217  79.4204333
 137.2898995  81.6437291  87.5290452 137.4191376  81.8971770  88.4429864
 136.6096446  82.2364999  87.2095107 141.4598482  92.3134541  83.6280926
 141.3822512  93.2642366  83.7069407 140.8560126  91.9680413  84.2855853
 143.9515712  79.4862406  96.2842293 143.1749046  80.0456326  96.2745158
 144.5906275  79.9719189  96.8057163 142.2062084  82.2947860  95.8460260
 142.9476769  82.8332904  95.5695084 141.4999070  82.9214148  96.0031812
 144.0348494  79.3749607  91.8165979 144.8809689  79.7989020  91.9600628
 143.9747132  78.7183231  92.5104542 147.1847939  77.0353975  93.4747152
 146.9408871  77.7896036  92.9381428 147.4607870  77.4139323  94.3094399
 146.7412631  76.1910408  89.0560990 145.8797110  76.4891662  89.3477728
 146.7675066  76.4080807  88.1242023 143.5574201  84.7352599  85.4634796
 144.0212546  85.0140302  84.6739418 143.2930999  83.8336043  85.2807887
 140.4498282  84.2824080  88.4014559 141.0199639  84.7111349  87.7632044
 141.0406394  84.0006665  89.0998745 142.4943087  80.8575751  82.2724361
 143.1967130  81.3096795  82.7398287 142.1623715  80.2159570  82.9004254
 140.9423448  79.4487508  96.6475570 140.3122109  80.1303789  96.8810967
 140.8359536  79.3370589  95.7028709 136.2368421  79.1159304  87.5741495
 135.4467475  79.3716832  87.0981605 136.7279668  79.9307642  87.6793535
 138.1883166  79.4803883  84.5324971 137.3914329  79.5922577  85.0508467
 137.9608758  79.8190535  83.6665862 144.0188834  86.0048586  92.4807486
 144.0833266  86.4668994  93.3165658 143.3099757  85.3745951  92.6089796
 134.5206124  79.3689794  90.0056485 134.7714162  80.2536804  90.2714061
 135.0565672  79.1894396  89.2331577 143.7336851  87.6716694  82.3486466
 143.5982526  88.5168230  82.7771314 144.2746664  87.8735972  81.5852400
 140.2204191  73.7508274  99.0100821 139.8271136  73.1974472  99.6848466
 141.0370331  74.0618852  99.4007339 137.1866249  85.1892132  82.9214391
 137.6990769  85.9835382  83.0719956 137.8388961  84.4918422  82.8547993
 138.9961133  88.3057888  85.0037144 139.1727762  89.2275853  84.8158128
 139.7917967  87.9916307  85.4331524 143.1372152  75.1666153  96.6021078
 143.8781865  75.7673306  96.5225540 143.3690075  74.4243791  96.0439121
 138.2813490  80.3522520  94.8799308 138.1667005  79.4507777  95.1806407
 137.4258008  80.5986217  94.5284124 145.3605328  88.2940260  96.4786808
 144.9169182  87.5076639  96.1607713 146.0222541  88.4819411  95.8130699
 140.1192449  89.8236062  91.0047487 140.6699874  89.6953125  90.2324481
 139.2803925  90.1230951  90.6542380 143.9159620  86.0887190  95.3491718
 144.4487957  85.3275478  95.1191026 143.3873701  85.7960842  96.0915872
 147.0829315  71.1947256  90.8785360 146.7393584  72.0848897  90.8024470
 147.4508277  71.0048913  90.0154945 135.1515165  83.5180786  83.6973962
 135.9890387  83.9277795  83.4807670 135.3293433  82.5780228  83.6674156
 147.0479598  81.1855867  79.3857795 146.5326221  81.9560471  79.6246182
 146.7756906  80.5121003  80.0090856 144.6326709  76.0305568  84.4443033
 143.7768305  75.6412418  84.2648672 145.0453660  76.1097528  83.5842819
 146.1625855  73.5651911  88.8434593 145.6590651  73.5282046  88.0302398
 146.4556462  74.4744654  88.9031250 142.4068741  73.6490641  87.8500775
 143.2721738  73.4533449  87.4906664 142.4746250  73.4200992  88.7770131
 146.8365901  79.0582959  81.2117576 146.5316036  79.3729108  82.0627719
 147.7896343  79.1364379  81.2544909 145.2812333  85.2173182  82.8610530
 144.7533694  84.4825942  82.5483767 144.7799835  85.9947859  82.6150498
 140.0131060  75.8792849  85.2217141 140.5874812  75.6568030  84.4890334
 140.6002043  75.9481543  85.9745743 140.3400647  77.9097310  79.2413027
 139.5037960  78.2471996  79.5622301 140.2005417  77.7746289  78.3040164
 142.3153728  72.7534097  83.9492211 141.6618140  72.4383115  83.3248826
 142.2734202  72.1309838  84.6752034 143.4264933  83.0353393  75.8645503
 142.5191994  82.8042646  76.0636652 143.9235965  82.2391012  76.0519484
 146.3333012  91.7450900  78.7842189 145.6594710  92.0482596  79.3927147
 146.7198834  92.5479980  78.4347646 145.5491468  79.2416031  88.2739858
 144.6314030  79.4630978  88.1161547 145.9651612  79.3162341  87.4151566
 146.3326516  80.6407447  83.4042539 147.0798335  81.1528844  83.0949661
 146.6018106  80.3191499  84.2646932 144.6053166  83.1365987  80.3869493
 143.6964385  82.8525020  80.4841963 144.6348250  83.5565066  79.5272800
 135.1741337  80.8571502  84.3684695 134.9765736  80.2640862  83.6435762
 134.6188001  80.5523712  85.0860634 143.1538060  80.7494608  86.4879288
 143.2086670  79.7968444  86.4121765 142.3429262  80.9054047  86.9720587
 144.3029254  84.6774731  77.7257572 143.8648684  83.9610590  77.2663209
 145.0439695  84.9050846  77.1642663 141.0930420  79.3671668  84.2469667
 140.2798286  79.6665838  84.6534859 141.5889414  78.9727357  84.9644150
 143.2438998  89.3629425  86.1803932 143.2015177  89.5890271  85.2512464
 144.1601697  89.1292799  86.3289733 146.6904632  79.8313492  93.0784561
 147.0454020  80.0584965  93.9379027 147.3376763  80.1631869  92.4561816
 140.5844495  76.9390023  89.8630902 141.2243874  76.7978782  89.1653866
 139.7522025  76.6524537  89.4869504 141.3604799  86.2392454  85.9765895
 142.1545397  85.7442774  85.7748470 140.6496491  85.7110317  85.6133600
 146.1799643  88.6210549  90.3278262 146.2336666  89.1901486  91.0955978
 145.3114425  88.7912434  89.9632299 137.6687562  80.3835535  82.0525647
 136.7385150  80.3219991  82.2695609 137.7645034  79.8611488  81.2562289
 137.5873111  76.9090348  84.6403889 137.8479929  77.8235682  84.5313049
 138.4090284  76.4414791  84.7900502 139.0598037  78.3228105  91.8102714
 139.7321090  78.1145468  91.1615362 138.2327823  78.1250191  91.3707946
 144.9623609  74.9490046  93.8268374 144.3151524  75.6479996  93.7332851
 145.7324624  75.3826190  94.1944623 145.1387743  82.7870811  91.8865194
 146.0679803  82.9381971  91.7134161 144.7178773  82.8754832  91.0313841
 143.9376075  86.8121476  89.6563732 143.7987161  86.4440260  90.5289670
 143.1490671  87.3269115  89.4847690 144.5324227  91.9130572  80.9989268
 144.7075982  91.4418615  81.8134891 143.8457015  92.5396338  81.2270529
 145.4881290  86.1903078  87.0452570 145.1531123  86.1503848  87.9410219
 144.9885236  85.5247794  86.5722980 139.4625534  81.5970708  92.5705151
 139.3245332  80.8650947  93.1716690 140.3730457  81.5079609  92.2889338
 142.0907835  81.3090668  92.0588830 142.8007453  80.6683860  92.0175449
 142.0477143  81.5603563  92.9815011 140.8036769  78.2955886  93.8784470
 140.2674126  77.8446624  94.5306066 140.2153477  78.4301794  93.1354934
 139.0985312  95.0619935  87.7729128 139.3381910  95.6938459  88.4508147
 138.2554509  94.7107975  88.0594488 140.2139028  77.7544537  76.4410933
 139.3368494  77.6333338  76.0773180 140.6896781  76.9630615  76.1889822
 131.7341168  82.5421697  86.5352441 132.4212207  82.2283427  85.9473456
 131.5789296  83.4463061  86.2619692 136.5375890  77.4311893  90.9637464
 136.4534079  76.8237563  90.2287874 135.7158596  77.9220912  90.9646961
 143.6113174  90.8699057  90.1770632 143.5383345  91.6754029  90.6889937
 143.1690567  91.0691023  89.3518654 143.4002954  90.1070827  83.6873454
 142.6170475  90.6492508  83.7811679 144.0995699  90.6244807  84.0867695
 146.7099604  75.9165457  86.3307659 147.2068303  75.1635419  86.0108730
 145.9386585  75.9529773  85.7650869 146.0711857  90.7685891  92.3328791
 146.7839830  91.4033356  92.2604693 145.5801886  90.8649757  91.5168793
 143.2934572  78.0582840  86.0579344 142.9232360  77.5053880  86.7460250
 143.7893665  77.4540973  85.5054344 141.1223771  88.5180335  93.1534362
 141.8233230  89.1516818  93.3063756 140.6518886  88.8595066  92.3930001
 145.8832231  91.1084635  85.0815083 146.0654625  90.2906291  85.5442835
 146.7065217  91.3252328  84.6439973 146.2174396  90.0352821  82.3430131
 146.7462163  89.5245275  81.7300293 146.4802616  89.7195351  83.2075664
 144.9712630  81.8144753  97.4652949 144.2953267  81.7138883  98.1355325
 145.7940264  81.6583967  97.9288947 136.7191489  88.0516690  90.0865465
 137.3044926  87.3060378  90.2193369 136.5216328  88.3620647  90.9702129
 139.5730144  91.0867937  85.1027907 138.9040520  91.5714065  84.6191947
 139.4343014  91.3337158  86.0171286 131.3109144  80.6222290  88.8069908
 131.3493243  80.0885881  89.6007026 130.8049437  80.0957496  88.1880885
 143.7135413  93.1211681  91.7010565 144.2653721  93.2843302  92.4659651
 144.0541606  93.7116119  91.0290590 138.6899906  75.4686831  92.3032450
 138.7541233  76.3301662  91.8909848 138.6267026  74.8560832  91.5704809
 138.1652179  77.5409963  95.9505484 138.7924217  77.1587040  96.5643009
 137.3080097  77.3224165  96.3161177 134.9417721  79.3486392  81.8823839
 135.2371162  78.4397071  81.8290893 134.0405757  79.3274132  81.5604841
 146.8503800  91.0693656  88.6874248 146.7254940  90.2683396  88.1785193
 147.5082891  91.5639850  88.1988217 138.4711968  77.4242389  87.8651388
 137.7498554  78.0378357  87.7258861 139.2605224  77.9600154  87.7868034
 141.2738282  74.7596815  94.1392040 141.7972684  75.0059112  94.9018349
 141.0550615  75.5916850  93.7195177 136.6705563  77.0300490  82.0063164
 136.3418269  76.1497869  81.8238270 137.0244934  76.9748159  82.8939554
 145.9185142  88.6655393  86.5158150 145.7710104  87.7372100  86.6965720
 146.7438635  88.6875483  86.0315225 139.7847386  77.3173460  82.3738642
 140.1243459  77.8459381  81.6517250 140.2319507  77.6553866  83.1497209
 142.4790827  75.7010510  91.8241710 142.1387647  74.9018324  92.2262390
 141.7729833  76.0012221  91.2518543 143.1307299  72.7859823  90.2769033
 143.9533368  72.3120301  90.1547923 143.3745362  73.5650307  90.7767719
 141.7715533  75.8148081  80.5731935 142.4923896  76.1929334  80.0695652
 141.1480837  76.5336958  80.6766913 145.9146656  76.5193230  81.5090267
 146.1310271  77.4017868  81.2079095 145.4340723  76.1279444  80.7795909
 140.6545878  79.4778944  88.0861012 140.5090458  79.7919247  88.9785293
 140.1771081  80.0963844  87.5331910 142.5142260  76.4681491  88.1341901
 142.5003829  75.5722585  87.7974199 143.2314689  76.4752155  88.7680187
 144.3668391  76.9018832  90.1795029 144.1086169  77.8235902  90.1779359
 143.8353431  76.5049266  90.8695493 135.1291540  82.0184288  91.0248673
 134.5845008  82.7944096  91.1568947 136.0070890  82.3655092  90.8667794
 141.9179156  75.3495872  83.4029471 142.0395068  74.4212518  83.6020359
 141.6281199  75.3634558  82.4907787 144.7870347  73.0350782  86.5396191
 144.8092044  73.0990115  85.5848171 145.2038406  72.1955291  86.7336697
 135.9157562  81.1454184  93.9178830 135.1739298  81.2936820  94.5043460
 135.5950306  81.4062450  93.0545579 143.8601224  90.6870162  93.7159220
 144.1688351  90.4419309  94.5881919 144.6576706  90.8916801  93.2278090
 143.8821836  92.8408072  85.9464596 143.4426827  92.3484451  86.6397453
 144.6329953  92.2981040  85.7056672 136.3614175  89.0319613  85.9489224
 137.1872195  88.7323385  85.5687868 136.0108227  88.2627235  86.3979013
 141.3295708  88.3846081  88.0186898 140.7075718  87.7216786  87.7189126
 142.0000575  88.4107213  87.3360546 134.5622780  86.9505939  86.9078158
 133.7254689  86.5228114  86.7262159 134.5346426  87.1438383  87.8448949
 141.4020236  76.8627869  97.6119404 141.4508391  77.7389992  97.2297174
 141.9442750  76.3205262  97.0391047 140.8909215  86.9350004  81.4945358
 141.0397336  87.6185469  80.8412031 141.6975659  86.9155095  82.0094814
 143.6319524  77.6159242  94.3665763 142.7622834  77.9092808  94.0948351
 143.8679005  78.1999687  95.0873026 138.6461848  82.9615182  82.5006427
 138.4007890  82.0577512  82.6986638 138.8157763  82.9632333  81.5585905
 146.3358558  73.8338858  91.8831183 146.8540502  74.5699885  91.5577672
 145.9813691  74.1402852  92.7177942 137.9157496  78.6943540  79.9992589
 137.2226741  78.7687895  79.3432625 137.6709248  77.9303883  80.5214106
 146.5871152  70.2539141  87.4032080 146.8672906  69.5862330  88.0292506
 147.3721759  70.4468237  86.8906743 144.3904621  89.4298135  78.9657106
 143.8178588  90.0488322  78.5127578 144.9637414  89.9797497  79.4997028
 144.7751419  80.7658948  76.3073158 145.7210524  80.6365156  76.3761576
 144.3965664  80.0273610  76.7842587 144.6590112  84.8176694  97.7673815
 145.5793121  84.9955293  97.9613862 144.6239695  83.8732739  97.6153515
 142.9594336  78.6908924  76.2428044 142.0525792  78.3942037  76.3190757
 143.2370317  78.3938742  75.3762330 133.8772277  80.0115287  86.6927090
 133.5575061  79.1580596  86.4001464 133.3305705  80.2263866  87.4485057
 137.6552184  82.7277728  90.4096597 137.8738194  83.6594836  90.4284630
 138.0677958  82.3685703  91.1951400 144.5756402  73.2345814  82.3972285
 143.7657131  72.8892899  82.7727531 145.2640819  72.9253357  82.9859896
 146.5046950  72.3123861  84.0196582 147.0577989  72.7319314  84.6786605
 146.7417037  71.3859609  84.0619538 142.5280050  78.3010934  99.7999345
 142.4276777  79.2505291  99.7311437 142.3101592  77.9729173  98.9275416
 141.7293121  75.5495859  76.3840023 142.5912285  75.8750758  76.6435840
 141.9143465  74.7627355  75.8713089 133.7460537  83.6318199  88.6620212
 133.0524008  83.2172152  88.1490166 134.4933528  83.6738735  88.0653631
 142.3911320  81.7308073  98.6164407 141.9078401  82.5308433  98.8228296
 142.4772259  81.7416018  97.6631851 135.6597279  83.5636453  86.5386226
 135.6367967  83.6624140  85.5868110 135.9697916  84.4101604  86.8603393
 138.3184657  85.6212608  90.6532841 139.2727911  85.5896550  90.5862772
 138.1197181  85.1603231  91.4683067 138.9084039  84.1913724  93.2203639
 139.7276928  84.6857802  93.2438476 139.1820847  83.2745692  93.1921206
 136.6734886  91.1632227  87.6703039 136.5389354  90.4032628  87.1041037
 136.2566948  91.8873127  87.2031828 139.8304012  92.0601544  87.8821481
 139.7136396  93.0046977  87.7800172 139.0096458  91.7575106  88.2707281
 134.1618954  78.5251858  93.9195836 134.8077817  78.0150812  94.4083061
 133.9536105  79.2620539  94.4939261 146.6872346  85.5932705  99.4187976
 147.5563505  85.7673357  99.0574611 146.2079097  86.4127122  99.2963706
 142.6822564  72.7891902  79.6719732 142.6701234  73.7333742  79.8288003
 143.5745986  72.6062048  79.3779193 140.8558526  92.7129806  91.0977410
 141.7585773  92.7453416  91.4143905 140.6295896  91.7830257  91.1123746
 142.6112128  91.4660793  87.7587488 141.6607759  91.4662654  87.6451861
 142.9144614  90.7193527  87.2423523 146.4974684  69.3834679  83.9265669
 145.7307079  68.8293166  84.0722351 146.9085389  69.4556548  84.7879820
 138.5016445  75.6719475  98.0170850 139.3647906  75.3156280  98.2274174
 137.9281855  75.3333370  98.7046254 147.0762175  94.4451222  87.5741495
 146.2861229  94.7008750  87.0981605 147.5673422  95.2599559  87.6793535
 145.3599878  94.6981712  90.0056485 145.6107916  95.5828722  90.2714061
 145.8959426  94.5186314  89.2331577 145.9908920  98.8472704  83.6973962
 146.8284142  99.2569712  83.4807670 146.1687188  97.9072146  83.6674156
 146.0135091  96.1863419  84.3684695 145.8159491  95.5932780  83.6435762
 145.4581755  95.8815629  85.0860634 142.5734922  97.8713614  86.5352441
 143.2605962  97.5575344  85.9473456 142.4183051  98.7754979  86.2619692
 147.3769644  92.7603811  90.9637464 147.2927833  92.1529481  90.2287874
 146.5552351  93.2512829  90.9646961 142.1502898  95.9514208  88.8069908
 142.1886998  95.4177798  89.6007026 141.6443191  95.4249413  88.1880885
 145.7811476  94.6778310  81.8823839 146.0764917  93.7688988  81.8290893
 144.8799512  94.6566049  81.5604841 145.9685294  97.3476206  91.0248673
 145.4238762  98.1236014  91.1568947 146.8464644  97.6947010  90.8667794
 146.7551316  96.4746102  93.9178830 146.0133052  96.6228737  94.5043460
 146.4344060  96.7354367  93.0545579 145.4016535 102.2797857  86.9078158
 144.5648443 101.8520031  86.7262159 145.3740180 102.4730300  87.8448949
 144.7166031  95.3407205  86.6927090 144.3968816  94.4872513  86.4001464
 144.1699460  95.5555783  87.4485057 144.5854291  98.9610117  88.6620212
 143.8917763  98.5464069  88.1490166 145.3327282  99.0030653  88.0653631
 146.4991034  98.8928370  86.5386226 146.4761722  98.9916058  85.5868110
 146.8091670  99.7393521  86.8603393 147.5128641 106.4924145  87.6703039
 147.3783108 105.7324546  87.1041037 147.0960703 107.2165045  87.2031828
 145.0012708  93.8543775  93.9195836 145.6471572  93.3442729  94.4083061
 144.7929859  94.5912457  94.4939261  98.1023466   8.0028993  70.3526233
  98.0247495   8.9536818  70.4314714  97.4985109   7.6574865  71.0101159
  96.7617432   5.5130514  77.7292793  97.3124857   5.3847577  76.9569787
  95.9228908   5.8125403  77.3787686 102.9757995   7.4345352  65.5087496
 102.3019694   7.7377048  66.1172454 103.3623817   8.2374432  65.1592953
 101.1749210   7.6025024  67.7234575 101.3500966   7.1313067  68.5380198
 100.4881998   8.2290790  67.9515836  95.7410295  10.7514387  74.4974435
  95.9806894  11.3832911  75.1753454  94.8979492  10.4002427  74.7839794
 100.2538157   6.5593509  76.9015939 100.1808329   7.3648481  77.4135244
  99.8115550   6.7585475  76.0763960 100.0427937   5.7965279  70.4118761
  99.2595459   6.3386959  70.5056985 100.7420682   6.3139259  70.8113002
 102.7136841   6.4580343  79.0574098 103.4264813   7.0927808  78.9849999
 102.2226869   6.5544209  78.2414100  96.2155128   6.7762389  71.8273214
  95.5465503   7.2608517  71.3437254  96.0767997   7.0231610  72.7416592
 100.3560396   8.8106133  78.4255872 100.9078704   8.9737754  79.1904957
 100.6966590   9.4010571  77.7535897 100.5026207   6.3764614  80.4404526
 100.8113334   6.1313761  81.3127226 101.3001689   6.5811253  79.9523397
 100.5246820   8.5302524  72.6709903 100.0851810   8.0378903  73.3642760
 101.2754936   7.9875492  72.4301978  93.0039159   4.7214065  72.6734531
  93.8297178   4.4217837  72.2933175  92.6533210   3.9521687  73.1224320
  91.2047764   2.6400391  73.6323465  90.3679672   2.2122566  73.4507466
  91.1771409   2.8332835  74.5694256  93.3159869   6.8526679  74.3948345
  93.1814337   6.0927080  73.8286343  92.8991932   7.5767579  73.9277134
  96.4728995   7.7495996  74.6066788  96.3561379   8.6941429  74.5045478
  95.6521441   7.4469558  74.9952587  97.4983509   8.4024258  77.8222716
  98.4010756   8.4347868  78.1389211  97.2720879   7.4724709  77.8369052
  99.2537111   7.1555245  74.4832795  98.3032742   7.1557106  74.3697167
  99.5569598   6.4087979  73.9668830 114.9889805  12.9915783  75.5478558
 115.6268215  12.8722530  74.8441898 114.8710648  13.9396627  75.6066510
 111.7979511  12.9443211  75.4840082 111.4598023  12.8284276  74.5960617
 112.6669279  12.5434376  75.4641088 107.6566327  14.7978687  71.4736973
 107.0931192  14.7068624  70.7053261 107.5418722  13.9778592  71.9539466
 112.2799294  14.0978063  81.4426288 112.2687935  13.7030861  80.5706791
 112.4419934  13.3644135  82.0360059 105.2030759  16.2929879  74.3121194
 105.9952051  15.9520704  73.8967493 105.4427409  16.4024854  75.2323347
 113.2365886  18.4649655  66.7851438 112.5853865  19.0503736  66.3985452
 114.0310248  18.9955850  66.8446476 107.1621513  15.5538792  67.1838572
 107.9352389  15.0067779  67.0451448 107.5146912  16.4183042  67.3953034
 109.0006555  16.8815175  80.3905472 108.7096421  17.7860805  80.2752138
 109.6363540  16.9231702  81.1049541 109.9262762  14.2592023  76.9806831
 110.5226334  14.0348046  76.2663794 109.9837734  13.5176769  77.5832279
 109.4987791  11.7131458  64.8157022 109.7513311  11.1912980  64.0540485
 108.5612350  11.5497604  64.9183706 114.7141151  16.1540087  67.3220422
 114.0786984  16.2274714  68.0341327 114.3838557  16.7433686  66.6439502
 109.2184079  13.6159564  67.0181397 109.1020337  12.9404468  67.6862482
 109.3286339  13.1291938  66.2013550 111.5615620  13.0769712  70.7228087
 111.1973827  12.5500332  71.4341008 112.4182736  12.6868181  70.5494572
 113.9596440  16.5676590  77.3855265 113.6597163  17.4701629  77.2771073
 113.6147500  16.3008773  78.2376418 107.4108922  13.0190387  73.4191970
 106.4859418  12.8866601  73.6269662 107.6593335  13.7984606  73.9161912
 111.1810328  10.5617269  66.7036102 111.0609953  11.0074319  67.5421582
 110.4862916  10.9102586  66.1449640 104.7717733  12.6623661  74.2535759
 104.9010114  12.9158139  75.1675171 104.0915184  13.2551369  73.9340414
 108.9417220  23.3320910  70.3526233 108.8641250  24.2828736  70.4314714
 108.3378864  22.9866783  71.0101159 111.4334450  10.5048776  83.0087600
 110.6567784  11.0642696  82.9990465 112.0725013  10.9905559  83.5302470
 109.6880822  13.3134229  82.5705567 110.4295507  13.8519273  82.2940391
 108.9817808  13.9400518  82.7277119 115.1636162  15.4563370  81.1677728
 115.5719518  15.0145780  80.4232361 114.4413423  14.8815997  81.4211921
 111.5167232  10.3935976  78.5411285 112.3628427  10.8175390  78.6845934
 111.4565870   9.7369601  79.2349849 115.4864977  16.0164560  74.9230017
 114.8573839  16.1810274  74.2206085 115.0990639  16.4306170  75.6940981
 119.3654208  16.9518998  72.2774381 118.6805247  17.3317900  71.7271414
 119.4498058  17.5614325  73.0106329 116.6205140  14.5978957  78.8769725
 116.8322035  15.2410717  78.2004106 116.5734888  13.7641274  78.4091655
 111.0392938  15.7538968  72.1880102 111.5031284  16.0326671  71.3984725
 110.7749736  14.8522413  72.0053193 107.9317019  15.3010450  75.1259866
 108.5018377  15.7297718  74.4877350 108.5225131  15.0193035  75.8244051
 109.9761824  11.8762121  68.9969668 110.6785868  12.3283164  69.4643594
 109.6442453  11.2345940  69.6249561 108.4242186  10.4673877  83.3720877
 107.7940847  11.1490158  83.6056274 108.3178274  10.3556959  82.4274015
 103.7187158  10.1345673  74.2986801 102.9286212  10.3903202  73.8226912
 104.2098406  10.9494011  74.4038842 117.7350968  17.4750913  77.0492082
 118.5568412  17.0731100  76.7674764 117.7313371  17.3719147  78.0008198
 105.6701904  10.4990253  71.2570278 104.8733067  10.6108947  71.7753774
 105.4427496  10.8376905  70.3911168 111.5007571  17.0234956  79.2052792
 111.5652004  17.4855363  80.0410964 110.7918495  16.3932321  79.3335102
 102.0024861  10.3876164  76.7301792 102.2532900  11.2723174  76.9959368
 102.5384410  10.2080765  75.9576884 111.2155589  18.6903063  69.0731773
 111.0801264  19.5354599  69.5016621 111.7565402  18.8922341  68.3097707
 104.6684986  16.2078501  69.6459698 105.1809507  17.0021752  69.7965263
 105.3207699  15.5104792  69.5793299 106.4779871  19.3244258  71.7282451
 106.6546499  20.2462222  71.5403435 107.2736705  19.0102677  72.1576831
 105.7632228  11.3708890  81.6044614 105.6485743  10.4694147  81.9051713
 104.9076745  11.6172586  81.2529431 112.8424065  19.3126630  83.2032115
 112.3987920  18.5263009  82.8853019 113.5041279  19.5005780  82.5376006
 107.6011187  20.8422432  77.7292793 108.1518612  20.7139495  76.9569787
 106.7622663  21.1417321  77.3787686 114.9405304  19.5929430  81.2313516
 114.9223779  20.4138311  80.7393785 115.8625224  19.4683505  81.4563657
 111.3978358  17.1073559  82.0737025 111.9306694  16.3461848  81.8436333
 110.8692439  16.8147211  82.8161179 102.6333903  14.5367156  70.4219268
 103.4709125  14.9464164  70.2052976 102.8112171  13.5966598  70.3919462
 114.5298335  12.2042236  66.1103101 114.0144959  12.9746841  66.3491489
 114.2575644  11.5307373  66.7336163 119.5032609  14.9574591  68.0456275
 118.7262052  14.6185751  67.6011437 120.1824090  14.9627214  67.3711240
 112.7631070  16.2359552  69.5855837 112.2352432  15.5012311  69.2729074
 112.2618573  17.0134228  69.3395805 117.7423916  14.4308572  74.7022883
 117.0847591  15.1207834  74.7903011 118.5464316  14.8205004  75.0456869
 116.5529375  12.7852945  72.7526825 117.0661257  13.4182937  73.2548534
 117.2030599  12.1854141  72.3870185 107.8219385   8.9283679  65.9658333
 106.9856697   9.2658366  66.2867608 107.6824155   8.7932659  65.0285470
 110.9083671  14.0539762  62.5890810 110.0010732  13.8229016  62.7881959
 111.4054703  13.2577381  62.7764791 113.8151749  22.7637269  65.5087496
 113.1413448  23.0668966  66.1172454 114.2017571  23.5666350  65.1592953
 113.0310206  10.2602401  74.9985165 112.1132767  10.4817348  74.8406853
 113.4470350  10.3348711  74.1396872 113.8145254  11.6593816  70.1287845
 114.5617073  12.1715213  69.8194967 114.0836843  11.3377869  70.9892239
 112.0871904  14.1552357  67.1114800 111.1783123  13.8711390  67.2087269
 112.1166988  14.5751436  66.2518107 117.3191171  17.7658946  70.8805967
 116.8653498  16.9249856  70.9371158 116.6885138  18.4020345  71.2180747
 115.7624111  19.6035443  71.8155785 116.0547085  20.1640500  71.0968151
 116.2722731  19.8964004  72.5708944 102.6560074  11.8757871  71.0930002
 102.4584474  11.2827232  70.3681068 102.1006738  11.5710081  71.8105941
 110.6356798  11.7680978  73.2124595 110.6905408  10.8154814  73.1367072
 109.8248000  11.9240417  73.6965893 111.7847992  15.6961101  64.4502878
 111.3467422  14.9796960  63.9908516 112.5258433  15.9237215  63.8887970
 108.5749158  10.3858037  70.9714974 107.7617023  10.6852208  71.3780166
 109.0708152   9.9913726  71.6889456 110.7257736  20.3815794  72.9049239
 110.6833915  20.6076641  71.9757771 111.6420435  20.1479169  73.0535040
 114.1723370  10.8499862  79.8029868 114.5272757  11.0771335  80.6624334
 114.8195501  11.1818239  79.1807123 119.9021107  13.9718298  70.5079197
 119.7639005  14.1619894  69.5800386 119.5457325  14.7337680  70.9647248
 119.9290486  16.0394825  75.5190468 120.3626993  15.9470114  76.3673522
 120.6422067  16.0152325  74.8810484 108.8423537  17.2578823  72.7011201
 109.6364135  16.7629143  72.4993776 108.1315229  16.7296686  72.3378907
 113.6618381  19.6396919  77.0523569 113.7155403  20.2087855  77.8201285
 112.7933162  19.8098804  76.6877606 105.1506300  11.4021905  68.7770954
 104.2203888  11.3406360  68.9940916 105.2463772  10.8797858  67.9807595
 105.0691849   7.9276718  71.3649196 105.3298666   8.8422051  71.2558356
 105.8909021   7.4601160  71.5145808 106.5416774   9.3414475  78.5348020
 107.2139828   9.1331837  77.8860669 105.7146561   9.1436561  78.0953252
 120.7906036  16.0818525  78.0523354 120.9841926  16.9864336  78.2982629
 120.6906654  15.6225944  78.8861939 115.8521144  16.2325268  83.6264234
 115.7006651  16.0035820  82.7094318 115.8425824  17.1895870  83.6395579
 112.6206481  13.8057181  78.6110501 113.5498541  13.9568340  78.4379468
 112.1997511  13.8941202  77.7559147 111.4194813  17.8307845  76.3809038
 111.2805898  17.4626630  77.2534977 110.6309409  18.3455485  76.2092996
 112.0142965  22.9316942  67.7234575 112.1894720  22.4604985  68.5380198
 111.3275753  23.5582708  67.9515836 112.9700028  17.2089448  73.7697876
 112.6349860  17.1690218  74.6655526 112.4703973  16.5434164  73.2968286
 106.9444272  12.6157078  79.2950457 106.8064070  11.8837317  79.8961996
 107.8549195  12.5265978  79.0134645 115.9059219  14.5545482  64.0434936
 115.2888390  13.8292310  63.9467989 115.4375708  15.3154843  63.7002010
 109.5726572  12.3277037  78.7834137 110.2826191  11.6870229  78.7420755
 109.5295881  12.5789932  79.7060318 117.5613351  19.2644391  81.7040716
 117.5025897  18.5803611  81.0371299 117.9632869  20.0063381  81.2521342
 108.2855506   9.3142255  80.6029776 107.7492863   8.8632994  81.2551373
 107.6972215   9.4488164  79.8600241 106.5804050  26.0806304  74.4974435
 106.8200648  26.7124829  75.1753454 105.7373246  25.7294344  74.7839794
 117.5630758  17.2283975  79.9354696 116.6757537  16.8909896  80.0581095
 118.1329309  16.4967006  80.1723461  99.2159905  13.5608066  73.2597747
  99.9030945  13.2469796  72.6718763  99.0608034  14.4649431  72.9864999
 104.0194628   8.4498263  77.6882771 103.9352816   7.8423932  76.9533181
 103.1977334   8.9407281  77.6892267 111.0931912  21.8885427  76.9015939
 111.0202083  22.6940398  77.4135244 110.6509305  22.0877393  76.0763960
 110.8821691  21.1257197  70.4118761 110.0989213  21.6678877  70.5056985
 111.5814437  21.6431177  70.8113002 113.5530595  21.7872261  79.0574098
 114.2658567  22.4219726  78.9849999 113.0620624  21.8836127  78.2414100
 115.2748122  15.6923514  70.6291389 114.3404401  15.8124976  70.4596094
 115.4524791  14.7895980  70.3651399 108.6042509  19.5366704  79.8779669
 109.3051968  20.1703187  80.0309063 108.1337624  19.8781436  79.1175308
 116.7296905  17.8784654  68.1627576 117.0056749  17.7641249  69.0721450
 115.8601403  17.4802139  68.1239749 113.3650969  22.1271005  71.8060389
 113.5473363  21.3092661  72.2688142 114.1883955  22.3438697  71.3685279
 113.6993134  21.0539190  69.0675438 114.2280901  20.5431645  68.4545600
 113.9621354  20.7381720  69.9320971 112.4531368  12.8331123  84.1898256
 111.7772005  12.7325252  84.8600631 113.2759002  12.6770337  84.6534253
 104.2010227  19.0703059  76.8110771 104.7863664  18.3246747  76.9438675
 104.0035065  19.3807016  77.6947435 107.0548882  22.1054307  71.8273214
 106.3859257  22.5900434  71.3437254 106.9161752  22.3523527  72.7416592
  98.7927882  11.6408660  75.5315214  98.8311981  11.1072250  76.3252332
  98.2868174  11.1143865  74.9126192 111.1954151  24.1398050  78.4255872
 111.7472459  24.3029672  79.1904957 111.5360344  24.7302488  77.7535897
 105.6470916   8.5596333  82.6750791 106.2742955   8.1773410  83.2888315
 104.7898835   8.3410535  83.0406483 116.0465025  18.9659308  84.2804526
 116.5904929  19.5789266  83.7859481 115.4651870  19.5238886  84.7971539
 102.4236459  10.3672762  68.6069146 102.7189900   9.4583440  68.5536199
 101.5224495  10.3460501  68.2850148 114.3322538  22.0880026  75.4119554
 114.2073677  21.2869766  74.9030500 114.9901629  22.5826219  74.9233524
 105.9530706   8.4428758  74.5896694 105.2317292   9.0564726  74.4504168
 106.7423962   8.9786523  74.5113340 116.3957446  19.8889046  77.0399104
 115.4487782  19.7694397  76.9677431 116.7440219  19.0011544  77.1225366
 104.1524301   8.0486859  68.7308471 103.8237007   7.1684238  68.5483577
 104.5063671   7.9934528  69.6184860 113.4003880  19.6841762  73.2403456
 113.2528842  18.7558470  73.4211027 114.2257373  19.7061853  72.7560532
 107.2666124   8.3359829  69.0983949 107.6062196   8.8645751  68.3762557
 107.7138244   8.6740235  69.8742515 117.0038001  20.5070321  74.3268329
 117.9284549  20.3013182  74.1892780 116.8353305  20.2586722  75.2357671
 108.1364615  10.4965313  74.8106318 107.9909196  10.8105616  75.7030600
 107.6589819  11.1150213  74.2577217 116.7933318  21.0255988  69.6830421
 116.9670195  20.4602411  68.9304273 117.2862209  21.8256883  69.5009911
 102.6110277  13.0370657  77.7493979 102.0663746  13.8130465  77.8814254
 103.4889627  13.3841462  77.5913101 117.7808490  20.3422753  66.7827319
 118.4759395  20.9629445  67.0014634 118.1231640  19.4918104  67.0579697
 103.3976299  12.1640554  80.6424136 102.6558035  12.3123189  81.2288767
 103.0769044  12.4248819  79.7790886 119.6799913  17.7922458  68.3114650
 120.2051237  18.1309731  67.5863970 119.5922266  16.8569474  68.1277784
 111.3419962  21.7056532  80.4404526 111.6507088  21.4605679  81.3127226
 112.1395444  21.9103170  79.9523397 111.3640574  23.8594442  72.6709903
 110.9245564  23.3670820  73.3642760 112.1148691  23.3167409  72.4301978
 103.8432913  20.0505982  72.6734531 104.6690933  19.7509754  72.2933175
 103.4926965  19.2813605  73.1224320 108.8114446  19.4032451  74.7432205
 108.1894455  18.7403156  74.4434432 109.4819313  19.4293583  74.0605852
 102.0441518  17.9692309  73.6323465 101.2073426  17.5414483  73.4507466
 102.0165163  18.1624752  74.5694256 119.3693819  18.4255362  83.6165848
 118.5789363  18.4079501  83.0770347 119.1327174  18.9643656  84.3714884
 119.4891694  15.2747828  80.9298576 119.5389699  15.1097836  81.8714099
 119.3805618  14.4075087  80.5396457 108.3727953  17.9536374  68.2190665
 108.5216073  18.6371838  67.5657338 109.1794397  17.9341464  68.7340121
 120.9909891  17.6944770  81.1740598 120.6994700  18.0574750  82.0104059
 120.3782022  16.9811778  80.9953930 122.1905574  15.2597650  73.6943168
 123.0252465  15.6987454  73.8580728 122.3264702  14.7836303  72.8751414
 119.2397079  12.8177384  79.6420656 119.7151201  13.0105031  78.8339507
 118.3162645  12.8736570  79.3964039 106.1280586  13.9801552  69.2251734
 105.8826628  13.0763882  69.4231944 106.2976501  13.9818702  68.2831212
 105.3976234   9.7129909  66.7237895 104.7045479   9.7874264  66.0677931
 105.1527985   8.9490253  67.2459412 111.8723359  20.4484504  65.6902413
 111.2997326  21.0674692  65.2372884 112.4456152  20.9983866  66.2242334
 115.0920618  20.7321655  66.8210995 116.0251292  20.6667216  67.0243870
 115.0043831  21.5677921  66.3625527 117.7208635  20.0487525  63.7814942
 117.6422267  19.7147389  64.6750700 118.5418302  20.5409293  63.7806415
 112.2570157  11.7845317  63.0318465 113.2029262  11.6551525  63.1006883
 111.8784402  11.0459979  63.5087893 112.1408850  15.8363063  84.4919122
 113.0611859  16.0141662  84.6859169 112.1058433  14.8919109  84.3398821
 110.4413074   9.7095294  62.9673350 109.5344530   9.4128406  63.0436064
 110.7189055   9.4125112  62.1007636 101.3591015  11.0301657  73.4172397
 101.0393799  10.1766965  73.1246771 100.8124443  11.2450235  74.1730364
 105.1370922  13.7464098  77.1341903 105.3556932  14.6781206  77.1529937
 105.5496696  13.3872072  77.9196707 110.0098787   9.3197304  86.5244652
 109.9095514  10.2691661  86.4556743 109.7920330   8.9915543  85.6520722
 101.2279275  14.6504569  75.3865518 100.5342746  14.2358521  74.8735473
 101.9752266  14.6925105  74.7898937 109.8730058  12.7494443  85.3409714
 109.3897139  13.5494803  85.5473603 109.9590997  12.7602387  84.3877158
 103.1416017  14.5822822  73.2631533 103.1186705  14.6810510  72.3113416
 103.4516654  15.4287973  73.5848699 105.8003395  16.6398977  77.3778148
 106.7546649  16.6082920  77.3108079 105.6015919  16.1789601  78.1928373
 106.3902777  15.2100093  79.9448945 107.2095666  15.7044172  79.9683782
 106.6639585  14.2932061  79.9166513 104.1553624  22.1818597  74.3948345
 104.0208092  21.4218998  73.8286343 103.7385686  22.9059497  73.9277134
 115.2912587  17.3655520  63.4024921 115.9948437  17.5705523  64.0182576
 114.5675236  17.9332282  63.6674004 116.1210397  13.1165382  69.5227191
 116.0645599  13.5733933  68.6834823 116.6738740  12.3556066  69.3450034
 107.3122750  23.0787914  74.6066788 107.1955134  24.0233346  74.5045478
 106.4915196  22.7761475  74.9952587 117.1999284  17.8038050  65.4523381
 118.0344888  17.3719248  65.2700856 117.0383627  17.6320063  66.3800275
 116.8545176  14.3070163  66.8179720 116.7993980  14.1414434  65.8768164
 116.2291232  15.0146196  66.9741910 101.6437691   9.5438227  80.6441142
 102.2896555   9.0337181  81.1328367 101.4354843  10.2806909  81.2184568
 114.1691084  16.6119075  86.1433283 115.0382243  16.7859727  85.7819918
 113.6897835  17.4313492  86.0209012 108.3377264  23.7316176  77.8222716
 109.2404511  23.7639786  78.1389211 108.1114634  22.8016627  77.8369052
 110.0930866  22.4847162  74.4832795 109.1426497  22.4849024  74.3697167
 110.3963352  21.7379897  73.9668830 125.8283559  28.3207701  75.5478558
 126.4661969  28.2014448  74.8441898 125.7104402  29.2688545  75.6066510
 122.6373266  28.2735129  75.4840082 122.2991777  28.1576193  74.5960617
 123.5063034  27.8726294  75.4641088 118.4960081  30.1270605  71.4736973
 117.9324946  30.0360542  70.7053261 118.3812476  29.3070510  71.9539466
 123.1193049  29.4269980  81.4426288 123.1081689  29.0322779  80.5706791
 123.2813688  28.6936053  82.0360059 116.0424513  31.6221797  74.3121194
 116.8345805  31.2812621  73.8967493 116.2821163  31.7316772  75.2323347
 124.0759640  33.7941573  66.7851438 123.4247620  34.3795653  66.3985452
 124.8704003  34.3247768  66.8446476 118.0015267  30.8830710  67.1838572
 118.7746143  30.3359697  67.0451448 118.3540666  31.7474959  67.3953034
 119.8400310  32.2107092  80.3905472 119.5490176  33.1152723  80.2752138
 120.4757294  32.2523620  81.1049541 120.7656517  29.5883941  76.9806831
 121.3620089  29.3639963  76.2663794 120.8231488  28.8468686  77.5832279
 120.3381545  27.0423376  64.8157022 120.5907066  26.5204897  64.0540485
 119.4006104  26.8789522  64.9183706 125.3824828  26.0459154  72.6231766
 126.1687917  25.6278578  72.2722183 125.6463532  26.9505247  72.7913414
 125.5534905  31.4832005  67.3220422 124.9180738  31.5566631  68.0341327
 125.2232312  32.0725604  66.6439502 130.7833255  25.9834388  73.5264744
 131.5158427  25.4133605  73.7602574 130.0272611  25.5955988  73.9671250
 120.0577834  28.9451482  67.0181397 119.9414092  28.2696385  67.6862482
 120.1680094  28.4583856  66.2013550 122.4009375  28.4061629  70.7228087
 122.0367582  27.8792250  71.4341008 123.2576491  28.0160098  70.5494572
 128.3058675  19.6955962  77.9859353 127.9742000  20.5651373  77.7620568
 127.7104289  19.3792246  78.6653383 122.0414862  23.4351529  65.7189435
 122.2089264  24.3031765  66.0859906 121.8512031  23.5978811  64.7950724
 124.7990195  31.8968508  77.3855265 124.4990918  32.7993547  77.2771073
 124.4541254  31.6300691  78.2376418 118.2502676  28.3482305  73.4191970
 117.3253173  28.2158519  73.6269662 118.4987090  29.1276524  73.9161912
 128.1987339  24.4151048  75.0652703 127.2904216  24.3466456  74.7711464
 128.1474934  24.8922993  75.8934528 122.0204083  25.8909186  66.7036102
 121.9003708  26.3366237  67.5421582 121.3256671  26.2394504  66.1449640
 115.6111487  27.9915578  74.2535759 115.7403869  28.2450057  75.1675171
 114.9308939  28.5843286  73.9340414 119.7810975  38.6612828  70.3526233
 119.7035004  39.6120653  70.4314714 119.1772618  38.3158701  71.0101159
 122.2728204  25.8340694  83.0087600 121.4961538  26.3934614  82.9990465
 122.9118767  26.3197477  83.5302470 130.0648985  22.6167486  76.8430577
 129.4223365  22.9100020  76.1970371 129.5603914  22.5020407  77.6483773
 127.7189149  26.3630660  67.5316436 128.6307005  26.5958046  67.3564133
 127.2098796  26.9467704  66.9691515 120.5274577  28.6426147  82.5705567
 121.2689261  29.1811191  82.2940391 119.8211562  29.2692436  82.7277119
 126.0029916  30.7855287  81.1677728 126.4113272  30.3437698  80.4232361
 125.2807178  30.2107915  81.4211921 122.3560986  25.7227894  78.5411285
 123.2022182  26.1467308  78.6845934 122.2959624  25.0661518  79.2349849
 126.3258731  31.3456478  74.9230017 125.6967593  31.5102192  74.2206085
 125.9384393  31.7598088  75.6940981 130.2047963  32.2810916  72.2774381
 129.5199001  32.6609817  71.7271414 130.2891812  32.8906243  73.0106329
 125.5060432  23.3832263  80.1992459 125.2621364  24.1374323  79.6626735
 125.7820362  23.7617610  81.0339706 127.4598894  29.9270875  78.8769725
 127.6715790  30.5702635  78.2004106 127.4128643  29.0933191  78.4091655
 125.0625123  22.5388696  75.7806297 124.2009602  22.8369949  76.0723034
 125.0887558  22.7559094  74.8487329 121.8786693  31.0830886  72.1880102
 122.3425038  31.3618589  71.3984725 121.6143491  30.1814331  72.0053193
 118.7710774  30.6302368  75.1259866 119.3412131  31.0589636  74.4877350
 119.3618886  30.3484952  75.8244051 120.8155579  27.2054038  68.9969668
 121.5179622  27.6575082  69.4643594 120.4836207  26.5637857  69.6249561
 119.2635940  25.7965795  83.3720877 118.6334601  26.4782076  83.6056274
 119.1572028  25.6848877  82.4274015 114.5580913  25.4637591  74.2986801
 113.7679967  25.7195120  73.8226912 115.0492160  26.2785929  74.4038842
 128.5744722  32.8042830  77.0492082 129.3962166  32.4023018  76.7674764
 128.5707125  32.7011064  78.0008198 116.5095658  25.8282170  71.2570278
 115.7126822  25.9400865  71.7753774 116.2821250  26.1668823  70.3911168
 122.3401326  32.3526874  79.2052792 122.4045758  32.8147281  80.0410964
 121.6312250  31.7224239  79.3335102 112.8418616  25.7168082  76.7301792
 113.0926654  26.6015092  76.9959368 113.3778164  25.5372683  75.9576884
 136.6650715  29.1481579  73.3977053 135.9114424  28.5788977  73.2421058
 136.7998257  29.1144243  74.3447688 122.0549344  34.0194981  69.0731773
 121.9195018  34.8646517  69.5016621 122.5959156  34.2214259  68.3097707
 118.5416683  20.0986561  85.7346128 118.1483629  19.5452760  86.4093772
 119.3582824  20.4097139  86.1252646 115.5078741  31.5370419  69.6459698
 116.0203262  32.3313669  69.7965263 116.1601454  30.8396710  69.5793299
 117.3173626  34.6536175  71.7282451 117.4940254  35.5754140  71.5403435
 118.1130459  34.3394595  72.1576831 121.4584644  21.5144440  83.3266385
 122.1994358  22.1151593  83.2470847 121.6902567  20.7722078  82.7684427
 116.6025982  26.7000807  81.6044614 116.4879497  25.7986065  81.9051713
 115.7470500  26.9464504  81.2529431 123.6817820  34.6418548  83.2032115
 123.2381674  33.8554926  82.8853019 124.3435034  34.8297698  82.5376006
 118.4404941  36.1714349  77.7292793 118.9912366  36.0431413  76.9569787
 117.6016417  36.4709238  77.3787686 125.7799058  34.9221348  81.2313516
 125.7617533  35.7430229  80.7393785 126.7018978  34.7975423  81.4563657
 122.2372112  32.4365477  82.0737025 122.7700449  31.6753765  81.8436333
 121.7086193  32.1439129  82.8161179 125.4041807  17.5425543  77.6030666
 125.0606077  18.4327185  77.5269777 125.7720770  17.3527201  76.7400251
 113.4727658  29.8659073  70.4219268 114.3102880  30.2756082  70.2052976
 113.6505925  28.9258516  70.3919462 125.3692090  27.5334154  66.1103101
 124.8538713  28.3038759  66.3491489 125.0969398  26.8599290  66.7336163
 122.9539201  22.3783855  71.1688340 122.0980797  21.9890705  70.9893978
 123.3666153  22.4575816  70.3088125 124.4838348  19.9130198  75.5679900
 123.9803143  19.8760333  74.7547705 124.7768954  20.8222941  75.6276556
 120.7281233  19.9968928  74.5746081 121.5934230  19.8011737  74.2151971
 120.7958742  19.7679280  75.5015438 130.3426364  30.2866509  68.0456275
 129.5655807  29.9477668  67.6011437 131.0217845  30.2919132  67.3711240
 125.1578393  25.4061246  67.9362883 124.8528529  25.7207395  68.7873026
 126.1108835  25.4842666  67.9790216 123.6024825  31.5651470  69.5855837
 123.0746186  30.8304229  69.2729074 123.1012328  32.3426146  69.3395805
 128.5817671  29.7600490  74.7022883 127.9241345  30.4499751  74.7903011
 129.3858070  30.1496922  75.0456869 118.3343552  22.2271136  71.9462448
 118.9087304  22.0046317  71.2135641 118.9214535  22.2959830  72.6991049
 127.3923130  28.1144863  72.7526825 127.9055011  28.7474855  73.2548534
 128.0424354  27.5146058  72.3870185 118.6613140  24.2575597  65.9658333
 117.8250452  24.5950283  66.2867608 118.5217909  24.1224577  65.0285470
 120.6366220  19.1012385  70.6737517 119.9830633  18.7861402  70.0494132
 120.5946694  18.4788125  71.3997340 121.7477425  29.3831680  62.5890810
 120.8404487  29.1520933  62.7881959 122.2448457  28.5869299  62.7764791
 124.6545504  38.0929187  65.5087496 123.9807203  38.3960884  66.1172454
 125.0411326  38.8958267  65.1592953 123.8703961  25.5894318  74.9985165
 122.9526522  25.8109265  74.8406853 124.2864104  25.6640629  74.1396872
 124.6539008  26.9885734  70.1287845 125.4010827  27.5007131  69.8194967
 124.9230598  26.6669787  70.9892239 122.9265658  29.4844275  67.1114800
 122.0176878  29.2003307  67.2087269 122.9560742  29.9043353  66.2518107
 128.1584926  33.0950864  70.8805967 127.7047253  32.2541774  70.9371158
 127.5278893  33.7312263  71.2180747 127.1017845  24.0242850  72.1106635
 126.3640602  23.5120236  72.4416877 127.3544619  23.5843232  71.2989912
 126.6017865  34.9327361  71.8155785 126.8940840  35.4932418  71.0968151
 127.1116486  35.2255922  72.5708944 127.2029473  16.8019102  72.7048404
 127.5088350  15.9416466  72.4174319 127.9282078  17.3936722  72.5047398
 113.4953829  27.2049789  71.0930002 113.2978229  26.6119149  70.3681068
 112.9400493  26.9001999  71.8105941 121.4750553  27.0972895  73.2124595
 121.5299162  26.1446732  73.1367072 120.6641755  27.2532334  73.6965893
 122.6241746  31.0253018  64.4502878 122.1861176  30.3088877  63.9908516
 123.3652187  31.2529133  63.8887970 119.4142912  25.7149955  70.9714974
 118.6010778  26.0144126  71.3780166 119.9101907  25.3205644  71.6889456
 121.5651490  35.7107712  72.9049239 121.5227669  35.9368558  71.9757771
 122.4814189  35.4771087  73.0535040 125.0117124  26.1791779  79.8029868
 125.3666512  26.4063253  80.6624334 125.6589255  26.5110156  79.1807123
 130.7414861  29.3010215  70.5079197 130.6032760  29.4911811  69.5800386
 130.3851080  30.0629598  70.9647248 118.9056987  23.2868311  76.5876209
 119.5456367  23.1457070  75.8899172 118.0734518  23.0002824  76.2114811
 130.7684241  31.3686742  75.5190468 131.2020747  31.2762031  76.3673522
 131.4815821  31.3444243  74.8810484 119.6817291  32.5870741  72.7011201
 120.4757890  32.0921061  72.4993776 118.9708983  32.0588604  72.3378907
 124.5012136  34.9688836  77.0523569 124.5549158  35.5379773  77.8201285
 123.6326917  35.1390722  76.6877606 115.9900055  26.7313823  68.7770954
 115.0597643  26.6698278  68.9940916 116.0857527  26.2089775  67.9807595
 115.9085604  23.2568636  71.3649196 116.1692421  24.1713969  71.2558356
 116.7302776  22.7893078  71.5145808 117.3810529  24.6706393  78.5348020
 118.0533582  24.4623755  77.8860669 116.5540315  24.4728479  78.0953252
 131.6299790  31.4110443  78.0523354 131.8235680  32.3156254  78.2982629
 131.5300408  30.9517862  78.8861939 123.2836101  21.2968334  80.5513681
 122.6364016  21.9958283  80.4578157 124.0537116  21.7304478  80.9189929
 126.6914899  31.5617186  83.6264234 126.5400405  31.3327737  82.7094318
 126.6819578  32.5187787  83.6395579 123.4600235  29.1349098  78.6110501
 124.3892295  29.2860258  78.4379468 123.0391265  29.2233119  77.7559147
 122.2588567  33.1599763  76.3809038 122.1199653  32.7918547  77.2534977
 121.4703163  33.6747402  76.2092996 122.8536719  38.2608859  67.7234575
 123.0288475  37.7896903  68.5380198 122.1669507  38.8874626  67.9515836
 123.8093782  32.5381366  73.7697876 123.4743615  32.4982136  74.6655526
 123.3097728  31.8726082  73.2968286 117.7838026  27.9448996  79.2950457
 117.6457824  27.2129234  79.8961996 118.6942950  27.8557896  79.0134645
 126.7452974  29.8837400  64.0434936 126.1282145  29.1584228  63.9467989
 126.2769462  30.6446760  63.7002010 120.4120327  27.6568955  78.7834137
 121.1219945  27.0162147  78.7420755 120.3689635  27.9081850  79.7060318
 128.4007106  34.5936308  81.7040716 128.3419652  33.9095528  81.0371299
 128.8026624  35.3355298  81.2521342 119.1249261  24.6434173  80.6029776
 118.5886618  24.1924911  81.2551373 118.5365969  24.7780082  79.8600241
 117.4197804  41.4098222  74.4974435 117.6594403  42.0416746  75.1753454
 116.5767001  41.0586262  74.7839794 118.5351520  24.1022824  63.1656240
 117.6580986  23.9811625  62.8018487 119.0109273  23.3108903  62.9135129
 128.4024513  32.5575892  79.9354696 127.5151292  32.2201814  80.0581095
 128.9723064  31.8258923  80.1723461 110.0553660  28.8899984  73.2597747
 110.7424700  28.5761714  72.6718763 109.9001789  29.7941349  72.9864999
 114.8588382  23.7790181  77.6882771 114.7746571  23.1715850  76.9533181
 114.0371088  24.2699199  77.6892267 121.9325666  37.2177345  76.9015939
 121.8595838  38.0232316  77.4135244 121.4903059  37.4169310  76.0763960
 121.7215446  36.4549115  70.4118761 120.9382968  36.9970795  70.5056985
 122.4208191  36.9723094  70.8113002 125.0312096  22.2643744  73.0552966
 125.5280795  21.5113706  72.7354036 124.2599077  22.3008061  72.4896175
 132.8841853  27.9684110  74.6971258 132.8731730  28.8508825  74.3265191
 132.0159233  27.6155660  74.5025795 124.3924350  37.1164179  79.0574098
 125.1052322  37.7511643  78.9849999 123.9014378  37.2128045  78.2414100
 126.1141877  31.0215431  70.6291389 125.1798155  31.1416894  70.4596094
 126.2918545  30.1187898  70.3651399 121.6147065  24.4061127  72.7824651
 121.2444852  23.8532167  73.4705556 122.1106157  23.8019261  72.2299651
 129.5014428  26.8632751  71.1641424 129.9674880  27.6960742  71.0901726
 129.9521928  26.3977732  71.8686682 119.4436263  34.8658622  79.8779669
 120.1445723  35.4995105  80.0309063 118.9731378  35.2073354  79.1175308
 127.5690659  33.2076572  68.1627576 127.8450503  33.0933166  69.0721450
 126.6995158  32.8094057  68.1239749 127.4731091  19.2313338  75.2032325
 126.5594171  19.4617564  75.3714532 127.9024192  19.3151782  76.0546357
 127.2437549  27.4203230  77.7032219 126.5908999  27.6679137  77.0484672
 127.6217929  26.6067368  77.3694696 124.2044723  37.4562923  71.8060389
 124.3867118  36.6384579  72.2688142 125.0277709  37.6730615  71.3685279
 124.5386889  36.3831108  69.0675438 125.0674655  35.8723562  68.4545600
 124.8015108  36.0673638  69.9320971 123.2925122  28.1623041  84.1898256
 122.6165759  28.0617170  84.8600631 124.1152756  28.0062254  84.6534253
 115.0403981  34.3994977  76.8110771 115.6257418  33.6538665  76.9438675
 114.8428820  34.7098934  77.6947435 117.8942637  37.4346225  71.8273214
 117.2253012  37.9192352  71.3437254 117.7555506  37.6815445  72.7416592
 109.6321636  26.9700577  75.5315214 109.6705736  26.4364168  76.3252332
 109.1261929  26.4435783  74.9126192 122.0347905  39.4689968  78.4255872
 122.5866213  39.6321590  79.1904957 122.3754099  40.0594406  77.7535897
 117.0112398  21.8165118  79.0277757 117.0753725  22.6779949  78.6155154
 116.9479519  21.2039120  78.2950115 116.4864671  23.8888250  82.6750791
 117.1136710  23.5065328  83.2888315 115.6292590  23.6702452  83.0406483
 126.8858779  34.2951226  84.2804526 127.4298683  34.9081184  83.7859481
 126.3045624  34.8530804  84.7971539 113.2630214  25.6964680  68.6069146
 113.5583655  24.7875358  68.5536199 112.3618249  25.6752419  68.2850148
 125.1716292  37.4171944  75.4119554 125.0467432  36.6161683  74.9030500
 125.8295384  37.9118137  74.9233524 116.7924461  23.7720676  74.5896694
 116.0711046  24.3856644  74.4504168 117.5817716  24.3078441  74.5113340
 127.2351201  35.2180964  77.0399104 126.2881536  35.0986315  76.9677431
 127.5833974  34.3303462  77.1225366 119.5950774  21.1075103  80.8637346
 120.1185176  21.3537399  81.6263655 119.3763107  21.9395137  80.4440483
 114.9918055  23.3778777  68.7308471 114.6630761  22.4976156  68.5483577
 115.3457426  23.3226446  69.6184860 124.2397634  35.0133680  73.2403456
 124.0922597  34.0850387  73.4211027 125.0651128  35.0353771  72.7560532
 118.1059878  23.6651747  69.0983949 118.4455951  24.1937668  68.3762557
 118.5531999  24.0032153  69.8742515 127.8431756  35.8362239  74.3268329
 128.7678303  35.6305100  74.1892780 127.6747059  35.5878640  75.2357671
 120.8003319  22.0488798  78.5487017 120.4600140  21.2496611  78.9507697
 120.0942325  22.3490509  77.9763850 121.4519791  19.1338110  77.0014340
 122.2745860  18.6598588  76.8793230 121.6957855  19.9128594  77.5013026
 120.0928026  22.1626369  67.2977241 120.8136388  22.5407621  66.7940958
 119.4693330  22.8815245  67.4012219 124.2359148  22.8671518  68.2335574
 124.4522763  23.7496155  67.9324402 123.7553216  22.4757731  67.5041216
 118.9758370  25.8257231  74.8106318 118.8302951  26.1397534  75.7030600
 118.4983573  26.4442131  74.2577217 120.8354753  22.8159779  74.8587208
 120.8216321  21.9200872  74.5219506 121.5527181  22.8230442  75.4925494
 122.6880883  23.2497119  76.9040335 122.4298661  24.1714190  76.9024666
 122.1565924  22.8527553  77.5940799 127.6327072  36.3547906  69.6830421
 127.8063950  35.7894329  68.9304273 128.1255963  37.1548801  69.5009911
 113.4504032  28.3662575  77.7493979 112.9057500  29.1422383  77.8814254
 114.3283382  28.7133380  77.5913101 120.2391649  21.6974159  70.1274778
 120.3607560  20.7690805  70.3265665 119.9493691  21.7112845  69.2153093
 123.1082839  19.3829069  73.2641498 123.1304536  19.4468403  72.3093477
 123.5250898  18.5433578  73.4582004 133.4866463  29.1184329  71.3020720
 133.9297609  28.3691654  70.9039844 132.6092974  29.1094465  70.9194452
 128.6202245  35.6714670  66.7827319 129.3153149  36.2921363  67.0014634
 128.9625395  34.8210022  67.0579697 114.2370054  27.4932471  80.6424136
 113.4951790  27.6415107  81.2288767 113.9162798  27.7540737  79.7790886
 130.5193668  33.1214376  68.3114650 131.0444992  33.4601649  67.5863970
 130.4316020  32.1861391  68.1277784 122.1813716  37.0348450  80.4404526
 122.4900843  36.7897596  81.3127226 122.9789198  37.2395088  79.9523397
 122.2034329  39.1886359  72.6709903 121.7639319  38.6962738  73.3642760
 122.9542445  38.6459327  72.4301978 114.6826667  35.3797900  72.6734531
 115.5084687  35.0801672  72.2933175 114.3320719  34.6105523  73.1224320
 119.6508201  34.7324368  74.7432205 119.0288210  34.0695073  74.4434432
 120.3213068  34.7585500  74.0605852 112.8835273  33.2984227  73.6323465
 112.0467181  32.8706401  73.4507466 112.8558918  33.4916670  74.5694256
 119.7232728  23.2106156  84.3364711 119.7720884  24.0868279  83.9542480
 120.2655242  22.6683549  83.7636354 130.2087574  33.7547280  83.6165848
 129.4183118  33.7371418  83.0770347 129.9720928  34.2935573  84.3714884
 130.3285449  30.6039746  80.9298576 130.3783454  30.4389753  81.8714099
 130.2199372  29.7367005  80.5396457 119.2121708  33.2828292  68.2190665
 119.3609828  33.9663756  67.5657338 120.0188151  33.2633382  68.7340121
 127.6189211  26.5870674  82.2457883 128.5199074  26.4477139  81.9541881
 127.6937186  26.7525129  83.1856060 121.9532017  23.9637529  81.0911069
 121.0835326  24.2571095  80.8193658 122.1891497  24.5477974  81.8118333
 131.8303646  33.0236688  81.1740598 131.5388454  33.3866668  82.0104059
 131.2175777  32.3103696  80.9953930 133.0299328  30.5889567  73.6943168
 133.8646219  31.0279371  73.8580728 133.1658457  30.1128221  72.8751414
 130.0790834  28.1469302  79.6420656 130.5544956  28.3396948  78.8339507
 129.1556399  28.2028488  79.3964039 116.9674341  29.3093469  69.2251734
 116.7220382  28.4055799  69.4231944 117.1370255  29.3110620  68.2831212
 124.6571050  20.1817146  78.6076490 125.1752994  20.9178173  78.2822978
 124.3026183  20.4881139  79.4423249 116.2369988  25.0421827  66.7237895
 115.5439233  25.1166182  66.0677931 115.9921740  24.2782171  67.2459412
 124.9083645  16.6017428  74.1277386 125.1885398  15.9340617  74.7537813
 125.6934252  16.7946524  73.6152050 122.7117113  35.7776422  65.6902413
 122.1391080  36.3966609  65.2372884 123.2849907  36.3275784  66.2242334
 128.7792503  25.0235062  77.8748961 129.7309926  25.1233160  77.8961185
 128.6095953  24.2313331  78.3847046 126.8006882  22.1090645  78.0608362
 126.2056815  22.3895658  77.3654851 126.5156579  22.5984546  78.8325103
 125.9314373  36.0613572  66.8210995 126.8645046  35.9959134  67.0243870
 125.8437586  36.8969839  66.3625527 128.5602390  35.3779443  63.7814942
 128.4816021  35.0439306  64.6750700 129.3812056  35.8701211  63.7806415
 131.2580581  28.2441182  76.9891261 131.2256901  27.3057183  77.1750945
 131.8681204  28.3225219  76.2557086 123.0963912  27.1137235  63.0318465
 124.0423016  26.9843443  63.1006883 122.7178157  26.3751897  63.5087893
 131.4075069  25.0352225  77.0349544 130.8914118  24.2510682  76.8479473
 132.2915018  24.7070942  77.1996064 129.0685796  18.7793241  72.9945357
 128.8710617  18.4708329  73.8788689 129.6785502  19.5054880  73.1243287
 137.0757131  29.3057189  76.1297298 137.8060519  29.0442477  76.6905001
 136.4664076  28.5685911  76.1699366 135.1572428  27.4465051  76.7271749
 134.4305591  27.3121016  76.1188241 134.7419715  27.7541880  77.5328467
 122.9802604  31.1654981  84.4919122 123.9005614  31.3433580  84.6859169
 122.9452187  30.2211026  84.3398821 121.2806829  25.0387211  62.9673350
 120.3738284  24.7420324  63.0436064 121.5582810  24.7417029  62.1007636
 112.1984769  26.3593575  73.4172397 111.8787553  25.5058883  73.1246771
 111.6518197  26.5742153  74.1730364 115.9764677  29.0756016  77.1341903
 116.1950686  30.0073124  77.1529937 116.3890450  28.7163990  77.9196707
 122.8968894  19.5824101  69.1217592 122.0869623  19.2371186  69.4972838
 123.5853311  19.2731645  69.7105203 124.8259443  18.6602148  70.7441888
 125.3790481  19.0797601  71.4031911 125.0629529  17.7337896  70.7864844
 120.8492542  24.6489221  86.5244652 120.7489269  25.5983578  86.4556743
 120.6314084  24.3207460  85.6520722 120.0505613  21.8974147  63.1085329
 120.9124777  22.2229045  63.3681147 120.2355958  21.1105642  62.5958395
 112.0673029  29.9796486  75.3865518 111.3736501  29.5650439  74.8735473
 112.8146020  30.0217023  74.7898937 128.2038250  20.7702673  70.2520552
 127.6236919  21.4287477  69.8698605 127.9374183  19.9480018  69.8407970
 126.6541816  20.1707731  72.4541873 127.1541595  20.2824265  71.6456192
 127.2977424  19.8668784  73.0942681 120.7123812  28.0786360  85.3409714
 120.2290894  28.8786720  85.5473603 120.7984751  28.0894305  84.3877158
 113.9809772  29.9114740  73.2631533 113.9580460  30.0102427  72.3113416
 114.2910408  30.7579891  73.5848699 116.6397150  31.9690895  77.3778148
 117.5940403  31.9374837  77.3108079 116.4409673  31.5081519  78.1928373
 117.2296532  30.5392011  79.9448945 118.0489421  31.0336090  79.9683782
 117.5033339  29.6223979  79.9166513 126.9863128  22.9302763  69.3076901
 126.0988983  23.2152414  69.0897095 127.4017117  22.7696527  68.4604178
 130.3377664  22.9549284  73.0231240 131.1138054  23.4445737  73.2955857
 129.6125798  23.3807339  73.4803109 132.7750223  23.6676904  74.0805181
 133.3694713  23.4272640  73.3698489 132.8476806  22.9484034  74.7078717
 114.9947378  37.5110514  74.3948345 114.8601846  36.7510915  73.8286343
 114.5779441  38.2351414  73.9277134 126.1306341  32.6947438  63.4024921
 126.8342191  32.8997441  64.0182576 125.4068990  33.2624200  63.6674004
 126.9604152  28.4457299  69.5227191 126.9039353  28.9025851  68.6834823
 127.5132494  27.6847984  69.3450034 130.7708958  24.2347031  70.3477310
 130.5145892  23.8343667  71.1785518 130.1461826  24.9490825  70.2227450
 135.0821295  26.9743104  72.8548602 134.5220853  27.0436294  73.6280164
 134.4764799  26.7984089  72.1348098 118.1516504  38.4079832  74.6066788
 118.0348888  39.3525264  74.5045478 117.3308950  38.1053393  74.9952587
 128.0393039  33.1329967  65.4523381 128.8738643  32.7011166  65.2700856
 127.8777382  32.9611981  66.3800275 127.6938931  29.6362081  66.8179720
 127.6387735  29.4706352  65.8768164 127.0684986  30.3438113  66.9741910
 112.4831446  24.8730145  80.6441142 113.1290310  24.3629099  81.1328367
 112.2748597  25.6098827  81.2184568 125.0084838  31.9410992  86.1433283
 125.8775998  32.1151645  85.7819918 124.5291590  32.7605409  86.0209012
 121.0035056  19.1370190  66.3965038 120.9913726  20.0812029  66.5533309
 121.8958478  18.9540335  66.1024500 119.1771018  39.0608093  77.8222716
 120.0798265  39.0931704  78.1389211 118.9508388  38.1308544  77.8369052
 120.9324620  37.8139080  74.4832795 119.9820251  37.8140942  74.3697167
 121.2357106  37.0671815  73.9668830 124.8187176  15.7312966  70.6510975
 124.0519572  15.1771453  70.7967658 125.2297881  15.8034835  71.5125127
 116.8228937  22.0197762  84.7416157 117.6860398  21.6634567  84.9519481
 116.2494348  21.6811657  85.4291561 136.6677314  43.6499618  75.5478558
 137.3055724  43.5306366  74.8441898 136.5498157  44.5980462  75.6066510
 133.4767020  43.6027046  75.4840082 133.1385532  43.4868111  74.5960617
 134.3456788  43.2018212  75.4641088 129.3353836  45.4562523  71.4736973
 128.7718701  45.3652460  70.7053261 129.2206231  44.6362427  71.9539466
 133.9586803  44.7561898  81.4426288 133.9475444  44.3614696  80.5706791
 134.1207443  44.0227971  82.0360059 126.8818268  46.9513714  74.3121194
 127.6739560  46.6104539  73.8967493 127.1214918  47.0608689  75.2323347
 134.9153395  49.1233491  66.7851438 134.2641374  49.7087571  66.3985452
 135.7097757  49.6539685  66.8446476 128.8409022  46.2122628  67.1838572
 129.6139898  45.6651615  67.0451448 129.1934421  47.0766877  67.3953034
 130.6794064  47.5399010  80.3905472 130.3883930  48.4444641  80.2752138
 131.3151049  47.5815538  81.1049541 131.6050271  44.9175858  76.9806831
 132.2013843  44.6931881  76.2663794 131.6625243  44.1760604  77.5832279
 131.1775299  42.3715294  64.8157022 131.4300820  41.8496815  64.0540485
 130.2399859  42.2081439  64.9183706 136.2218582  41.3751072  72.6231766
 137.0081672  40.9570495  72.2722183 136.4857287  42.2797164  72.7913414
 136.3928660  46.8123922  67.3220422 135.7574493  46.8858549  68.0341327
 136.0626066  47.4017521  66.6439502 141.6227009  41.3126305  73.5264744
 142.3552181  40.7425522  73.7602574 140.8666365  40.9247906  73.9671250
 130.8971588  44.2743400  67.0181397 130.7807846  43.5988303  67.6862482
 131.0073848  43.7875774  66.2013550 133.2403129  43.7353547  70.7228087
 132.8761336  43.2084168  71.4341008 134.0970245  43.3452016  70.5494572
 139.1452430  35.0247879  77.9859353 138.8135755  35.8943290  77.7620568
 138.5498043  34.7084163  78.6653383 132.8808616  38.7643447  65.7189435
 133.0483018  39.6323683  66.0859906 132.6905785  38.9270728  64.7950724
 135.6383949  47.2260425  77.3855265 135.3384672  48.1285464  77.2771073
 135.2935009  46.9592609  78.2376418 129.0896431  43.6774222  73.4191970
 128.1646927  43.5450436  73.6269662 129.3380844  44.4568442  73.9161912
 139.0381093  39.7442966  75.0652703 138.1297970  39.6758374  74.7711464
 138.9868689  40.2214911  75.8934528 132.8597837  41.2201104  66.7036102
 132.7397462  41.6658155  67.5421582 132.1650425  41.5686422  66.1449640
 126.4505242  43.3207496  74.2535759 126.5797623  43.5741975  75.1675171
 125.7702693  43.9135204  73.9340414 130.6204729  53.9904746  70.3526233
 130.5428759  54.9412571  70.4314714 130.0166373  53.6450618  71.0101159
 133.1121959  41.1632611  83.0087600 132.3355293  41.7226531  82.9990465
 133.7512522  41.6489394  83.5302470 140.9042740  37.9459404  76.8430577
 140.2617120  38.2391937  76.1970371 140.3997668  37.8312324  77.6483773
 138.5582903  41.6922577  67.5316436 139.4700759  41.9249964  67.3564133
 138.0492550  42.2759621  66.9691515 131.3668331  43.9718065  82.5705567
 132.1083016  44.5103109  82.2940391 130.6605317  44.5984353  82.7277119
 136.8423671  46.1147205  81.1677728 137.2507027  45.6729616  80.4232361
 136.1200932  45.5399833  81.4211921 133.1954741  41.0519812  78.5411285
 134.0415936  41.4759225  78.6845934 133.1353379  40.3953436  79.2349849
 137.1652485  46.6748396  74.9230017 136.5361348  46.8394110  74.2206085
 136.7778148  47.0890005  75.6940981 141.0441717  47.6102834  72.2774381
 140.3592756  47.9901735  71.7271414 141.1285567  48.2198160  73.0106329
 136.3454186  38.7124180  80.1992459 136.1015118  39.4666241  79.6626735
 136.6214117  39.0909528  81.0339706 138.2992649  45.2562793  78.8769725
 138.5109544  45.8994552  78.2004106 138.2522397  44.4225109  78.4091655
 135.9018878  37.8680613  75.7806297 135.0403357  38.1661867  76.0723034
 135.9281313  38.0851012  74.8487329 132.7180447  46.4122804  72.1880102
 133.1818793  46.6910507  71.3984725 132.4537245  45.5106248  72.0053193
 129.6104528  45.9594285  75.1259866 130.1805885  46.3881554  74.4877350
 130.2012640  45.6776870  75.8244051 131.6549333  42.5345956  68.9969668
 132.3573377  42.9867000  69.4643594 131.3229962  41.8929775  69.6249561
 130.1029695  41.1257713  83.3720877 129.4728356  41.8073994  83.6056274
 129.9965783  41.0140794  82.4274015 125.3974667  40.7929509  74.2986801
 124.6073721  41.0487037  73.8226912 125.8885915  41.6077847  74.4038842
 139.4138477  48.1334748  77.0492082 140.2355921  47.7314935  76.7674764
 139.4100880  48.0302982  78.0008198 127.3489413  41.1574088  71.2570278
 126.5520576  41.2692782  71.7753774 127.1215005  41.4960740  70.3911168
 133.1795080  47.6818791  79.2052792 133.2439513  48.1439199  80.0410964
 132.4706004  47.0516156  79.3335102 123.6812370  41.0459999  76.7301792
 123.9320409  41.9307009  76.9959368 124.2171919  40.8664601  75.9576884
 147.5044470  44.4773496  73.3977053 146.7508178  43.9080895  73.2421058
 147.6392011  44.4436161  74.3447688 132.8943098  49.3486899  69.0731773
 132.7588773  50.1938435  69.5016621 133.4352911  49.5506176  68.3097707
 129.3810438  35.4278479  85.7346128 128.9877383  34.8744677  86.4093772
 130.1976578  35.7389057  86.1252646 126.3472495  46.8662337  69.6459698
 126.8597016  47.6605587  69.7965263 126.9995208  46.1688627  69.5793299
 128.1567380  49.9828093  71.7282451 128.3334008  50.9046058  71.5403435
 128.9524214  49.6686512  72.1576831 132.2978399  36.8436358  83.3266385
 133.0388112  37.4443511  83.2470847 132.5296321  36.1013996  82.7684427
 127.4419737  42.0292725  81.6044614 127.3273252  41.1277982  81.9051713
 126.5864254  42.2756422  81.2529431 134.5211574  49.9710465  83.2032115
 134.0775429  49.1846844  82.8853019 135.1828788  50.1589616  82.5376006
 129.2798696  51.5006267  77.7292793 129.8306121  51.3723330  76.9569787
 128.4410171  51.8001156  77.3787686 136.6192812  50.2513265  81.2313516
 136.6011288  51.0722146  80.7393785 137.5412733  50.1267340  81.4563657
 133.0765867  47.7657395  82.0737025 133.6094203  47.0045683  81.8436333
 132.5479948  47.4731047  82.8161179 136.2435562  32.8717461  77.6030666
 135.8999831  33.7619102  77.5269777 136.6114524  32.6819118  76.7400251
 124.3121412  45.1950991  70.4219268 125.1496634  45.6047999  70.2052976
 124.4899680  44.2550433  70.3919462 136.2085844  42.8626072  66.1103101
 135.6932468  43.6330676  66.3491489 135.9363153  42.1891208  66.7336163
 133.7932955  37.7075773  71.1688340 132.9374552  37.3182623  70.9893978
 134.2059907  37.7867733  70.3088125 135.3232102  35.2422116  75.5679900
 134.8196898  35.2052251  74.7547705 135.6162709  36.1514859  75.6276556
 131.5674988  35.3260846  74.5746081 132.4327985  35.1303654  74.2151971
 131.6352497  35.0971197  75.5015438 141.1820118  45.6158426  68.0456275
 140.4049561  45.2769586  67.6011437 141.8611599  45.6211050  67.3711240
 135.9972147  40.7353164  67.9362883 135.6922283  41.0499313  68.7873026
 136.9502590  40.8134584  67.9790216 134.4418579  46.8943387  69.5855837
 133.9139941  46.1596147  69.2729074 133.9406082  47.6718064  69.3395805
 139.4211425  45.0892408  74.7022883 138.7635100  45.7791669  74.7903011
 140.2251825  45.4788840  75.0456869 129.1737307  37.5563053  71.9462448
 129.7481059  37.3338235  71.2135641 129.7608289  37.6251748  72.6991049
 138.2316884  43.4436780  72.7526825 138.7448766  44.0766772  73.2548534
 138.8818108  42.8437976  72.3870185 129.5006894  39.5867514  65.9658333
 128.6644206  39.9242201  66.2867608 129.3611664  39.4516494  65.0285470
 131.4759975  34.4304302  70.6737517 130.8224387  34.1153320  70.0494132
 131.4340449  33.8080043  71.3997340 132.5871180  44.7123597  62.5890810
 131.6798241  44.4812851  62.7881959 133.0842212  43.9161217  62.7764791
 135.4939258  53.4221105  65.5087496 134.8200957  53.7252801  66.1172454
 135.8805080  54.2250185  65.1592953 134.7097715  40.9186236  74.9985165
 133.7920276  41.1401183  74.8406853 135.1257859  40.9932546  74.1396872
 135.4932763  42.3177652  70.1287845 136.2404582  42.8299049  69.8194967
 135.7624352  41.9961704  70.9892239 133.7659413  44.8136192  67.1114800
 132.8570632  44.5295225  67.2087269 133.7954497  45.2335271  66.2518107
 138.9978680  48.4242782  70.8805967 138.5441007  47.5833692  70.9371158
 138.3672647  49.0604180  71.2180747 137.9411600  39.3534768  72.1106635
 137.2034357  38.8412154  72.4416877 138.1938373  38.9135149  71.2989912
 137.4411620  50.2619279  71.8155785 137.7334594  50.8224336  71.0968151
 137.9510240  50.5547840  72.5708944 138.0423227  32.1311020  72.7048404
 138.3482104  31.2708383  72.4174319 138.7675832  32.7228640  72.5047398
 124.3347583  42.5341706  71.0930002 124.1371983  41.9411067  70.3681068
 123.7794247  42.2293917  71.8105941 132.3144307  42.4264813  73.2124595
 132.3692917  41.4738649  73.1367072 131.5035509  42.5824252  73.6965893
 133.4635501  46.3544936  64.4502878 133.0254931  45.6380795  63.9908516
 134.2045942  46.5821051  63.8887970 130.2536667  41.0441873  70.9714974
 129.4404532  41.3436043  71.3780166 130.7495661  40.6497561  71.6889456
 132.4045245  51.0399630  72.9049239 132.3621424  51.2660476  71.9757771
 133.3207944  50.8063004  73.0535040 135.8510879  41.5083697  79.8029868
 136.2060266  41.7355170  80.6624334 136.4983010  41.8402074  79.1807123
 141.5808616  44.6302133  70.5079197 141.4426514  44.8203729  69.5800386
 141.2244834  45.3921516  70.9647248 129.7450742  38.6160228  76.5876209
 130.3850121  38.4748987  75.8899172 128.9128272  38.3294742  76.2114811
 141.6077995  46.6978660  75.5190468 142.0414502  46.6053949  76.3673522
 142.3209576  46.6736160  74.8810484 130.5211046  47.9162659  72.7011201
 131.3151644  47.4212979  72.4993776 129.8102738  47.3880522  72.3378907
 135.3405890  50.2980754  77.0523569 135.3942912  50.8671690  77.8201285
 134.4720671  50.4682639  76.6877606 126.8293809  42.0605740  68.7770954
 125.8991397  41.9990196  68.9940916 126.9251281  41.5381693  67.9807595
 126.7479358  38.5860553  71.3649196 127.0086175  39.5005886  71.2558356
 127.5696530  38.1184996  71.5145808 128.2204283  39.9998310  78.5348020
 128.8927337  39.7915672  77.8860669 127.3934070  39.8020396  78.0953252
 142.4693545  46.7402361  78.0523354 142.6629435  47.6448171  78.2982629
 142.3694163  46.2809780  78.8861939 134.1229855  36.6260251  80.5513681
 133.4757770  37.3250201  80.4578157 134.8930871  37.0596395  80.9189929
 137.5308653  46.8909103  83.6264234 137.3794160  46.6619655  82.7094318
 137.5213333  47.8479705  83.6395579 134.2993990  44.4641016  78.6110501
 135.2286050  44.6152176  78.4379468 133.8785020  44.5525037  77.7559147
 133.0982322  48.4891681  76.3809038 132.9593407  48.1210465  77.2534977
 132.3096918  49.0039320  76.2092996 133.6930474  53.5900777  67.7234575
 133.8682229  53.1188820  68.5380198 133.0063262  54.2166543  67.9515836
 134.6487537  47.8673283  73.7697876 134.3137369  47.8274053  74.6655526
 134.1491482  47.2017999  73.2968286 128.6231781  43.2740913  79.2950457
 128.4851579  42.5421152  79.8961996 129.5336704  43.1849813  79.0134645
 137.5846728  45.2129318  64.0434936 136.9675899  44.4876146  63.9467989
 137.1163217  45.9738678  63.7002010 131.2514081  42.9860873  78.7834137
 131.9613700  42.3454065  78.7420755 131.2083390  43.2373767  79.7060318
 139.2400860  49.9228226  81.7040716 139.1813406  49.2387446  81.0371299
 139.6420378  50.6647216  81.2521342 129.9643015  39.9726091  80.6029776
 129.4280372  39.5216829  81.2551373 129.3759724  40.1071999  79.8600241
 128.2591559  56.7390140  74.4974435 128.4988157  57.3708664  75.1753454
 127.4160755  56.3878180  74.7839794 129.3745274  39.4314742  63.1656240
 128.4974741  39.3103543  62.8018487 129.8503027  38.6400820  62.9135129
 139.2418267  47.8867810  79.9354696 138.3545046  47.5493732  80.0581095
 139.8116818  47.1550841  80.1723461 120.8947414  44.2191902  73.2597747
 121.5818454  43.9053632  72.6718763 120.7395543  45.1233266  72.9864999
 125.6982137  39.1082098  77.6882771 125.6140325  38.5007768  76.9533181
 124.8764843  39.5991117  77.6892267 132.7719421  52.5469262  76.9015939
 132.6989592  53.3524234  77.4135244 132.3296814  52.7461228  76.0763960
 132.5609200  51.7841032  70.4118761 131.7776722  52.3262712  70.5056985
 133.2601945  52.3015012  70.8113002 135.8705850  37.5935662  73.0552966
 136.3674550  36.8405624  72.7354036 135.0992832  37.6299978  72.4896175
 143.7235608  43.2976027  74.6971258 143.7125484  44.1800743  74.3265191
 142.8552987  42.9447578  74.5025795 135.2318104  52.4456096  79.0574098
 135.9446076  53.0803561  78.9849999 134.7408133  52.5419962  78.2414100
 136.9535631  46.3507349  70.6291389 136.0191910  46.4708811  70.4596094
 137.1312300  45.4479816  70.3651399 132.4540819  39.7353045  72.7824651
 132.0838607  39.1824085  73.4705556 132.9499912  39.1311178  72.2299651
 140.3408182  42.1924668  71.1641424 140.8068635  43.0252660  71.0901726
 140.7915683  41.7269650  71.8686682 130.2830018  50.1950540  79.8779669
 130.9839477  50.8287023  80.0309063 129.8125133  50.5365271  79.1175308
 138.4084414  48.5368490  68.1627576 138.6844257  48.4225084  69.0721450
 137.5388912  48.1385974  68.1239749 138.3124845  34.5605255  75.2032325
 137.3987925  34.7909482  75.3714532 138.7417947  34.6443699  76.0546357
 138.0831304  42.7495147  77.7032219 137.4302754  42.9971055  77.0484672
 138.4611684  41.9359285  77.3694696 135.0438478  52.7854840  71.8060389
 135.2260872  51.9676496  72.2688142 135.8671464  53.0022533  71.3685279
 135.3780643  51.7123026  69.0675438 135.9068410  51.2015480  68.4545600
 135.6408863  51.3965556  69.9320971 134.1318877  43.4914958  84.1898256
 133.4559514  43.3909088  84.8600631 134.9546511  43.3354172  84.6534253
 125.8797736  49.7286895  76.8110771 126.4651173  48.9830583  76.9438675
 125.6822574  50.0390852  77.6947435 128.7336391  52.7638142  71.8273214
 128.0646766  53.2484270  71.3437254 128.5949261  53.0107363  72.7416592
 120.4715391  42.2992495  75.5315214 120.5099490  41.7656086  76.3252332
 119.9655683  41.7727701  74.9126192 132.8741660  54.7981886  78.4255872
 133.4259968  54.9613507  79.1904957 133.2147853  55.3886324  77.7535897
 127.8506153  37.1457036  79.0277757 127.9147479  38.0071866  78.6155154
 127.7873273  36.5331037  78.2950115 127.3258425  39.2180168  82.6750791
 127.9530464  38.8357245  83.2888315 126.4686344  38.9994370  83.0406483
 137.7252534  49.6243143  84.2804526 138.2692438  50.2373102  83.7859481
 137.1439379  50.1822722  84.7971539 124.1023968  41.0256597  68.6069146
 124.3977409  40.1167276  68.5536199 123.2012004  41.0044337  68.2850148
 136.0110047  52.7463861  75.4119554 135.8861186  51.9453601  74.9030500
 136.6689138  53.2410055  74.9233524 127.6318215  39.1012594  74.5896694
 126.9104801  39.7148561  74.4504168 128.4211471  39.6370359  74.5113340
 138.0744955  50.5472881  77.0399104 137.1275291  50.4278233  76.9677431
 138.4227728  49.6595379  77.1225366 130.4344529  36.4367020  80.8637346
 130.9578930  36.6829317  81.6263655 130.2156862  37.2687055  80.4440483
 125.8311810  38.7070695  68.7308471 125.5024516  37.8268074  68.5483577
 126.1851180  38.6518364  69.6184860 135.0791389  50.3425598  73.2403456
 134.9316351  49.4142305  73.4211027 135.9044882  50.3645688  72.7560532
 128.9453633  38.9943665  69.0983949 129.2849705  39.5229586  68.3762557
 129.3925753  39.3324071  69.8742515 138.6825510  51.1654156  74.3268329
 139.6072058  50.9597018  74.1892780 138.5140814  50.9170557  75.2357671
 131.6397074  37.3780715  78.5487017 131.2993894  36.5788528  78.9507697
 130.9336080  37.6782426  77.9763850 132.2913546  34.4630028  77.0014340
 133.1139615  33.9890506  76.8793230 132.5351609  35.2420512  77.5013026
 130.9321780  37.4918286  67.2977241 131.6530143  37.8699539  66.7940958
 130.3087084  38.2107163  67.4012219 135.0752903  38.1963435  68.2335574
 135.2916517  39.0788073  67.9324402 134.5946970  37.8049649  67.5041216
 129.8152124  41.1549148  74.8106318 129.6696705  41.4689451  75.7030600
 129.3377328  41.7734049  74.2577217 131.6748507  38.1451696  74.8587208
 131.6610076  37.2492790  74.5219506 132.3920935  38.1522360  75.4925494
 133.5274638  38.5789037  76.9040335 133.2692416  39.5006107  76.9024666
 132.9959678  38.1819471  77.5940799 138.4720827  51.6839824  69.6830421
 138.6457704  51.1186246  68.9304273 138.9649718  52.4840719  69.5009911
 124.2897786  43.6954493  77.7493979 123.7451255  44.4714301  77.8814254
 125.1677136  44.0425297  77.5913101 131.0785403  37.0266077  70.1274778
 131.2001314  36.0982723  70.3265665 130.7887445  37.0404763  69.2153093
 133.9476593  34.7120987  73.2641498 133.9698290  34.7760320  72.3093477
 134.3644652  33.8725496  73.4582004 144.3260218  44.4476247  71.3020720
 144.7691364  43.6983572  70.9039844 143.4486728  44.4386383  70.9194452
 139.4595999  51.0006588  66.7827319 140.1546904  51.6213281  67.0014634
 139.8019149  50.1501939  67.0579697 125.0763808  42.8224389  80.6424136
 124.3345544  42.9707024  81.2288767 124.7556553  43.0832655  79.7790886
 141.3587422  48.4506294  68.3114650 141.8838746  48.7893566  67.5863970
 141.2709775  47.5153309  68.1277784 133.0207471  52.3640367  80.4404526
 133.3294597  52.1189514  81.3127226 133.8182953  52.5687006  79.9523397
 133.0428083  54.5178277  72.6709903 132.6033073  54.0254656  73.3642760
 133.7936200  53.9751245  72.4301978 125.5220422  50.7089818  72.6734531
 126.3478442  50.4093590  72.2933175 125.1714474  49.9397440  73.1224320
 130.4901955  50.0616286  74.7432205 129.8681964  49.3986991  74.4434432
 131.1606822  50.0877418  74.0605852 123.7229027  48.6276144  73.6323465
 122.8860935  48.1998319  73.4507466 123.6952672  48.8208588  74.5694256
 130.5626483  38.5398074  84.3364711 130.6114638  39.4160197  83.9542480
 131.1048997  37.9975467  83.7636354 141.0481328  49.0839197  83.6165848
 140.2576872  49.0663336  83.0770347 140.8114683  49.6227491  84.3714884
 141.1679203  45.9331664  80.9298576 141.2177208  45.7681671  81.8714099
 141.0593127  45.0658923  80.5396457 130.0515462  48.6120209  68.2190665
 130.2003582  49.2955674  67.5657338 130.8581906  48.5925299  68.7340121
 138.4582966  41.9162592  82.2457883 139.3592829  41.7769057  81.9541881
 138.5330940  42.0817047  83.1856060 132.7925771  39.2929446  81.0911069
 131.9229080  39.5863013  80.8193658 133.0285251  39.8769891  81.8118333
 142.6697400  48.3528605  81.1740598 142.3782208  48.7158586  82.0104059
 142.0569531  47.6395613  80.9953930 143.8693083  45.9181485  73.6943168
 144.7039974  46.3571289  73.8580728 144.0052211  45.4420138  72.8751414
 140.9184588  43.4761220  79.6420656 141.3938710  43.6688866  78.8339507
 139.9950154  43.5320406  79.3964039 127.8068095  44.6385387  69.2251734
 127.5614137  43.7347717  69.4231944 127.9764010  44.6402537  68.2831212
 135.4964805  35.5109063  78.6076490 136.0146749  36.2470090  78.2822978
 135.1419938  35.8173057  79.4423249 127.0763743  40.3713745  66.7237895
 126.3832988  40.4458100  66.0677931 126.8315494  39.6074088  67.2459412
 135.7477399  31.9309346  74.1277386 136.0279153  31.2632535  74.7537813
 136.5328006  32.1238442  73.6152050 133.5510868  51.1068340  65.6902413
 132.9784835  51.7258527  65.2372884 134.1243661  51.6567702  66.2242334
 139.6186257  40.3526980  77.8748961 140.5703680  40.4525078  77.8961185
 139.4489708  39.5605248  78.3847046 137.6400637  37.4382563  78.0608362
 137.0450569  37.7187576  77.3654851 137.3550334  37.9276464  78.8325103
 136.7708127  51.3905490  66.8210995 137.7038801  51.3251052  67.0243870
 136.6831340  52.2261757  66.3625527 139.3996144  50.7071360  63.7814942
 139.3209776  50.3731224  64.6750700 140.2205811  51.1993128  63.7806415
 142.0974335  43.5733100  76.9891261 142.0650655  42.6349100  77.1750945
 142.7074959  43.6517136  76.2557086 133.9357666  42.4429153  63.0318465
 134.8816771  42.3135361  63.1006883 133.5571911  41.7043814  63.5087893
 142.2468824  40.3644143  77.0349544 141.7307872  39.5802600  76.8479473
 143.1308772  40.0362860  77.1996064 139.9079551  34.1085159  72.9945357
 139.7104372  33.8000247  73.8788689 140.5179256  34.8346798  73.1243287
 145.9966182  42.7756969  76.7271749 145.2699346  42.6412934  76.1188241
 145.5813469  43.0833798  77.5328467 133.8196359  46.4946899  84.4919122
 134.7399368  46.6725498  84.6859169 133.7845942  45.5502944  84.3398821
 132.1200583  40.3679129  62.9673350 131.2132039  40.0712242  63.0436064
 132.3976564  40.0708947  62.1007636 123.0378524  41.6885492  73.4172397
 122.7181308  40.8350801  73.1246771 122.4911952  41.9034071  74.1730364
 126.8158431  44.4047933  77.1341903 127.0344441  45.3365041  77.1529937
 127.2284205  44.0455908  77.9196707 133.7362649  34.9116019  69.1217592
 132.9263377  34.5663104  69.4972838 134.4247066  34.6023562  69.7105203
 135.6653197  33.9894065  70.7441888 136.2184236  34.4089519  71.4031911
 135.9023284  33.0629814  70.7864844 131.6886296  39.9781139  86.5244652
 131.5883023  40.9275496  86.4556743 131.4707839  39.6499378  85.6520722
 130.8899368  37.2266064  63.1085329 131.7518532  37.5520962  63.3681147
 131.0749712  36.4397560  62.5958395 122.9066784  45.3088404  75.3865518
 122.2130255  44.8942357  74.8735473 123.6539775  45.3508940  74.7898937
 139.0432004  36.0994591  70.2520552 138.4630673  36.7579395  69.8698605
 138.7767937  35.2771935  69.8407970 137.4935571  35.4999648  72.4541873
 137.9935349  35.6116183  71.6456192 138.1371179  35.1960701  73.0942681
 131.5517567  43.4078278  85.3409714 131.0684648  44.2078638  85.5473603
 131.6378506  43.4186223  84.3877158 124.8203526  45.2406658  73.2631533
 124.7974214  45.3394345  72.3113416 125.1304163  46.0871808  73.5848699
 127.4790904  47.2982813  77.3778148 128.4334158  47.2666755  77.3108079
 127.2803428  46.8373436  78.1928373 128.0690286  45.8683929  79.9448945
 128.8883175  46.3628007  79.9683782 128.3427094  44.9515897  79.9166513
 137.8256882  38.2594681  69.3076901 136.9382737  38.5444332  69.0897095
 138.2410871  38.0988444  68.4604178 141.1771418  38.2841202  73.0231240
 141.9531809  38.7737654  73.2955857 140.4519553  38.7099256  73.4803109
 143.6143977  38.9968821  74.0805181 144.2088468  38.7564557  73.3698489
 143.6870561  38.2775952  74.7078717 125.8341133  52.8402432  74.3948345
 125.6995601  52.0802833  73.8286343 125.4173195  53.5643332  73.9277134
 136.9700096  48.0239356  63.4024921 137.6735946  48.2289358  64.0182576
 136.2462745  48.5916118  63.6674004 137.7997906  43.7749217  69.5227191
 137.7433107  44.2317768  68.6834823 138.3526249  43.0139902  69.3450034
 141.6102712  39.5638949  70.3477310 141.3539646  39.1635584  71.1785518
 140.9855580  40.2782743  70.2227450 145.9215050  42.3035022  72.8548602
 145.3614608  42.3728211  73.6280164 145.3158553  42.1276007  72.1348098
 128.9910259  53.7371749  74.6066788 128.8742643  54.6817182  74.5045478
 128.1702705  53.4345311  74.9952587 138.8786793  48.4621885  65.4523381
 139.7132397  48.0303083  65.2700856 138.7171136  48.2903899  66.3800275
 138.5332685  44.9653998  66.8179720 138.4781489  44.7998270  65.8768164
 137.9078741  45.6730031  66.9741910 123.3225200  40.2022063  80.6441142
 123.9684064  39.6921017  81.1328367 123.1142352  40.9390744  81.2184568
 135.8478593  47.2702910  86.1433283 136.7169752  47.4443562  85.7819918
 135.3685344  48.0897327  86.0209012 131.8428811  34.4662107  66.3965038
 131.8307481  35.4103947  66.5533309 132.7352233  34.2832253  66.1024500
 130.0164773  54.3900011  77.8222716 130.9192020  54.4223621  78.1389211
 129.7902143  53.4600462  77.8369052 131.7718375  53.1430998  74.4832795
 130.8214006  53.1432859  74.3697167 132.0750861  52.3963732  73.9668830
 135.6580930  31.0604884  70.6510975 134.8913326  30.5063371  70.7967658
 136.0691635  31.1326753  71.5125127 127.6622691  37.3489680  84.7416157
 128.5254153  36.9926485  84.9519481 127.0888102  37.0103574  85.4291561
 144.3160775  58.9318964  75.4840082 143.9779286  58.8160029  74.5960617
 145.1850543  58.5310129  75.4641088 140.1747590  60.7854441  71.4736973
 139.6112455  60.6944377  70.7053261 140.0599985  59.9654345  71.9539466
 144.7980558  60.0853816  81.4426288 144.7869198  59.6906614  80.5706791
 144.9601197  59.3519888  82.0360059 137.7212022  62.2805632  74.3121194
 138.5133314  61.9396457  73.8967493 137.9608672  62.3900607  75.2323347
 145.7547149  64.4525408  66.7851438 145.1035129  65.0379489  66.3985452
 146.5491512  64.9831603  66.8446476 139.6802776  61.5414545  67.1838572
 140.4533652  60.9943532  67.0451448 140.0328175  62.4058795  67.3953034
 141.5187819  62.8690928  80.3905472 141.2277685  63.7736558  80.2752138
 142.1544803  62.9107455  81.1049541 142.4444026  60.2467776  76.9806831
 143.0407598  60.0223799  76.2663794 142.5018997  59.5052522  77.5832279
 142.0169054  57.7007211  64.8157022 142.2694575  57.1788733  64.0540485
 141.0793613  57.5373357  64.9183706 147.0612337  56.7042990  72.6231766
 147.8475426  56.2862413  72.2722183 147.3251041  57.6089082  72.7913414
 147.2322414  62.1415840  67.3220422 146.5968247  62.2150467  68.0341327
 146.9019821  62.7309439  66.6439502 141.7365343  59.6035317  67.0181397
 141.6201601  58.9280221  67.6862482 141.8467603  59.1167691  66.2013550
 144.0796884  59.0645465  70.7228087 143.7155091  58.5376086  71.4341008
 144.9364000  58.6743934  70.5494572 143.7202371  54.0935364  65.7189435
 143.8876773  54.9615601  66.0859906 143.5299540  54.2562646  64.7950724
 146.4777704  62.5552343  77.3855265 146.1778427  63.4577382  77.2771073
 146.1328763  62.2884526  78.2376418 139.9290185  59.0066140  73.4191970
 139.0040682  58.8742354  73.6269662 140.1774598  59.7860359  73.9161912
 143.6991592  56.5493022  66.7036102 143.5791217  56.9950073  67.5421582
 143.0044180  56.8978339  66.1449640 137.2898996  58.6499414  74.2535759
 137.4191377  58.9033892  75.1675171 136.6096448  59.2427122  73.9340414
 141.4598484  69.3196664  70.3526233 141.3822513  70.2704489  70.4314714
 140.8560127  68.9742536  71.0101159 143.9515713  56.4924529  83.0087600
 143.1749047  57.0518449  82.9990465 144.5906276  56.9781312  83.5302470
 142.2062086  59.3009982  82.5705567 142.9476770  59.8395026  82.2940391
 141.4999071  59.9276271  82.7277119 144.0348495  56.3811730  78.5411285
 144.8809691  56.8051143  78.6845934 143.9747133  55.7245354  79.2349849
 147.1847941  54.0416098  80.1992459 146.9408873  54.7958158  79.6626735
 147.4607871  54.4201445  81.0339706 146.7412632  53.1972531  75.7806297
 145.8797111  53.4953784  76.0723034 146.7675067  53.4142930  74.8487329
 143.5574202  61.7414721  72.1880102 144.0212547  62.0202424  71.3984725
 143.2931000  60.8398166  72.0053193 140.4498283  61.2886203  75.1259866
 141.0199640  61.7173471  74.4877350 141.0406395  61.0068788  75.8244051
 142.4943088  57.8637874  68.9969668 143.1967131  58.3158918  69.4643594
 142.1623716  57.2221693  69.6249561 140.9423449  56.4549630  83.3720877
 140.3122110  57.1365911  83.6056274 140.8359537  56.3432712  82.4274015
 136.2368422  56.1221426  74.2986801 135.4467476  56.3778955  73.8226912
 136.7279669  56.9369764  74.4038842 138.1883167  56.4866006  71.2570278
 137.3914331  56.5984700  71.7753774 137.9608759  56.8252658  70.3911168
 144.0188835  63.0110709  79.2052792 144.0833267  63.4731116  80.0410964
 143.3099759  62.3808074  79.3335102 134.5206125  56.3751917  76.7301792
 134.7714163  57.2598927  76.9959368 135.0565673  56.1956518  75.9576884
 143.7336853  64.6778816  69.0731773 143.5982527  65.5230352  69.5016621
 144.2746665  64.8798094  68.3097707 140.2204192  50.7570396  85.7346128
 139.8271138  50.2036595  86.4093772 141.0370332  51.0680975  86.1252646
 137.1866250  62.1954254  69.6459698 137.6990770  62.9897505  69.7965263
 137.8388963  61.4980545  69.5793299 138.9961135  65.3120011  71.7282451
 139.1727763  66.2337975  71.5403435 139.7917968  64.9978430  72.1576831
 143.1372153  52.1728275  83.3266385 143.8781867  52.7735429  83.2470847
 143.3690076  51.4305913  82.7684427 138.2813491  57.3584643  81.6044614
 138.1667006  56.4569900  81.9051713 137.4258009  57.6048339  81.2529431
 145.3605329  65.3002383  83.2032115 144.9169183  64.5138762  82.8853019
 146.0222542  65.4881533  82.5376006 140.1192450  66.8298185  77.7292793
 140.6699875  66.7015248  76.9569787 139.2803926  67.1293074  77.3787686
 143.9159621  63.0949312  82.0737025 144.4487958  62.3337601  81.8436333
 143.3873702  62.8022964  82.8161179 147.0829316  48.2009378  77.6030666
 146.7393585  49.0911020  77.5269777 147.4508279  48.0111036  76.7400251
 135.1515167  60.5242909  70.4219268 135.9890389  60.9339917  70.2052976
 135.3293434  59.5842351  70.3919462 147.0479599  58.1917989  66.1103101
 146.5326222  58.9622594  66.3491489 146.7756907  57.5183126  66.7336163
 144.6326710  53.0367690  71.1688340 143.7768306  52.6474541  70.9893978
 145.0453662  53.1159651  70.3088125 146.1625856  50.5714034  75.5679900
 145.6590652  50.5344169  74.7547705 146.4556463  51.4806776  75.6276556
 142.4068742  50.6552763  74.5746081 143.2721739  50.4595572  74.2151971
 142.4746251  50.4263115  75.5015438 146.8365902  56.0645082  67.9362883
 146.5316038  56.3791231  68.7873026 147.7896344  56.1426501  67.9790216
 145.2812334  62.2235305  69.5855837 144.7533695  61.4888064  69.2729074
 144.7799837  63.0009981  69.3395805 140.0131061  52.8854971  71.9462448
 140.5874813  52.6630153  71.2135641 140.6002044  52.9543666  72.6991049
 140.3400649  54.9159432  65.9658333 139.5037961  55.2534119  66.2867608
 140.2005418  54.7808412  65.0285470 142.3153729  49.7596220  70.6737517
 141.6618141  49.4445237  70.0494132 142.2734203  49.1371961  71.3997340
 143.4264934  60.0415515  62.5890810 142.5191996  59.8104769  62.7881959
 143.9235966  59.2453134  62.7764791 146.3333013  68.7513022  65.5087496
 145.6594712  69.0544719  66.1172454 146.7198835  69.5542103  65.1592953
 145.5491470  56.2478154  74.9985165 144.6314031  56.4693101  74.8406853
 145.9651613  56.3224464  74.1396872 146.3326517  57.6469569  70.1287845
 147.0798336  58.1590966  69.8194967 146.6018107  57.3253622  70.9892239
 144.6053167  60.1428110  67.1114800 143.6964387  59.8587143  67.2087269
 144.6348251  60.5627189  66.2518107 135.1741338  57.8633624  71.0930002
 134.9765738  57.2702985  70.3681068 134.6188002  57.5585834  71.8105941
 143.1538061  57.7556731  73.2124595 143.2086671  56.8030567  73.1367072
 142.3429264  57.9116170  73.6965893 144.3029255  61.6836854  64.4502878
 143.8648685  60.9672713  63.9908516 145.0439696  61.9112968  63.8887970
 141.0930421  56.3733790  70.9714974 140.2798287  56.6727961  71.3780166
 141.5889416  55.9789479  71.6889456 143.2438999  66.3691547  72.9049239
 143.2015178  66.5952394  71.9757771 144.1601698  66.1354922  73.0535040
 146.6904633  56.8375615  79.8029868 147.0454021  57.0647088  80.6624334
 147.3376764  57.1693992  79.1807123 140.5844496  53.9452146  76.5876209
 141.2243875  53.8040905  75.8899172 139.7522027  53.6586659  76.2114811
 141.3604800  63.2454576  72.7011201 142.1545399  62.7504896  72.4993776
 140.6496492  62.7172439  72.3378907 146.1799645  65.6272672  77.0523569
 146.2336667  66.1963608  77.8201285 145.3114426  65.7974557  76.6877606
 137.6687564  57.3897658  68.7770954 136.7385152  57.3282114  68.9940916
 137.7645036  56.8673611  67.9807595 137.5873113  53.9152471  71.3649196
 137.8479930  54.8297804  71.2558356 138.4090285  53.4476913  71.5145808
 139.0598038  55.3290228  78.5348020 139.7321091  55.1207590  77.8860669
 138.2327824  55.1312314  78.0953252 144.9623610  51.9552169  80.5513681
 144.3151525  52.6542119  80.4578157 145.7324625  52.3888313  80.9189929
 145.1387744  59.7932934  78.6110501 146.0679804  59.9444093  78.4379468
 144.7178774  59.8816955  77.7559147 143.9376076  63.8183598  76.3809038
 143.7987162  63.4502383  77.2534977 143.1490672  64.3331238  76.2092996
 144.5324228  68.9192695  67.7234575 144.7075984  68.4480738  68.5380198
 143.8457016  69.5458461  67.9515836 145.4881291  63.1965201  73.7697876
 145.1531124  63.1565971  74.6655526 144.9885237  62.5309917  73.2968286
 139.4625535  58.6032831  79.2950457 139.3245333  57.8713070  79.8961996
 140.3730459  58.5141731  79.0134645 142.0907836  58.3152790  78.7834137
 142.8007454  57.6745983  78.7420755 142.0477144  58.5665685  79.7060318
 140.8036770  55.3018008  80.6029776 140.2674127  54.8508747  81.2551373
 140.2153478  55.4363917  79.8600241 139.0985313  72.0682058  74.4974435
 139.3381912  72.7000582  75.1753454 138.2554510  71.7170098  74.7839794
 140.2139029  54.7606660  63.1656240 139.3368495  54.6395460  62.8018487
 140.6896782  53.9692738  62.9135129 131.7341169  59.5483819  73.2597747
 132.4212209  59.2345549  72.6718763 131.5789298  60.4525184  72.9864999
 136.5375891  54.4374016  77.6882771 136.4534080  53.8299685  76.9533181
 135.7158597  54.9283034  77.6892267 143.6113175  67.8761180  76.9015939
 143.5383347  68.6816151  77.4135244 143.1690568  68.0753146  76.0763960
 143.4002955  67.1132950  70.4118761 142.6170477  67.6554630  70.5056985
 144.0995700  67.6306930  70.8113002 146.7099605  52.9227579  73.0552966
 147.2068304  52.1697542  72.7354036 145.9386586  52.9591896  72.4896175
 146.0711859  67.7748014  79.0574098 146.7839831  68.4095479  78.9849999
 145.5801887  67.8711880  78.2414100 143.2934574  55.0644962  72.7824651
 142.9232361  54.5116003  73.4705556 143.7893666  54.4603096  72.2299651
 141.1223772  65.5242457  79.8779669 141.8233232  66.1578940  80.0309063
 140.6518887  65.8657189  79.1175308 145.8832232  68.1146758  71.8060389
 146.0654627  67.2968414  72.2688142 146.7065218  68.3314450  71.3685279
 146.2174398  67.0414943  69.0675438 146.7462164  66.5307398  68.4545600
 146.4802617  66.7257473  69.9320971 144.9712631  58.8206876  84.1898256
 144.2953268  58.7201005  84.8600631 145.7940265  58.6646090  84.6534253
 136.7191490  65.0578812  76.8110771 137.3044927  64.3122500  76.9438675
 136.5216329  65.3682769  77.6947435 139.5730146  68.0930060  71.8273214
 138.9040521  68.5776188  71.3437254 139.4343015  68.3399280  72.7416592
 131.3109145  57.6284413  75.5315214 131.3493245  57.0948003  76.3252332
 130.8049438  57.1019618  74.9126192 143.7135414  70.1273803  78.4255872
 144.2653722  70.2905425  79.1904957 144.0541608  70.7178241  77.7535897
 138.6899907  52.4748953  79.0277757 138.7541234  53.3363784  78.6155154
 138.6267028  51.8622955  78.2950115 138.1652180  54.5472086  82.6750791
 138.7924219  54.1649163  83.2888315 137.3080099  54.3286288  83.0406483
 134.9417723  56.3548515  68.6069146 135.2371164  55.4459193  68.5536199
 134.0405758  56.3336254  68.2850148 146.8503801  68.0755779  75.4119554
 146.7254941  67.2745519  74.9030500 147.5082893  68.5701972  74.9233524
 138.4711970  54.4304511  74.5896694 137.7498555  55.0440479  74.4504168
 139.2605225  54.9662276  74.5113340 141.2738283  51.7658938  80.8637346
 141.7972685  52.0121234  81.6263655 141.0550616  52.5978973  80.4440483
 136.6705564  54.0362613  68.7308471 136.3418270  53.1559991  68.5483577
 137.0244935  53.9810281  69.6184860 145.9185143  65.6717515  73.2403456
 145.7710106  64.7434223  73.4211027 146.7438637  65.6937606  72.7560532
 139.7847387  54.3235582  69.0983949 140.1243460  54.8521504  68.3762557
 140.2319508  54.6615988  69.8742515 142.4790828  52.7072633  78.5487017
 142.1387649  51.9080446  78.9507697 141.7729834  53.0074344  77.9763850
 143.1307300  49.7921945  77.0014340 143.9533369  49.3182424  76.8793230
 143.3745364  50.5712429  77.5013026 141.7715535  52.8210204  67.2977241
 142.4923897  53.1991457  66.7940958 141.1480839  53.5399081  67.4012219
 145.9146657  53.5255353  68.2335574 146.1310272  54.4079991  67.9324402
 145.4340725  53.1341566  67.5041216 140.6545879  56.4841066  74.8106318
 140.5090459  56.7981369  75.7030600 140.1771082  57.1025966  74.2577217
 142.5142262  53.4743614  74.8587208 142.5003830  52.5784707  74.5219506
 143.2314690  53.4814278  75.4925494 144.3668392  53.9080954  76.9040335
 144.1086170  54.8298025  76.9024666 143.8353433  53.5111389  77.5940799
 135.1291541  59.0246410  77.7493979 134.5845009  59.8006218  77.8814254
 136.0070891  59.3717215  77.5913101 141.9179158  52.3557994  70.1274778
 142.0395069  51.4274641  70.3265665 141.6281200  52.3696680  69.2153093
 144.7870348  50.0412905  73.2641498 144.8092045  50.1052238  72.3093477
 145.2038407  49.2017413  73.4582004 135.9157563  58.1516307  80.6424136
 135.1739299  58.2998942  81.2288767 135.5950307  58.4124572  79.7790886
 143.8601225  67.6932285  80.4404526 144.1688352  67.4481432  81.3127226
 144.6576707  67.8978923  79.9523397 143.8821837  69.8470195  72.6709903
 143.4426828  69.3546573  73.3642760 144.6329954  69.3043162  72.4301978
 136.3614176  66.0381735  72.6734531 137.1872196  65.7385507  72.2933175
 136.0108228  65.2689358  73.1224320 141.3295710  65.3908204  74.7432205
 140.7075719  64.7278909  74.4434432 142.0000577  65.4169336  74.0605852
 134.5622782  63.9568062  73.6323465 133.7254690  63.5290236  73.4507466
 134.5346427  64.1500505  74.5694256 141.4020237  53.8689992  84.3364711
 141.4508393  54.7452115  83.9542480 141.9442751  53.3267385  83.7636354
 140.8909217  63.9412127  68.2190665 141.0397337  64.6247591  67.5657338
 141.6975660  63.9217217  68.7340121 143.6319526  54.6221364  81.0911069
 142.7622835  54.9154930  80.8193658 143.8679006  55.2061809  81.8118333
 138.6461850  59.9677305  69.2251734 138.4007891  59.0639635  69.4231944
 138.8157764  59.9694455  68.2831212 146.3358559  50.8400981  78.6076490
 146.8540503  51.5762008  78.2822978 145.9813692  51.1464974  79.4423249
 137.9157497  55.7005662  66.7237895 137.2226742  55.7750017  66.0677931
 137.6709249  54.9366006  67.2459412 146.5871154  47.2601264  74.1277386
 146.8672907  46.5924453  74.7537813 147.3721760  47.4530359  73.6152050
 144.3904622  66.4360257  65.6902413 143.8178589  67.0550445  65.2372884
 144.9637416  66.9859619  66.2242334 144.7751421  57.7721070  63.0318465
 145.7210525  57.6427278  63.1006883 144.3965666  57.0335732  63.5087893
 144.6590113  61.8238816  84.4919122 145.5793123  62.0017415  84.6859169
 144.6239696  60.8794862  84.3398821 142.9594338  55.6971047  62.9673350
 142.0525793  55.4004159  63.0436064 143.2370319  55.4000865  62.1007636
 133.8772278  57.0177410  73.4172397 133.5575062  56.1642718  73.1246771
 133.3305706  57.2325988  74.1730364 137.6552186  59.7339851  77.1341903
 137.8738195  60.6656959  77.1529937 138.0677959  59.3747825  77.9196707
 144.5756403  50.2407936  69.1217592 143.7657132  49.8955021  69.4972838
 145.2640820  49.9315480  69.7105203 146.5046952  49.3185983  70.7441888
 147.0577990  49.7381437  71.4031911 146.7417038  48.3921731  70.7864844
 142.5280051  55.3073057  86.5244652 142.4276778  56.2567414  86.4556743
 142.3101593  54.9791296  85.6520722 141.7293122  52.5557982  63.1085329
 142.5912286  52.8812880  63.3681147 141.9143467  51.7689478  62.5958395
 133.7460538  60.6380322  75.3865518 133.0524010  60.2234274  74.8735473
 134.4933529  60.6800858  74.7898937 142.3911321  58.7370196  85.3409714
 141.9078403  59.5370556  85.5473603 142.4772260  58.7478141  84.3877158
 135.6597281  60.5698575  73.2631533 135.6367969  60.6686263  72.3113416
 135.9697917  61.4163726  73.5848699 138.3184659  62.6274730  77.3778148
 139.2727912  62.5958673  77.3108079 138.1197182  62.1665354  78.1928373
 138.9084041  61.1975846  79.9448945 139.7276930  61.6919925  79.9683782
 139.1820848  60.2807815  79.9166513 136.6734887  68.1694350  74.3948345
 136.5389355  67.4094751  73.8286343 136.2566950  68.8935250  73.9277134
 139.8304013  69.0663667  74.6066788 139.7136397  70.0109099  74.5045478
 139.0096459  68.7637228  74.9952587 134.1618955  55.5313980  80.6441142
 134.8077818  55.0212934  81.1328367 133.9536106  56.2682662  81.2184568
 146.6872347  62.5994828  86.1433283 147.5563507  62.7735480  85.7819918
 146.2079099  63.4189245  86.0209012 142.6822565  49.7954025  66.3965038
 142.6701235  50.7395865  66.5533309 143.5745987  49.6124170  66.1024500
 140.8558527  69.7191929  77.8222716 141.7585774  69.7515539  78.1389211
 140.6295897  68.7892380  77.8369052 142.6112129  68.4722915  74.4832795
 141.6607760  68.4724777  74.3697167 142.9144615  67.7255650  73.9668830
 146.4974685  46.3896802  70.6510975 145.7307081  45.8355288  70.7967658
 146.9085390  46.4618670  71.5125127 138.5016446  52.6781597  84.7416157
 139.3647907  52.3218402  84.9519481 137.9281857  52.3395492  85.4291561
 147.0762176  71.4513344  74.2986801 146.2861230  71.7070873  73.8226912
 147.5673424  72.2661682  74.4038842 145.3599879  71.7043835  76.7301792
 145.6107918  72.5890845  76.9959368 145.8959428  71.5248436  75.9576884
 145.9908921  75.8534826  70.4219268 146.8284143  76.2631835  70.2052976
 146.1687189  74.9134269  70.3919462 146.0135092  73.1925542  71.0930002
 145.8159492  72.5994903  70.3681068 145.4581756  72.8877752  71.8105941
 142.5734923  74.8775737  73.2597747 143.2605963  74.5637467  72.6718763
 142.4183052  75.7817102  72.9864999 147.3769646  69.7665934  77.6882771
 147.2927834  69.1591603  76.9533181 146.5552352  70.2574952  77.6892267
 142.1502900  72.9576330  75.5315214 142.1886999  72.4239921  76.3252332
 141.6443192  72.4311536  74.9126192 145.7811477  71.6840433  68.6069146
 146.0764918  70.7751111  68.5536199 144.8799513  71.6628172  68.2850148
 145.9685295  74.3538328  77.7493979 145.4238763  75.1298136  77.8814254
 146.8464645  74.7009133  77.5913101 146.7551317  73.4808224  80.6424136
 146.0133053  73.6290860  81.2288767 146.4344062  73.7416490  79.7790886
 145.4016536  79.2859980  73.6323465 144.5648444  78.8582154  73.4507466
 145.3740181  79.4792423  74.5694256 144.7166033  72.3469328  73.4172397
 144.3968817  71.4934636  73.1246771 144.1699461  72.5617906  74.1730364
 144.5854293  75.9672239  75.3865518 143.8917764  75.5526192  74.8735473
 145.3327284  76.0092776  74.7898937 146.4991035  75.8990493  73.2631533
 146.4761723  75.9978180  72.3113416 146.8091672  76.7455644  73.5848699
 147.5128642  83.4986268  74.3948345 147.3783110  82.7386668  73.8286343
 147.0960704  84.2227167  73.9277134 145.0012709  70.8605898  80.6441142
 145.6471573  70.3504852  81.1328367 144.7929860  71.5974580  81.2184568
 119.7810976  15.6674951  57.0771540 119.7035006  16.6182776  57.1560020
 119.1772619  15.3220823  57.7346466 118.4404942  13.1776472  64.4538100
 118.9912367  13.0493535  63.6815094 117.6016418  13.4771361  64.1032993
 124.6545505  15.0991310  52.2332802 123.9807204  15.4023006  52.8417760
 125.0411327  15.9020390  51.8838259 122.8536720  15.2670982  54.4479882
 123.0288476  14.7959025  55.2625504 122.1669508  15.8936748  54.6761142
 117.4197806  18.4160345  61.2219742 117.6594404  19.0478869  61.8998760
 116.5767002  18.0648385  61.5085101 121.9325667  14.2239467  63.6261246
 121.8595839  15.0294439  64.1380550 121.4903061  14.4231433  62.8009267
 121.7215447  13.4611237  57.1364067 120.9382969  14.0032917  57.2302292
 122.4208192  13.9785217  57.5358308 124.3924351  14.1226301  65.7819404
 125.1052323  14.7573766  65.7095306 123.9014380  14.2190167  64.9659406
 117.8942638  14.4408347  58.5518520 117.2253013  14.9254475  58.0682560
 117.7555508  14.6877568  59.4661899 122.0347906  16.4752091  65.1501179
 122.5866214  16.6383712  65.9150264 122.3754100  17.0656528  64.4781203
 122.1813718  14.0410572  67.1649833 122.4900844  13.7959719  68.0372533
 122.9789200  14.2457211  66.6768703 122.2034330  16.1948482  59.3955210
 121.7639320  15.7024861  60.0888066 122.9542447  15.6521450  59.1547285
 114.6826669  12.3860023  59.3979838 115.5084689  12.0863795  59.0178481
 114.3320721  11.6167645  59.8469626 112.8835274  10.3046349  60.3568771
 112.0467182   9.8768524  60.1752772 112.8558919  10.4978793  61.2939562
 114.9947380  14.5172637  61.1193652 114.8601848  13.7573038  60.5531650
 114.5779442  15.2413537  60.6522441 118.1516505  15.4141954  61.3312095
 118.0348890  16.3587387  61.2290785 117.3308952  15.1115516  61.7197894
 119.1771020  16.0670216  64.5468023 120.0798266  16.0993826  64.8634518
 118.9508390  15.1370667  64.5614359 120.9324622  14.8201203  61.2078102
 119.9820253  14.8203064  61.0942474 121.2357108  14.0733937  60.6914136
 136.6677315  20.6561741  62.2723864 137.3055725  20.5368488  61.5687204
 136.5498158  21.6042585  62.3311816 133.4767021  20.6089169  62.2085389
 133.1385533  20.4930234  61.3205924 134.3456790  20.2080334  62.1886395
 129.3353837  22.4624645  58.1982280 128.7718702  22.3714582  57.4298568
 129.2206232  21.6424550  58.6784772 133.9586804  21.7624021  68.1671594
 133.9475445  21.3676819  67.2952098 134.1207444  21.0290093  68.7605366
 126.8818269  23.9575837  61.0366500 127.6739561  23.6166662  60.6212800
 127.1214919  24.0670812  61.9568654 134.9153396  26.1295613  53.5096745
 134.2641376  26.7149694  53.1230758 135.7097759  26.6601808  53.5691782
 128.8409023  23.2184750  53.9083879 129.6139899  22.6713737  53.7696755
 129.1934422  24.0829000  54.1198340 130.6794065  24.5461133  67.1150778
 130.3883931  25.4506763  66.9997445 131.3151050  24.5877660  67.8294848
 131.6050272  21.9237981  63.7052138 132.2013845  21.6994003  62.9909101
 131.6625244  21.1822727  64.3077586 131.1775301  19.3777416  51.5402329
 131.4300821  18.8558938  50.7785792 130.2399860  19.2143562  51.6429013
 136.3928661  23.8186045  54.0465729 135.7574494  23.8920672  54.7586634
 136.0626067  24.4079644  53.3684808 130.8971589  21.2805522  53.7426704
 130.7807848  20.6050426  54.4107788 131.0073849  20.7937896  52.9258857
 133.2403130  20.7415669  57.4473393 132.8761338  20.2146290  58.1586315
 134.0970246  20.3514139  57.2739879 135.6383951  24.2322548  64.1100572
 135.3384674  25.1347587  64.0016379 135.2935010  23.9654731  64.9621725
 129.0896432  20.6836345  60.1437276 128.1646929  20.5512559  60.3514968
 129.3380845  21.4630564  60.6407219 132.8597838  18.2263227  53.4281408
 132.7397463  18.6720277  54.2666889 132.1650427  18.5748544  52.8694947
 126.4505243  20.3269618  60.9781066 126.5797624  20.5804097  61.8920477
 125.7702694  20.9197326  60.6585721 130.6204730  30.9966868  57.0771540
 130.5428760  31.9474694  57.1560020 130.0166374  30.6512741  57.7346466
 133.1121960  18.1694734  69.7332907 132.3355294  18.7288654  69.7235771
 133.7512523  18.6551517  70.2547777 131.3668332  20.9780187  69.2950874
 132.1083017  21.5165231  69.0185697 130.6605318  21.6046476  69.4522425
 136.8423672  23.1209328  67.8923035 137.2507028  22.6791738  67.1477667
 136.1200934  22.5461955  68.1457228 133.1954742  18.0581934  65.2656592
 134.0415937  18.4821348  65.4091241 133.1353380  17.4015559  65.9595155
 137.1652487  23.6810518  61.6475324 136.5361349  23.8456232  60.9451392
 136.7778149  24.0952128  62.4186288 141.0441719  24.6164956  59.0019688
 140.3592757  24.9963858  58.4516721 141.1285568  25.2260283  59.7351636
 138.2992650  22.2624915  65.6015031 138.5109545  22.9056675  64.9249412
 138.2522398  21.4287232  65.1336961 132.7180449  23.4184926  58.9125409
 133.1818794  23.6972629  58.1230032 132.4537247  22.5168371  58.7298500
 129.6104530  22.9656408  61.8505172 130.1805887  23.3943676  61.2122657
 130.2012642  22.6838993  62.5489358 131.6549335  19.5408079  55.7214974
 132.3573378  19.9929122  56.1888901 131.3229963  18.8991898  56.3494867
 130.1029696  18.1319835  70.0966184 129.4728357  18.8136116  70.3301580
 129.9965784  18.0202917  69.1519322 125.3974669  17.7991631  61.0232108
 124.6073723  18.0549160  60.5472218 125.8885916  18.6139969  61.1284148
 139.4138478  25.1396871  63.7737389 140.2355922  24.7377058  63.4920070
 139.4100881  25.0365105  64.7253504 127.3489414  18.1636211  57.9815584
 126.5520577  18.2754905  58.4999080 127.1215006  18.5022863  57.1156475
 133.1795082  24.6880914  65.9298099 133.2439514  25.1501321  66.7656271
 132.4706006  24.0578279  66.0580409 123.6812372  18.0522122  63.4547099
 123.9320410  18.9369132  63.7204675 124.2171920  17.8726723  62.6822190
 132.8943099  26.3549021  55.7977079 132.7588774  27.2000557  56.2261927
 133.4352912  26.5568299  55.0343013 126.3472497  23.8724459  56.3705005
 126.8597017  24.6667710  56.5210569 126.9995210  23.1750750  56.3038606
 128.1567381  26.9890216  58.4527758 128.3334010  27.9108180  58.2648742
 128.9524215  26.6748635  58.8822138 127.4419738  19.0354848  68.3289921
 127.3273253  18.1340105  68.6297020 126.5864256  19.2818544  67.9774737
 134.5211576  26.9772588  69.9277422 134.0775430  26.1908966  69.6098326
 135.1828789  27.1651738  69.2621312 129.2798697  28.5068389  64.4538100
 129.8306122  28.3785453  63.6815094 128.4410173  28.8063279  64.1032993
 136.6192814  27.2575388  67.9558823 136.6011289  28.0784269  67.4639092
 137.5412734  27.1329463  68.1808964 133.0765868  24.7719517  68.7982331
 133.6094205  24.0107805  68.5681639 132.5479949  24.4793169  69.5406486
 124.3121413  22.2013114  57.1464575 125.1496635  22.6110122  56.9298283
 124.4899681  21.2612556  57.1164769 136.2085846  19.8688194  52.8348408
 135.6932469  20.6392799  53.0736795 135.9363154  19.1953331  53.4581469
 141.1820120  22.6220549  54.7701582 140.4049562  22.2831709  54.3256744
 141.8611601  22.6273172  54.0956547 134.4418581  23.9005510  56.3101143
 133.9139942  23.1658269  55.9974381 133.9406083  24.6780186  56.0641112
 139.4211427  22.0954530  61.4268189 138.7635101  22.7853792  61.5148318
 140.2251826  22.4850962  61.7702176 138.2316885  20.4498903  59.4772131
 138.7448767  21.0828895  59.9793841 138.8818109  19.8500098  59.1115491
 129.5006895  16.5929637  52.6903640 128.6644208  16.9304324  53.0112915
 129.3611665  16.4578617  51.7530777 132.5871181  21.7185720  49.3136116
 131.6798243  21.4874973  49.5127265 133.0842213  20.9223339  49.5010098
 135.4939260  30.4283227  52.2332802 134.8200958  30.7314924  52.8417760
 135.8805082  31.2312308  51.8838259 134.7097716  17.9248359  61.7230472
 133.7920278  18.1463306  61.5652160 135.1257860  17.9994669  60.8642179
 135.4932764  19.3239774  56.8533152 136.2404583  19.8361171  56.5440274
 135.7624354  19.0023827  57.7137546 133.7659414  21.8198315  53.8360106
 132.8570633  21.5357348  53.9332576 133.7954498  22.2397393  52.9763413
 138.9978682  25.4304904  57.6051274 138.5441009  24.5895814  57.6616464
 138.3672648  26.0666303  57.9426054 137.4411621  27.2681401  58.5401092
 137.7334595  27.8286458  57.8213458 137.9510241  27.5609962  59.2954251
 124.3347585  19.5403829  57.8175309 124.1371984  18.9473190  57.0926375
 123.7794249  19.2356039  58.5351247 132.3144308  19.4326936  59.9369902
 132.3692918  18.4800772  59.8612378 131.5035510  19.5886375  60.4211200
 133.4635502  23.3607059  51.1748185 133.0254932  22.6442918  50.7153822
 134.2045943  23.5883173  50.6133276 130.2536668  18.0503995  57.6960281
 129.4404534  18.3498166  58.1025473 130.7495662  17.6559684  58.4134763
 132.4045246  28.0461752  59.6294545 132.3621425  28.2722598  58.7003077
 133.3207945  27.8125127  59.7780346 135.8510880  18.5145820  66.5275174
 136.2060268  18.7417293  67.3869640 136.4983011  18.8464197  65.9052430
 141.5808617  21.6364256  57.2324503 141.4426515  21.8265852  56.3045693
 141.2244836  22.3983638  57.6892555 141.6077996  23.7040783  62.2435775
 142.0414503  23.6116072  63.0918829 142.3209577  23.6798283  61.6055791
 130.5211047  24.9224781  59.4256508 131.3151645  24.4275101  59.2239083
 129.8102739  24.3942644  59.0624214 135.3405891  27.3042877  63.7768876
 135.3942914  27.8733813  64.5446591 134.4720673  27.4744762  63.4122913
 126.8293810  19.0667863  55.5016261 125.8991398  19.0052318  55.7186223
 126.9251282  18.5443816  54.7052902 126.7479359  15.5922676  58.0894502
 127.0086177  16.5068009  57.9803663 127.5696532  15.1247118  58.2391115
 128.2204285  17.0060433  65.2593327 128.8927338  16.7977795  64.6105976
 127.3934071  16.8082519  64.8198559 142.4693546  23.7464483  64.7768660
 142.6629436  24.6510294  65.0227935 142.3694164  23.2871902  65.6107245
 137.5308655  23.8971226  70.3509541 137.3794161  23.6681778  69.4339625
 137.5213334  24.8541827  70.3640886 134.2993991  21.4703139  65.3355807
 135.2286051  21.6214298  65.1624775 133.8785021  21.5587160  64.4804454
 133.0982323  25.4953803  63.1054345 132.9593409  25.1272588  63.9780283
 132.3096919  26.0101443  62.9338303 133.6930475  30.5962900  54.4479882
 133.8682230  30.1250943  55.2625504 133.0063263  31.2228666  54.6761142
 134.6487538  24.8735406  60.4943183 134.3137371  24.8336176  61.3900833
 134.1491484  24.2080122  60.0213593 128.6231782  20.2803036  66.0195764
 128.4851580  19.5483275  66.6207303 129.5336705  20.1911936  65.7379952
 137.5846730  22.2191440  50.7680242 136.9675900  21.4938268  50.6713295
 137.1163218  22.9800801  50.4247317 131.2514083  19.9922995  65.5079444
 131.9613701  19.3516187  65.4666062 131.2083391  20.2435890  66.4305624
 139.2400861  26.9290349  68.4286023 139.1813407  26.2449569  67.7616606
 139.6420380  27.6709339  67.9766649 129.9643017  16.9788213  67.3275083
 129.4280374  16.5278952  67.9796679 129.3759725  17.1134122  66.5845547
 128.2591560  33.7452262  61.2219742 128.4988158  34.3770787  61.8998760
 127.4160757  33.3940302  61.5085101 139.2418269  24.8929933  66.6600003
 138.3545047  24.5555854  66.7826401 139.8116820  24.1612964  66.8968768
 120.8947416  21.2254024  59.9843054 121.5818456  20.9115754  59.3964069
 120.7395544  22.1295389  59.7110305 125.6982138  16.1144221  64.4128078
 125.6140327  15.5069890  63.6778488 124.8764844  16.6053239  64.4137574
 132.7719422  29.5531385  63.6261246 132.6989593  30.3586356  64.1380550
 132.3296815  29.7523351  62.8009267 132.5609202  28.7903155  57.1364067
 131.7776723  29.3324835  57.2302292 133.2601947  29.3077135  57.5358308
 135.2318105  29.4518219  65.7819404 135.9446078  30.0865684  65.7095306
 134.7408134  29.5482085  64.9659406 136.9535632  23.3569472  57.3536696
 136.0191911  23.4770934  57.1841400 137.1312301  22.4541938  57.0896706
 130.2830019  27.2012662  66.6024975 130.9839479  27.8349145  66.7554369
 129.8125134  27.5427394  65.8420614 138.4084415  25.5430612  54.8872882
 138.6844259  25.4287207  55.7966756 137.5388914  25.1448097  54.8485055
 135.0438479  29.7916963  58.5305696 135.2260873  28.9738619  58.9933448
 135.8671465  30.0084655  58.0930586 135.3780644  28.7185148  55.7920744
 135.9068411  28.2077603  55.1790906 135.6408864  28.4027678  56.6566277
 134.1318878  20.4977081  70.9143563 133.4559515  20.3971210  71.5845938
 134.9546512  20.3416295  71.3779560 125.8797737  26.7349017  63.5356078
 126.4651174  25.9892705  63.6683982 125.6822576  27.0452974  64.4192742
 128.7336392  29.7700265  58.5518520 128.0646768  30.2546392  58.0682560
 128.5949262  30.0169485  59.4661899 120.4715392  19.3054618  62.2560521
 120.5099491  18.7718208  63.0497639 119.9655685  18.7789823  61.6371498
 132.8741661  31.8044008  65.1501179 133.4259969  31.9675630  65.9150264
 133.2147854  32.3948446  64.4781203 127.3258427  16.2242291  69.3996098
 127.9530465  15.8419368  70.0133622 126.4686345  16.0056493  69.7651790
 137.7252535  26.6305266  71.0049833 138.2692439  27.2435224  70.5104788
 137.1439380  27.1884844  71.5216846 124.1023969  18.0318720  55.3314452
 124.3977410  17.1229398  55.2781506 123.2012005  18.0106459  55.0095455
 136.0110048  29.7525984  62.1364861 135.8861188  28.9515724  61.6275806
 136.6689139  30.2472177  61.6478831 127.6318216  16.1074716  61.3142001
 126.9104802  16.7210684  61.1749474 128.4211472  16.6432481  61.2358647
 138.0744957  27.5535004  63.7644411 137.1275292  27.4340355  63.6922738
 138.4227730  26.6657502  63.8470672 125.8311811  15.7132817  55.4553778
 125.5024517  14.8330196  55.2728883 126.1851182  15.6580486  56.3430167
 135.0791390  27.3487720  59.9648763 134.9316352  26.4204428  60.1456333
 135.9044883  27.3707811  59.4805838 128.9453634  16.0005787  55.8229255
 129.2849707  16.5291708  55.1007864 129.3925755  16.3386193  56.5987822
 138.6825512  28.1716279  61.0513636 139.6072059  27.9659140  60.9138087
 138.5140815  27.9232680  61.9602977 129.8152126  18.1611271  61.5351625
 129.6696706  18.4751574  62.4275906 129.3377329  18.7796171  60.9822524
 138.4720828  28.6901946  56.4075727 138.6457705  28.1248369  55.6549580
 138.9649719  29.4902841  56.2255217 124.2897788  20.7016615  64.4739286
 123.7451256  21.4776423  64.6059560 125.1677138  21.0487420  64.3158408
 139.4596000  28.0068711  53.5072626 140.1546905  28.6275403  53.7259940
 139.8019151  27.1564062  53.7825003 125.0763810  19.8286512  67.3669443
 124.3345546  19.9769147  67.9534073 124.7556554  20.0894777  66.5036192
 141.3587424  25.4568416  55.0359956 141.8838748  25.7955689  54.3109276
 141.2709776  24.5215432  54.8523091 133.0207472  29.3702490  67.1649833
 133.3294599  29.1251637  68.0372533 133.8182954  29.5749128  66.6768703
 133.0428084  31.5240400  59.3955210 132.6033075  31.0316778  60.0888066
 133.7936201  30.9813367  59.1547285 125.5220423  27.7151940  59.3979838
 126.3478443  27.4155712  59.0178481 125.1714475  26.9459563  59.8469626
 130.4901956  27.0678409  61.4677511 129.8681966  26.4049114  61.1679739
 131.1606823  27.0939541  60.7851159 123.7229028  25.6338267  60.3568771
 122.8860937  25.2060441  60.1752772 123.6952674  25.8270710  61.2939562
 141.0481330  26.0901320  70.3411154 140.2576873  26.0725459  69.8015654
 140.8114684  26.6289614  71.0960191 141.1679205  22.9393786  67.6543883
 141.2177210  22.7743794  68.5959406 141.0593128  22.0721045  67.2641764
 130.0515463  25.6182332  54.9435972 130.2003584  26.3017796  54.2902644
 130.8581907  25.5987422  55.4585427 142.6697401  25.3590728  67.8985904
 142.3782210  25.7220708  68.7349365 142.0569533  24.6457736  67.7199236
 143.8693084  22.9243608  60.4188475 144.7039975  23.3633412  60.5826035
 144.0052213  22.4482261  59.5996720 140.9184590  20.4823342  66.3665962
 141.3938711  20.6750989  65.5584814 139.9950155  20.5382528  66.1209346
 127.8068096  21.6447510  55.9497041 127.5614138  20.7409840  56.1477251
 127.9764011  21.6464660  55.0076519 127.0763744  17.3775867  53.4483202
 126.3832989  17.4520222  52.7923238 126.8315496  16.6136211  53.9704719
 133.5510869  28.1130462  52.4147719 132.9784836  28.7320650  51.9618191
 134.1243663  28.6629824  52.9487641 136.7708129  28.3967613  53.5456301
 137.7038802  28.3313174  53.7489177 136.6831341  29.2323879  53.0870834
 139.3996145  27.7133483  50.5060249 139.3209777  27.3793346  51.3996007
 140.2205812  28.2055251  50.5051721 133.9357667  19.4491275  49.7563772
 134.8816772  19.3197483  49.8252190 133.5571912  18.7105937  50.2333200
 133.8196360  23.5009021  71.2164429 134.7399369  23.6787620  71.4104475
 133.7845943  22.5565067  71.0644128 132.1200584  17.3741252  49.6918657
 131.2132040  17.0774364  49.7681370 132.3976565  17.0771070  48.8252943
 123.0378525  18.6947615  60.1417703 122.7181309  17.8412923  59.8492077
 122.4911953  18.9096193  60.8975671 126.8158432  21.4110056  63.8587210
 127.0344442  22.3427164  63.8775244 127.2284206  21.0518030  64.6442014
 131.6886298  16.9843262  73.2489959 131.5883025  17.9337619  73.1802050
 131.4707840  16.6561501  72.3766029 122.9066785  22.3150526  62.1110825
 122.2130256  21.9004479  61.5980779 123.6539776  22.3571063  61.5144244
 131.5517568  20.4140401  72.0655020 131.0684649  21.2140761  72.2718909
 131.6378507  20.4248345  71.1122464 124.8203527  22.2468780  59.9876840
 124.7974216  22.3456468  59.0358723 125.1304164  23.0933931  60.3094006
 127.4790905  24.3044935  64.1023454 128.4334159  24.2728878  64.0353386
 127.2803429  23.8435559  64.9173680 128.0690287  22.8746051  66.6694252
 128.8883176  23.3690130  66.6929089 128.3427095  21.9578019  66.6411819
 125.8341134  29.8464555  61.1193652 125.6995602  29.0864956  60.5531650
 125.4173196  30.5705455  60.6522441 136.9700097  25.0301478  50.1270227
 137.6735947  25.2351481  50.7427883 136.2462746  25.5978240  50.3919311
 137.7997907  20.7811340  56.2472497 137.7433109  21.2379891  55.4080130
 138.3526250  20.0202024  56.0695340 128.9910260  30.7433872  61.3312095
 128.8742644  31.6879304  61.2290785 128.1702706  30.4407433  61.7197894
 138.8786794  25.4684007  52.1768687 139.7132398  25.0365206  51.9946162
 138.7171137  25.2966021  53.1045582 138.5332687  21.9716121  53.5425027
 138.4781490  21.8060392  52.6013471 137.9078742  22.6792154  53.6987216
 123.3225202  17.2084185  67.3686449 123.9684065  16.6983139  67.8573674
 123.1142353  17.9452867  67.9429874 135.8478594  24.2765033  72.8678589
 136.7169753  24.4505685  72.5065224 135.3685345  25.0959449  72.7454319
 130.0164774  31.3962134  64.5468023 130.9192021  31.4285744  64.8634518
 129.7902144  30.4662585  64.5614359 131.7718376  30.1493120  61.2078102
 130.8214007  30.1494982  61.0942474 132.0750862  29.4025855  60.6914136
 144.3160776  35.9381087  62.2085389 143.9779287  35.8222151  61.3205924
 145.1850544  35.5372252  62.1886395 140.1747592  37.7916563  58.1982280
 139.6112457  37.7006500  57.4298568 140.0599987  36.9716468  58.6784772
 144.7980559  37.0915938  68.1671594 144.7869200  36.6968737  67.2952098
 144.9601198  36.3582011  68.7605366 137.7212023  39.2867755  61.0366500
 138.5133315  38.9458579  60.6212800 137.9608674  39.3962730  61.9568654
 145.7547150  41.4587531  53.5096745 145.1035130  42.0441611  53.1230758
 146.5491513  41.9893726  53.5691782 139.6802777  38.5476668  53.9083879
 140.4533653  38.0005655  53.7696755 140.0328176  39.4120917  54.1198340
 141.5187820  39.8753050  67.1150778 141.2277686  40.7798681  66.9997445
 142.1544804  39.9169578  67.8294848 142.4444027  37.2529899  63.7052138
 143.0407599  37.0285921  62.9909101 142.5018998  36.5114644  64.3077586
 142.0169055  34.7069334  51.5402329 142.2694576  34.1850855  50.7785792
 141.0793614  34.5435480  51.6429013 147.0612338  33.7105112  59.3477072
 147.8475427  33.2924536  58.9967489 147.3251042  34.6151205  59.5158721
 147.2322415  39.1477963  54.0465729 146.5968248  39.2212589  54.7586634
 146.9019822  39.7371562  53.3684808 141.7365344  36.6097440  53.7426704
 141.6201602  35.9342343  54.4107788 141.8467604  36.1229814  52.9258857
 144.0796885  36.0707587  57.4473393 143.7155092  35.5438208  58.1586315
 144.9364001  35.6806056  57.2739879 143.7202372  31.0997487  52.4434742
 143.8876774  31.9677723  52.8105213 143.5299541  31.2624769  51.5196031
 146.4777705  39.5614466  64.1100572 146.1778428  40.4639505  64.0016379
 146.1328765  39.2946649  64.9621725 139.9290187  36.0128263  60.1437276
 139.0040683  35.8804477  60.3514968 140.1774600  36.7922482  60.6407219
 143.6991593  33.5555144  53.4281408 143.5791218  34.0012195  54.2666889
 143.0044181  33.9040462  52.8694947 137.2898998  35.6561536  60.9781066
 137.4191379  35.9096015  61.8920477 136.6096449  36.2489244  60.6585721
 141.4598485  46.3258786  57.0771540 141.3822515  47.2766611  57.1560020
 140.8560128  45.9804659  57.7346466 143.9515715  33.4986652  69.7332907
 143.1749049  34.0580572  69.7235771 144.5906278  33.9843435  70.2547777
 142.2062087  36.3072105  69.2950874 142.9476771  36.8457149  69.0185697
 141.4999072  36.9338394  69.4522425 144.0348497  33.3873852  65.2656592
 144.8809692  33.8113266  65.4091241 143.9747134  32.7307476  65.9595155
 147.1847942  31.0478220  66.9237766 146.9408874  31.8020281  66.3872041
 147.4607872  31.4263568  67.7585013 146.7412634  30.2034653  62.5051603
 145.8797113  30.5015907  62.7968341 146.7675068  30.4205052  61.5732636
 143.5574203  38.7476844  58.9125409 144.0212549  39.0264547  58.1230032
 143.2931001  37.8460289  58.7298500 140.4498284  38.2948326  61.8505172
 141.0199641  38.7235594  61.2122657 141.0406396  38.0130910  62.5489358
 142.4943089  34.8699996  55.7214974 143.1967133  35.3221040  56.1888901
 142.1623718  34.2283815  56.3494867 140.9423451  33.4611753  70.0966184
 140.3122111  34.1428034  70.3301580 140.8359539  33.3494835  69.1519322
 136.2368423  33.1283549  61.0232108 135.4467477  33.3841078  60.5472218
 136.7279670  33.9431887  61.1284148 138.1883169  33.4928128  57.9815584
 137.3914332  33.6046823  58.4999080 137.9608761  33.8314781  57.1156475
 144.0188836  40.0172832  65.9298099 144.0833269  40.4793239  66.7656271
 143.3099760  39.3870196  66.0580409 134.5206126  33.3814040  63.4547099
 134.7714165  34.2661049  63.7204675 135.0565675  33.2018641  62.6822190
 143.7336854  41.6840939  55.7977079 143.5982529  42.5292475  56.2261927
 144.2746666  41.8860217  55.0343013 140.2204193  27.7632519  72.4591435
 139.8271139  27.2098717  73.1339079 141.0370334  28.0743097  72.8497952
 137.1866251  39.2016377  56.3705005 137.6990772  39.9959627  56.5210569
 137.8388964  38.5042668  56.3038606 138.9961136  42.3182133  58.4527758
 139.1727764  43.2400098  58.2648742 139.7917969  42.0040553  58.8822138
 143.1372154  29.1790398  70.0511691 143.8781868  29.7797551  69.9716154
 143.3690077  28.4368036  69.4929734 138.2813492  34.3646765  68.3289921
 138.1667008  33.4632022  68.6297020 137.4258010  34.6110462  67.9774737
 145.3605330  42.3064506  69.9277422 144.9169184  41.5200884  69.6098326
 146.0222544  42.4943656  69.2621312 140.1192451  43.8360307  64.4538100
 140.6699876  43.7077371  63.6815094 139.2803927  44.1355196  64.1032993
 143.9159622  40.1011435  68.7982331 144.4487959  39.3399723  68.5681639
 143.3873703  39.8085087  69.5406486 147.0829317  25.2071501  64.3275973
 146.7393587  26.0973143  64.2515084 147.4508280  25.0173159  63.4645558
 135.1515168  37.5305031  57.1464575 135.9890390  37.9402040  56.9298283
 135.3293436  36.5904474  57.1164769 147.0479600  35.1980112  52.8348408
 146.5326224  35.9684717  53.0736795 146.7756909  34.5245248  53.4581469
 144.6326711  30.0429813  57.8933646 143.7768307  29.6536663  57.7139285
 145.0453663  30.1221774  57.0333432 146.1625858  27.5776156  62.2925206
 145.6590653  27.5406291  61.4793011 146.4556465  28.4868899  62.3521863
 142.4068744  27.6614886  61.2991388 143.2721740  27.4657694  60.9397277
 142.4746253  27.4325238  62.2260745 146.8365903  33.0707204  54.6608189
 146.5316039  33.3853353  55.5118332 147.7896345  33.1488624  54.7035522
 145.2812335  39.2297427  56.3101143 144.7533697  38.4950187  55.9974381
 144.7799838  40.0072104  56.0641112 140.0131063  29.8917094  58.6707755
 140.5874815  29.6692275  57.9380948 140.6002045  29.9605788  59.4236356
 140.3400650  31.9221555  52.6903640 139.5037962  32.2596241  53.0112915
 140.2005419  31.7870535  51.7530777 142.3153730  26.7658343  57.3982824
 141.6618143  26.4507360  56.7739439 142.2734205  26.1434083  58.1242647
 143.4264935  37.0477638  49.3136116 142.5191997  36.8166891  49.5127265
 143.9235967  36.2515257  49.5010098 146.3333014  45.7575145  52.2332802
 145.6594713  46.0606842  52.8417760 146.7198836  46.5604225  51.8838259
 145.5491471  33.2540276  61.7230472 144.6314032  33.4755223  61.5652160
 145.9651614  33.3286587  60.8642179 146.3326519  34.6531692  56.8533152
 147.0798337  35.1653089  56.5440274 146.6018108  34.3315745  57.7137546
 144.6053169  37.1490233  53.8360106 143.6964388  36.8649265  53.9332576
 144.6348253  37.5689311  52.9763413 135.1741339  34.8695747  57.8175309
 134.9765739  34.2765107  57.0926375 134.6188003  34.5647957  58.5351247
 143.1538063  34.7618853  59.9369902 143.2086673  33.8092690  59.8612378
 142.3429265  34.9178292  60.4211200 144.3029257  38.6898976  51.1748185
 143.8648686  37.9734835  50.7153822 145.0439697  38.9175091  50.6133276
 141.0930423  33.3795913  57.6960281 140.2798288  33.6790083  58.1025473
 141.5889417  32.9851602  58.4134763 143.2439001  43.3753670  59.6294545
 143.2015179  43.6014516  58.7003077 144.1601699  43.1417044  59.7780346
 146.6904634  33.8437737  66.5275174 147.0454022  34.0709211  67.3869640
 147.3376766  34.1756114  65.9052430 140.5844497  30.9514268  63.3121515
 141.2243877  30.8103028  62.6144479 139.7522028  30.6648782  62.9360117
 141.3604801  40.2516699  59.4256508 142.1545400  39.7567019  59.2239083
 140.6496494  39.7234562  59.0624214 146.1799646  42.6334794  63.7768876
 146.2336668  43.2025731  64.5446591 145.3114427  42.8036679  63.4122913
 137.6687565  34.3959781  55.5016261 136.7385153  34.3344236  55.7186223
 137.7645037  33.8735733  54.7052902 137.5873114  30.9214593  58.0894502
 137.8479931  31.8359927  57.9803663 138.4090286  30.4539036  58.2391115
 139.0598039  32.3352351  65.2593327 139.7321093  32.1269713  64.6105976
 138.2327826  32.1374437  64.8198559 144.9623611  28.9614292  67.2758988
 144.3151526  29.6604241  67.1823464 145.7324627  29.3950435  67.6435236
 145.1387746  36.7995056  65.3355807 146.0679806  36.9506216  65.1624775
 144.7178776  36.8879077  64.4804454 143.9376077  40.8245721  63.1054345
 143.7987163  40.4564505  63.9780283 143.1490674  41.3393360  62.9338303
 144.5324229  45.9254817  54.4479882 144.7075985  45.4542861  55.2625504
 143.8457017  46.5520584  54.6761142 145.4881292  40.2027324  60.4943183
 145.1531125  40.1628094  61.3900833 144.9885238  39.5372039  60.0213593
 139.4625536  35.6094954  66.0195764 139.3245334  34.8775192  66.6207303
 140.3730460  35.5203854  65.7379952 142.0907837  35.3214913  65.5079444
 142.8007456  34.6808105  65.4666062 142.0477145  35.5727808  66.4305624
 140.8036771  32.3080131  67.3275083 140.2674128  31.8570869  67.9796679
 140.2153480  32.4426040  66.5845547 139.0985315  49.0744180  61.2219742
 139.3381913  49.7062704  61.8998760 138.2554511  48.7232220  61.5085101
 140.2139030  31.7668782  49.8901547 139.3368496  31.6457583  49.5263793
 140.6896783  30.9754861  49.6380435 131.7341170  36.5545942  59.9843054
 132.4212210  36.2407672  59.3964069 131.5789299  37.4587307  59.7110305
 136.5375892  31.4436138  64.4128078 136.4534081  30.8361808  63.6778488
 135.7158599  31.9345157  64.4137574 143.6113176  44.8823303  63.6261246
 143.5383348  45.6878274  64.1380550 143.1690570  45.0815268  62.8009267
 143.4002956  44.1195073  57.1364067 142.6170478  44.6616753  57.2302292
 144.0995701  44.6369052  57.5358308 146.7099606  29.9289702  59.7798273
 147.2068306  29.1759664  59.4599343 145.9386588  29.9654019  59.2141482
 146.0711860  44.7810137  65.7819404 146.7839832  45.4157601  65.7095306
 145.5801889  44.8774003  64.9659406 143.2934575  32.0707085  59.5069957
 142.9232362  31.5178125  60.1950863 143.7893667  31.4665218  58.9544957
 141.1223774  42.5304580  66.6024975 141.8233233  43.1641063  66.7554369
 140.6518888  42.8719312  65.8420614 145.8832233  45.1208881  58.5305696
 146.0654628  44.3030537  58.9933448 146.7065219  45.3376573  58.0930586
 146.2174399  44.0477066  55.7920744 146.7462165  43.5369520  55.1790906
 146.4802618  43.7319596  56.6566277 144.9712632  35.8268999  70.9143563
 144.2953270  35.7263128  71.5845938 145.7940266  35.6708212  71.3779560
 136.7191492  42.0640935  63.5356078 137.3044928  41.3184623  63.6683982
 136.5216330  42.3744892  64.4192742 139.5730147  45.0992182  58.5518520
 138.9040522  45.5838310  58.0682560 139.4343016  45.3461403  59.4661899
 131.3109146  34.6346535  62.2560521 131.3493246  34.1010126  63.0497639
 130.8049439  34.1081741  61.6371498 143.7135415  47.1335926  65.1501179
 144.2653723  47.2967547  65.9150264 144.0541609  47.7240364  64.4781203
 138.6899909  29.4811076  65.7523063 138.7541235  30.3425907  65.3400461
 138.6267029  28.8685077  65.0195422 138.1652181  31.5534208  69.3996098
 138.7924220  31.1711286  70.0133622 137.3080100  31.3348410  69.7651790
 134.9417724  33.3610637  55.3314452 135.2371165  32.4521316  55.2781506
 134.0405760  33.3398377  55.0095455 146.8503803  45.0817902  62.1364861
 146.7254942  44.2807641  61.6275806 147.5082894  45.5764095  61.6478831
 138.4711971  31.4366634  61.3142001 137.7498557  32.0502602  61.1749474
 139.2605227  31.9724399  61.2358647 141.2738284  28.7721061  67.5882653
 141.7972686  29.0183357  68.3508962 141.0550618  29.6041095  67.1685790
 136.6705565  31.0424735  55.4553778 136.3418272  30.1622114  55.2728883
 137.0244936  30.9872404  56.3430167 145.9185144  42.6779638  59.9648763
 145.7710107  41.7496345  60.1456333 146.7438638  42.6999729  59.4805838
 139.7847389  31.3297705  55.8229255 140.1243461  31.8583626  55.1007864
 140.2319509  31.6678111  56.5987822 142.4790829  29.7134756  65.2732323
 142.1387650  28.9142569  65.6753003 141.7729836  30.0136466  64.7009156
 143.1307301  26.7984068  63.7259646 143.9533371  26.3244546  63.6038537
 143.3745365  27.5774552  64.2258333 141.7715536  29.8272326  54.0222548
 142.4923898  30.2053579  53.5186265 141.1480840  30.5461203  54.1257526
 145.9146659  30.5317475  54.9580880 146.1310273  31.4142113  54.6569708
 145.4340726  30.1403689  54.2286522 140.6545880  33.4903189  61.5351625
 140.5090461  33.8043492  62.4275906 140.1771084  34.1088089  60.9822524
 142.5142263  30.4805737  61.5832514 142.5003832  29.5846830  61.2464812
 143.2314691  30.4876400  62.2170801 144.3668394  30.9143077  63.6285642
 144.1086171  31.8360148  63.6269972 143.8353434  30.5173511  64.3186106
 135.1291542  36.0308533  64.4739286 134.5845010  36.8068341  64.6059560
 136.0070892  36.3779338  64.3158408 141.9179159  29.3620117  56.8520085
 142.0395070  28.4336763  57.0510972 141.6281201  29.3758803  55.9398400
 144.7870349  27.0475027  59.9886804 144.8092046  27.1114360  59.0338784
 145.2038408  26.2079536  60.1827311 135.9157564  35.1578429  67.3669443
 135.1739300  35.3061065  67.9534073 135.5950308  35.4186695  66.5036192
 143.8601227  44.6994408  67.1649833 144.1688353  44.4543554  68.0372533
 144.6576709  44.9041046  66.6768703 143.8821839  46.8532317  59.3955210
 143.4426829  46.3608696  60.0888066 144.6329956  46.3105285  59.1547285
 136.3614178  43.0443858  59.3979838 137.1872198  42.7447630  59.0178481
 136.0108230  42.2751481  59.8469626 141.3295711  42.3970326  61.4677511
 140.7075720  41.7341031  61.1679739 142.0000578  42.4231458  60.7851159
 134.5622783  40.9630185  60.3568771 133.7254691  40.5352359  60.1752772
 134.5346428  41.1562628  61.2939562 141.4020238  30.8752114  71.0610017
 141.4508394  31.7514237  70.6787787 141.9442753  30.3329507  70.4881660
 140.8909218  40.9474250  54.9435972 141.0397338  41.6309714  54.2902644
 141.6975661  40.9279340  55.4585427 143.6319527  31.6283487  67.8156376
 142.7622836  31.9217053  67.5438964 143.8679007  32.2123932  68.5363640
 138.6461851  36.9739427  55.9497041 138.4007893  36.0701757  56.1477251
 138.8157765  36.9756578  55.0076519 146.3358561  27.8463104  65.3321796
 146.8540505  28.5824131  65.0068285 145.9813693  28.1527097  66.1668555
 137.9157498  32.7067785  53.4483202 137.2226743  32.7812140  52.7923238
 137.6709250  31.9428128  53.9704719 146.5871155  24.2663386  60.8522693
 146.8672909  23.5986575  61.4783119 147.3721762  24.4592482  60.3397357
 144.3904623  43.4422380  52.4147719 143.8178590  44.0612567  51.9618191
 144.9637417  43.9921742  52.9487641 144.7751422  34.7783193  49.7563772
 145.7210527  34.6489401  49.8252190 144.3965667  34.0397855  50.2333200
 144.6590114  38.8300939  71.2164429 145.5793124  39.0079538  71.4104475
 144.6239697  37.8856984  71.0644128 142.9594339  32.7033169  49.6918657
 142.0525794  32.4066282  49.7681370 143.2370320  32.4062987  48.8252943
 133.8772279  34.0239533  60.1417703 133.5575064  33.1704841  59.8492077
 133.3305708  34.2388111  60.8975671 137.6552187  36.7401974  63.8587210
 137.8738197  37.6719081  63.8775244 138.0677961  36.3809948  64.6442014
 144.5756405  27.2470059  55.8462898 143.7657133  26.9017144  56.2218144
 145.2640822  26.9377603  56.4350510 146.5046953  26.3248106  57.4687195
 147.0577992  26.7443559  58.1277218 146.7417039  25.3983854  57.5110151
 142.5280052  32.3135179  73.2489959 142.4276779  33.2629536  73.1802050
 142.3101594  31.9853418  72.3766029 141.7293124  29.5620104  49.8330636
 142.5912288  29.8875003  50.0926453 141.9143468  28.7751600  49.3203702
 133.7460539  37.6442444  62.1110825 133.0524011  37.2296397  61.5980779
 134.4933530  37.6862981  61.5144244 142.3911322  35.7432318  72.0655020
 141.9078404  36.5432678  72.2718909 142.4772261  35.7540263  71.1122464
 135.6597282  37.5760698  59.9876840 135.6367970  37.6748385  59.0358723
 135.9697918  38.4225849  60.3094006 138.3184660  39.6336853  64.1023454
 139.2727913  39.6020795  64.0353386 138.1197183  39.1727477  64.9173680
 138.9084042  38.2037969  66.6694252 139.7276931  38.6982048  66.6929089
 139.1820850  37.2869937  66.6411819 136.6734889  45.1756472  61.1193652
 136.5389356  44.4156873  60.5531650 136.2566951  45.8997372  60.6522441
 139.8304014  46.0725789  61.3312095 139.7136399  47.0171222  61.2290785
 139.0096461  45.7699351  61.7197894 134.1618956  32.5376103  67.3686449
 134.8077820  32.0275057  67.8573674 133.9536107  33.2744784  67.9429874
 146.6872348  39.6056950  72.8678589 147.5563508  39.7797603  72.5065224
 146.2079100  40.4251367  72.7454319 142.6822567  26.8016147  53.1210345
 142.6701236  27.7457987  53.2778616 143.5745988  26.6186293  52.8269806
 140.8558529  46.7254051  64.5468023 141.7585775  46.7577662  64.8634518
 140.6295899  45.7954502  64.5614359 142.6112131  45.4785038  61.2078102
 141.6607762  45.4786899  61.0942474 142.9144617  44.7317772  60.6914136
 146.4974686  23.3958924  57.3756282 145.7307082  22.8417411  57.5212964
 146.9085391  23.4680793  58.2370434 138.5016447  29.6843720  71.4661463
 139.3647909  29.3280525  71.6764788 137.9281858  29.3457615  72.1536867
 147.0762178  48.4575467  61.0232108 146.2861232  48.7132995  60.5472218
 147.5673425  49.2723805  61.1284148 145.3599881  48.7105957  63.4547099
 145.6107919  49.5952967  63.7204675 145.8959429  48.5310559  62.6822190
 145.9908922  52.8596949  57.1464575 146.8284144  53.2693957  56.9298283
 146.1687190  51.9196391  57.1164769 146.0135094  50.1987664  57.8175309
 145.8159493  49.6057025  57.0926375 145.4581758  49.8939875  58.5351247
 142.5734925  51.8837860  59.9843054 143.2605964  51.5699590  59.3964069
 142.4183053  52.7879224  59.7110305 147.3769647  46.7728056  64.4128078
 147.2927836  46.1653726  63.6778488 146.5552353  47.2637074  64.4137574
 142.1502901  49.9638453  62.2560521 142.1887000  49.4302044  63.0497639
 141.6443194  49.4373658  61.6371498 145.7811478  48.6902555  55.3314452
 146.0764919  47.7813234  55.2781506 144.8799514  48.6690295  55.0095455
 145.9685297  51.3600451  64.4739286 145.4238765  52.1360259  64.6059560
 146.8464647  51.7071255  64.3158408 146.7551319  50.4870347  67.3669443
 146.0133055  50.6352982  67.9534073 146.4344063  50.7478613  66.5036192
 145.4016537  56.2922102  60.3568771 144.5648446  55.8644277  60.1752772
 145.3740183  56.4854546  61.2939562 144.7166034  49.3531450  60.1417703
 144.3968818  48.4996759  59.8492077 144.1699462  49.5680028  60.8975671
 144.5854294  52.9734362  62.1110825 143.8917765  52.5588315  61.5980779
 145.3327285  53.0154898  61.5144244 146.4991036  52.9052616  59.9876840
 146.4761724  53.0040303  59.0358723 146.8091673  53.7517766  60.3094006
 147.5128643  60.5048390  61.1193652 147.3783111  59.7448791  60.5531650
 147.0960705  61.2289290  60.6522441 145.0012711  47.8668021  67.3686449
 145.6471574  47.3566975  67.8573674 144.7929862  48.6036702  67.9429874
 141.4598486  23.3320909  43.8016846 141.3822516  24.2828734  43.8805327
 140.8560130  22.9866781  44.4591773 140.1192453  20.8422430  51.1783407
 140.6699878  20.7139493  50.4060401 139.2803928  21.1417319  50.8278299
 144.5324231  22.9316940  41.1725188 144.7075986  22.4604983  41.9870811
 143.8457019  23.5582706  41.4006449 139.0985316  26.0806303  47.9465048
 139.3381914  26.7124827  48.6244067 138.2554512  25.7294343  48.2330408
 143.6113178  21.8885425  50.3506552 143.5383349  22.6940397  50.8625857
 143.1690571  22.0877391  49.5254574 143.4002957  21.1257195  43.8609374
 142.6170479  21.6678875  43.9547598 144.0995703  21.6431175  44.2603615
 146.0711861  21.7872259  52.5064711 146.7839833  22.4219724  52.4340612
 145.5801890  21.8836125  51.6904713 139.5730148  22.1054305  45.2763827
 138.9040523  22.5900433  44.7927867 139.4343018  22.3523526  46.1907205
 143.7135417  24.1398049  51.8746485 144.2653725  24.3029670  52.6395570
 144.0541610  24.7302486  51.2026510 143.8601228  21.7056530  53.8895140
 144.1688354  21.4605677  54.7617839 144.6576710  21.9103169  53.4014010
 143.8821840  23.8594440  46.1200516 143.4426830  23.3670819  46.8133373
 144.6329957  23.3167407  45.8792591 136.3614179  20.0505981  46.1225144
 137.1872199  19.7509753  45.7423788 136.0108231  19.2813603  46.5714933
 134.5622784  17.9692307  47.0814078 133.7254692  17.5414481  46.8998079
 134.5346429  18.1624750  48.0184869 136.6734890  22.1818595  47.8438959
 136.5389358  21.4218996  47.2776957 136.2566952  22.9059495  47.3767748
 139.8304016  23.0787912  48.0557401 139.7136400  24.0233345  47.9536092
 139.0096462  22.7761474  48.4443201 140.8558530  23.7316174  51.2713330
 141.7585777  23.7639784  51.5879825 140.6295900  22.8016625  51.2859666
 142.6112132  22.4847160  47.9323408 141.6607763  22.4849022  47.8187781
 142.9144618  21.7379895  47.4159443 147.0762179  25.4637589  47.7477414
 146.2861233  25.7195118  47.2717525 147.5673426  26.2785927  47.8529455
 145.3599882  25.7168080  50.1792405 145.6107920  26.6015090  50.4449981
 145.8959430  25.5372681  49.4067497 145.9908924  29.8659072  43.8709882
 146.8284146  30.2756080  43.6543589 146.1687191  28.9258514  43.8410076
 146.0135095  27.2049787  44.5420615 145.8159495  26.6119148  43.8171682
 145.4581759  26.9001997  45.2596554 142.5734926  28.8899982  46.7088361
 143.2605966  28.5761712  46.1209376 142.4183055  29.7941347  46.4355612
 147.3769648  23.7790179  51.1373384 147.2927837  23.1715848  50.4023794
 146.5552354  24.2699197  51.1382881 142.1502902  26.9700576  48.9805828
 142.1887002  26.4364166  49.7742946 141.6443195  26.4435781  48.3616805
 145.7811480  25.6964678  42.0559759 146.0764921  24.7875356  42.0026813
 144.8799515  25.6752417  41.7340761 145.9685298  28.3662573  51.1984593
 145.4238766  29.1422381  51.3304867 146.8464648  28.7133378  51.0403714
 146.7551320  27.4932470  54.0914750 146.0133056  27.6415105  54.6779380
 146.4344064  27.7540735  53.2281499 145.4016539  33.2984225  47.0814078
 144.5648447  32.8706399  46.8998079 145.3740184  33.4916668  48.0184869
 144.7166035  26.3593573  46.8663010 144.3968819  25.5058881  46.5737384
 144.1699463  26.5742151  47.6220977 144.5854295  29.9796484  48.8356132
 143.8917767  29.5650437  48.3226086 145.3327286  30.0217021  48.2389550
 146.4991038  29.9114738  46.7122146 146.4761726  30.0102425  45.7604029
 146.8091674  30.7579889  47.0339313 147.5128644  37.5110513  47.8438959
 147.3783112  36.7510914  47.2776957 147.0960707  38.2351413  47.3767748
 145.0012712  24.8730143  54.0931756 145.6471575  24.3629097  54.5818981
 144.7929863  25.6098825  54.6675181  26.5215842  79.7817331 146.4379595
  25.8703822  80.3671412 146.0513609  27.3160205  80.3123526 146.4974633
  32.7882566  76.2742267 147.6984432  32.0112009  75.9353427 147.2539594
  33.4674047  76.2794890 147.0239397  24.1933627  75.3707438 142.2418967
  23.2860689  75.1396692 142.4410116  24.6904659  74.5745057 142.4292948
  27.1001706  84.0804945 145.1615653  26.4263405  84.3836642 145.7700611
  27.4867528  84.8834026 144.8121110  25.0697948  77.0128777 144.1031035
  24.6317378  76.2964636 143.6436673  25.8108389  77.2404891 143.5416127
  25.2992921  84.2484618 147.3762732  25.4744677  83.7772661 148.1908355
  24.6125709  84.8750384 147.6043993  29.1909176  75.8713158 143.6963093
  28.5738347  75.1459986 143.5996146  28.7225664  76.6322519 143.3530167
  30.0146861  79.1952330 147.8155733  30.2906705  79.0808925 148.7249607
  29.1451360  78.7969815 147.7767906  26.9843091  82.3706866 148.7203595
  27.5130857  81.8599321 148.1073757  27.2471310  82.0549396 149.5849128
  30.0783274  82.3423664 149.3358578  30.2520152  81.7770087 148.5832430
  30.5712165  83.1424559 149.1538068  31.0658447  81.6590429 146.4355476
  31.7609351  82.2797122 146.6542791  31.4081597  80.8085780 146.7107854
  32.9649870  79.1090134 147.9642807  33.4901194  79.4477407 147.2392127
  32.8772222  78.1737150 147.7805941  25.1573315  81.7652180 145.3430570
  24.5847282  82.3842368 144.8901041  25.7306109  82.3151542 145.8770492
  28.3770575  82.0489331 146.4739152  29.3101248  81.9834892 146.6772027
  28.2893788  82.8845597 146.0153685  31.0058592  81.3655201 143.4343099
  30.9272223  81.0315065 144.3278857  31.8268258  81.8576969 143.4334572
  25.5420114  73.1012993 142.6846622  26.4879218  72.9719201 142.7535040
  25.1634359  72.3627655 143.1616050  28.5762543  78.6823196 143.0553078
  29.2798393  78.8873199 143.6710733  27.8525192  79.2499958 143.3202161
  30.4849241  79.1205726 145.1051538  31.3194845  78.6886924 144.9229013
  30.3233584  78.9487739 146.0328432  30.1395133  75.6237839 146.4707877
  30.0843937  75.4582110 145.5296321  29.5141188  76.3313872 146.6270067
  39.1133516  89.6375377 155.2006715  39.7511926  89.5182124 154.4970055
  38.9954359  90.5856221 155.2594667  37.3609597  95.1109249 146.4379595
  36.7097576  95.6963329 146.0513609  38.1553959  95.6415444 146.4974633
  31.2865224  92.1998386 146.8366729  32.0596100  91.6527373 146.6979605
  31.6390623  93.0642635 147.0481191  33.6231502  88.3591052 144.4685179
  33.8757022  87.8372573 143.7068642  32.6856061  88.1957198 144.5711863
  38.6674784  87.3626831 152.2759923  39.4537874  86.9446254 151.9250340
  38.9313489  88.2672923 152.4441571  38.8384862  92.7999681 146.9748579
  38.2030695  92.8734307 147.6869484  38.5082268  93.3893280 146.2967659
  44.0683211  87.3002064 153.1792901  44.8008383  86.7301281 153.4130731
  43.3122567  86.9123664 153.6199407  33.3427790  90.2619158 146.6709554
  33.2264048  89.5864062 147.3390639  33.4530050  89.7751532 145.8541707
  35.6859331  89.7229305 150.3756244  35.3217538  89.1959926 151.0869165
  36.5426447  89.3327774 150.2022729  35.3264818  84.7519205 145.3717592
  35.4939221  85.6199441 145.7388063  35.1361987  84.9146487 144.4478881
  41.4837295  85.7318724 154.7180860  40.5754172  85.6634132 154.4239621
  41.4324891  86.2090669 155.5462685  35.3054039  87.2076862 146.3564259
  35.1853664  87.6533913 147.1949739  34.6106627  87.5562180 145.7977797
  41.0039105  87.6798336 147.1844593  41.9156961  87.9125722 147.0092291
  40.4948752  88.2635380 146.6219672  39.6108688  92.6624154 154.5758174
  38.9817550  92.8269868 153.8734242  39.2234350  93.0765764 155.3469138
  43.4897919  93.5978592 151.9302538  42.8048958  93.9777493 151.3799572
  43.5741769  94.2073919 152.6634486  35.1636649  92.3998562 151.8408260
  35.6274995  92.6786265 151.0512882  34.8993448  91.4982007 151.6581350
  34.1005535  88.5221715 148.6497825  34.8029579  88.9742758 149.1171751
  33.7686164  87.8805533 149.2777718  49.9500672  90.4649255 153.0505211
  49.1964380  89.8956653 152.8949215  50.0848213  90.4311919 153.9975845
  35.3399300  95.3362657 148.7259930  35.2044975  96.1814193 149.1544778
  35.8809113  95.5381935 147.9625864  38.6542046  88.8501830 145.7631258
  38.1388670  89.6206435 146.0019646  38.3819355  88.1766966 146.3864320
  36.2389157  83.6951531 150.8216497  35.3830754  83.3058381 150.6422136
  36.6516109  83.7743492 149.9616282  43.6276321  91.6034185 147.6984432
  42.8505763  91.2645344 147.2539594  44.3067801  91.6086808 147.0239397
  38.4428350  86.7228922 147.5891040  38.1378485  87.0375071 148.4401183
  39.3958792  86.8010342 147.6318373  36.8874781  92.8819146 149.2383994
  36.3596143  92.1471905 148.9257231  36.3862284  93.6593822 148.9923962
  41.8667627  91.0768166 154.3551040  41.2091302  91.7667427 154.4431169
  42.6708027  91.4664598 154.6985026  31.6193509  83.5438812 151.5990605
  32.1937261  83.3213993 150.8663798  32.2064491  83.6127506 152.3519206
  40.6773086  89.4312539 152.4054982  41.1904968  90.0642531 152.9076691
  41.3274310  88.8313734 152.0398342  31.9463096  85.5743273 145.6186490
  31.1100408  85.9117959 145.9395765  31.8067866  85.4392253 144.6813627
  33.9216177  80.4180061 150.3265675  33.2680589  80.1029078 149.7022289
  33.8796651  79.7955801 151.0525498  35.0327382  90.6999356 142.2418967
  34.1254443  90.4688609 142.4410116  35.5298414  89.9036975 142.4292948
  37.9395460  99.4096863 145.1615653  37.2657159  99.7128560 145.7700611
  38.3261282 100.2125943 144.8121110  37.1553917  86.9061994 154.6513322
  36.2376478  87.1276941 154.4935010  37.5714061  86.9808305 153.7925030
  37.9388965  88.3053410 149.7816002  38.6860784  88.8174807 149.4723125
  38.2080554  87.9837463 150.6420396  36.2115615  90.8011951 146.7642957
  35.3026834  90.5170983 146.8615427  36.2410699  91.2211029 145.9046264
  41.4434882  94.4118540 150.5334124  40.9897210  93.5709450 150.5899315
  40.8128849  95.0479939 150.8708904  40.3867802  85.3410526 151.7634792
  39.6490559  84.8287912 152.0945034  40.6394576  84.9010908 150.9518069
  39.8867822  96.2495037 151.4683942  40.1790796  96.8100094 150.7496308
  40.3966442  96.5423598 152.2237102  40.4879429  78.1186778 152.3576561
  40.7938306  77.2584142 152.0702476  41.2132034  78.7104398 152.1575555
  34.7600509  88.4140571 152.8652752  34.8149119  87.4614408 152.7895229
  33.9491711  88.5700010 153.3494051  35.9091703  92.3420694 144.1031035
  35.4711133  91.6256553 143.6436673  36.6502144  92.5696809 143.5416127
  32.6992869  87.0317631 150.6243131  31.8860735  87.3311802 151.0308323
  33.1951863  86.6373320 151.3417613  44.0264818  90.6177891 150.1607354
  43.8882716  90.8079487 149.2328543  43.6701036  91.3797274 150.6175405
  44.0534197  92.6854418 155.1718625  44.4870704  92.5929707 156.0201679
  44.7665778  92.6611919 154.5338641  29.2750011  88.0481499 148.4299111
  28.3447599  87.9865954 148.6469073  29.3707483  87.5257451 147.6335752
  29.1935560  84.5736312 151.0177353  29.4542377  85.4881645 150.9086513
  30.0152732  84.1060754 151.1673966  44.9149747  92.7278119 157.7051511
  45.1085637  93.6323930 157.9510786  44.8150365  92.2685538 158.5390096
  36.1386676  99.5776535 147.3762732  36.3138431  99.1064579 148.1908355
  35.4519464 100.2042302 147.6043993  40.0302930  91.2005076 143.6963093
  39.4132101  90.4751904 143.5996146  39.5619419  91.9614436 143.3530167
  31.8201476  85.4190500 142.8184397  30.9430943  85.2979301 142.4546644
  32.2959229  84.6276579 142.5663286  38.3162052  83.5811420 152.7081123
  38.8130752  82.8281382 152.3882193  37.5449034  83.6175737 152.1424332
  46.1691810  89.2851786 154.3499415  46.1581686  90.1676501 153.9793348
  45.3009189  88.9323336 154.1553952  39.3991833  92.3383107 150.2819547
  38.4648112  92.4584570 150.1124251  39.5768502  91.4355574 150.0179556
  34.8997021  85.7228803 152.4352808  34.5294809  85.1699843 153.1233713
  35.3956114  85.1186937 151.8827808  42.7864385  88.1800427 150.8169581
  43.2524837  89.0128418 150.7429883  43.2371885  87.7145408 151.5214839
  40.8540616  94.5244248 147.8155733  41.1300460  94.4100842 148.7249607
  39.9845114  94.1261733 147.7767906  40.5287506  88.7370906 157.3560376
  39.8758956  88.9846813 156.7012829  40.9067886  87.9235044 157.0222853
  37.8236845  97.6998784 148.7203595  38.3524612  97.1891238 148.1073757
  38.0865065  97.3841314 149.5849128  28.2768012  84.6946453 148.3836628
  27.9480718  83.8143832 148.2011734  28.6307382  84.6394122 149.2713017
  31.3909835  84.9819423 148.7512106  31.7305907  85.5105344 148.0290714
  31.8381955  85.3199829 149.5270672  33.3777982  83.4794045 146.9505398
  34.0986345  83.8575297 146.4469115  32.7543286  84.1982921 147.0540376
  37.5209105  84.1839194 147.8863731  37.7372719  85.0663831 147.5852559
  37.0403172  83.7925407 147.1569373  40.9177029  97.6715582 149.3358578
  41.0913906  97.1062005 148.5832430  41.4105920  98.4716477 149.1538068
  33.5241605  83.0141835 149.7802935  33.6457516  82.0858481 149.9793823
  33.2343648  83.0280521 148.8681251  46.7716420  90.4352005 150.9548878
  47.2147566  89.6859330 150.5568001  45.8942930  90.4262141 150.5722609
  41.9052201  96.9882347 146.4355476  42.6003106  97.6089039 146.6542791
  42.2475351  96.1377698 146.7107854  43.8043624  94.4382052 147.9642807
  44.3294948  94.7769325 147.2392127  43.7165977  93.5029067 147.7805941
  32.4971664  94.5995968 147.8718822  32.6459784  95.2831432 147.2185495
  33.3038108  94.5801058 148.3868278  46.3149285  91.9057243 153.3471325
  47.1496176  92.3447047 153.5108885  46.4508413  91.4295897 152.5279571
  43.3640790  89.4636978 159.2948813  43.8394912  89.6564624 158.4867664
  42.4406356  89.5196164 159.0492196  30.2524297  90.6261145 148.8779891
  30.0070339  89.7223475 149.0760101  30.4220212  90.6278296 147.9359369
  29.5219945  86.3589503 146.3766053  28.8289190  86.4333858 145.7206089
  29.2771697  85.5949847 146.8987570  35.9967070  97.0944098 145.3430570
  35.4241037  97.7134285 144.8901041  36.5699863  97.6443460 145.8770492
  39.2164329  97.3781248 146.4739152  40.1495003  97.3126810 146.6772027
  39.1287542  98.2137515 146.0153685  41.8452346  96.6947119 143.4343099
  41.7665978  96.3606982 144.3278857  42.6662013  97.1868887 143.4334572
  44.5430537  89.5608858 156.6419418  44.5106857  88.6224859 156.8279102
  45.1531161  89.6392895 155.9085243  36.3813868  88.4304911 142.6846622
  37.3272973  88.3011119 142.7535040  36.0028113  87.6919573 143.1616050
  44.6925026  86.3519901 156.6877701  44.1764074  85.5678358 156.5007630
  45.5764974  86.0238618 156.8524221  42.3535753  80.0960917 152.6473514
  42.1560574  79.7876005 153.5316846  42.9635458  80.8222556 152.7771444
  50.3607087  90.6224865 155.7825455  51.0910476  90.3610153 156.3433158
  49.7514033  89.8853587 155.8227523  48.4422384  88.7632727 156.3799906
  47.7155548  88.6288692 155.7716398  48.0269671  89.0709556 157.1856624
  34.5656785  86.3554887 142.6201507  33.6588241  86.0588000 142.6964221
  34.8432766  86.0584705 141.7535794  36.1818851  80.8991777 148.7745749
  35.3719579  80.5538862 149.1500995  36.8703268  80.5899321 149.3633360
  38.1109399  79.9769824 150.3970045  38.6640438  80.3965277 151.0560068
  38.3479486  79.0505572 150.4393001  33.3355570  83.2141823 142.7613487
  34.1974734  83.5396721 143.0209304  33.5205914  82.4273318 142.2486552
  41.4888206  82.0870349 149.9048710  40.9086875  82.7455153 149.5226762
  41.2224139  81.2647694 149.4936127  39.9391773  81.4875407 152.1070030
  40.4391551  81.5991941 151.2984349  40.5827381  81.1836460 152.7470838
  40.2713084  84.2470439 148.9605058  39.3838939  84.5320090 148.7425253
  40.6867073  84.0864203 148.1132335  43.6227621  84.2716960 152.6759397
  44.3988011  84.7613413 152.9484014  42.8975755  84.6975015 153.1331267
  46.0600179  84.9844580 153.7333338  46.6544670  84.7440316 153.0226646
  46.1326763  84.2651710 154.3606874  39.4156298  94.0115114 143.0553078
  40.1192148  94.2165117 143.6710733  38.6918947  94.5791876 143.3202161
  40.2454108  89.7624975 149.1755348  40.1889310  90.2193527 148.3362980
  40.7982451  89.0015660 148.9978191  44.0558914  85.5514707 150.0005467
  43.7995848  85.1511343 150.8313675  43.4311782  86.2658501 149.8755607
  48.3671252  88.2910780 152.5076759  47.8070810  88.3603970 153.2808321
  47.7614755  88.1151765 151.7876255  41.3242995  94.4497643 145.1051538
  42.1588599  94.0178842 144.9229013  41.1627338  94.2779657 146.0328432
  40.9788887  90.9529757 146.4707877  40.9237691  90.7874028 145.5296321
  40.3534943  91.6605789 146.6270067  34.2885013  80.4537866 146.0493196
  34.2763683  81.3979705 146.2061466  35.1808435  80.2708011 145.7552657
  38.1037132  77.0480642 150.3039132  37.3369528  76.4939129 150.4495815
  38.5147837  77.1202511 151.1653284  49.9527270 104.9667294 155.2006715
  50.5905680 104.8474042 154.4970055  49.8348113 105.9148138 155.2594667
  48.2003351 110.4401167 146.4379595  47.5491331 111.0255247 146.0513609
  48.9947714 110.9707361 146.4974633  42.1258978 107.5290304 146.8366729
  42.8989854 106.9819291 146.6979605  42.4784377 108.3934553 147.0481191
  44.4625256 103.6882970 144.4685179  44.7150777 103.1664491 143.7068642
  43.5249815 103.5249115 144.5711863  49.5068539 102.6918748 152.2759923
  50.2931628 102.2738171 151.9250340  49.7707243 103.5964840 152.4441571
  49.6778616 108.1291599 146.9748579  49.0424449 108.2026225 147.6869484
  49.3476023 108.7185197 146.2967659  54.9076966 102.6293981 153.1792901
  55.6402138 102.0593198 153.4130731  54.1516322 102.2415582 153.6199407
  44.1821545 105.5911076 146.6709554  44.0657803 104.9155979 147.3390639
  44.2923805 105.1043450 145.8541707  46.5253086 105.0521223 150.3756244
  46.1611293 104.5251844 151.0869165  47.3820202 104.6619692 150.2022729
  52.4302386  96.3415556 157.6387510  52.0985711  97.2110966 157.4148725
  51.8348000  96.0251840 158.3181540  46.1658573 100.0811123 145.3717592
  46.3332975 100.9491359 145.7388063  45.9755742 100.2438404 144.4478881
  52.3231050 101.0610642 154.7180860  51.4147927 100.9926050 154.4239621
  52.2718645 101.5382587 155.5462685  46.1447794 102.5368780 146.3564259
  46.0247419 102.9825831 147.1949739  45.4500382 102.8854098 145.7977797
  54.1892696  99.2627080 156.4958734  53.5467076  99.5559613 155.8498528
  53.6847625  99.1480000 157.3011930  51.8432860 103.0090253 147.1844593
  52.7550716 103.2417640 147.0092291  51.3342507 103.5927298 146.6219672
  49.1868834  99.1848289 155.4334454  48.3253314  99.4829543 155.7251191
  49.2131269  99.4018688 154.5015487  46.0030404 107.7290480 151.8408260
  46.4668749 108.0078183 151.0512882  45.7387202 106.8273924 151.6581350
  44.9399290 103.8513632 148.6497825  45.6423333 104.3034676 149.1171751
  44.6079918 103.2097451 149.2777718  46.1793055 110.6654575 148.7259930
  46.0438729 111.5106111 149.1544778  46.7202867 110.8673852 147.9625864
  49.5285518  94.1885137 157.2558823  49.1849788  95.0786778 157.1797934
  49.8964481  93.9986794 156.3928408  49.4935801 104.1793748 145.7631258
  48.9782424 104.9498352 146.0019646  49.2213109 103.5058884 146.3864320
  47.0782912  99.0243449 150.8216497  46.2224508  98.6350299 150.6422136
  47.4909864  99.1035409 149.9616282  48.6082059  96.5589792 155.2208057
  48.1046854  96.5219927 154.4075862  48.9012665  97.4682535 155.2804713
  44.8524944  96.6428522 154.2274238  45.7177941  96.4471330 153.8680128
  44.9202453  96.4138873 155.1543595  54.4670075 106.9326102 147.6984432
  53.6899518 106.5937262 147.2539594  55.1461556 106.9378726 147.0239397
  49.2822104 102.0520840 147.5891040  48.9772240 102.3666989 148.4401183
  50.2352546 102.1302260 147.6318373  47.7268536 108.2111063 149.2383994
  47.1989897 107.4763823 148.9257231  47.2256039 108.9885740 148.9923962
  42.4587263  98.8730730 151.5990605  43.0331015  98.6505911 150.8663798
  43.0458246  98.9419424 152.3519206  51.5166841 104.7604456 152.4054982
  52.0298722 105.3934448 152.9076691  52.1668065 104.1605652 152.0398342
  42.7856851 100.9035191 145.6186490  41.9494163 101.2409877 145.9395765
  42.6461620 100.7684170 144.6813627  44.7609931  95.7471978 150.3265675
  44.1074344  95.4320996 149.7022289  44.7190405  95.1247719 151.0525498
  45.8721136 106.0291273 142.2418967  44.9648198 105.7980527 142.4410116
  46.3692168 105.2328893 142.4292948  48.7789215 114.7388781 145.1615653
  48.1050914 115.0420477 145.7700611  49.1655037 115.5417861 144.8121110
  47.9947672 102.2353912 154.6513322  47.0770233 102.4568859 154.4935010
  48.4107815 102.3100222 153.7925030  48.7782719 103.6345328 149.7816002
  49.5254538 104.1466725 149.4723125  49.0474309 103.3129380 150.6420396
  47.0509369 106.1303868 146.7642957  46.1420589 105.8462901 146.8615427
  47.0804453 106.5502947 145.9046264  52.2828637 109.7410458 150.5334124
  51.8290964 108.9001368 150.5899315  51.6522604 110.3771856 150.8708904
  51.2261556 100.6702444 151.7634792  50.4884313 100.1579830 152.0945034
  51.4788330 100.2302825 150.9518069  50.7261576 111.5786955 151.4683942
  51.0184551 112.1392012 150.7496308  51.2360197 111.8715516 152.2237102
  51.3273184  93.4478696 152.3576561  51.6332061  92.5876059 152.0702476
  52.0525789  94.0396316 152.1575555  45.5994264 103.7432489 152.8652752
  45.6542873 102.7906325 152.7895229  44.7885466 103.8991928 153.3494051
  46.7485457 107.6712612 144.1031035  46.3104887 106.9548471 143.6436673
  47.4895898 107.8988727 143.5416127  43.5386623 102.3609549 150.6243131
  42.7254489 102.6603719 151.0308323  44.0345618 101.9665237 151.3417613
  54.8658572 105.9469809 150.1607354  54.7276471 106.1371405 149.2328543
  54.5094791 106.7089192 150.6175405  40.1143766 103.3773416 148.4299111
  39.1841354 103.3157872 148.6469073  40.2101238 102.8549369 147.6335752
  40.0329315  99.9028229 151.0177353  40.2936132 100.8173562 150.9086513
  40.8546487  99.4352672 151.1673966  46.9780430 114.9068453 147.3762732
  47.1532186 114.4356496 148.1908355  46.2913218 115.5334219 147.6043993
  50.8696685 106.5296994 143.6963093  50.2525856 105.8043822 143.5996146
  50.4013173 107.2906354 143.3530167  42.6595231 100.7482418 142.8184397
  41.7824697 100.6271219 142.4546644  43.1352984  99.9568496 142.5663286
  49.1555807  98.9103338 152.7081123  49.6524507  98.1573300 152.3882193
  48.3842788  98.9467654 152.1424332  50.2385588 107.6675025 150.2819547
  49.3041866 107.7876487 150.1124251  50.4162256 106.7647492 150.0179556
  45.7390776 101.0520721 152.4352808  45.3688563 100.4991761 153.1233713
  46.2349868 100.4478854 151.8827808  53.6258139 103.5092344 150.8169581
  54.0918591 104.3420336 150.7429883  54.0765640 103.0437326 151.5214839
  51.6934370 109.8536166 147.8155733  51.9694214 109.7392760 148.7249607
  50.8238869 109.4553650 147.7767906  51.5974802  95.8772931 154.8560482
  50.6837882  96.1077158 155.0242689  52.0267903  95.9611375 155.7074514
  48.6630600 113.0290702 148.7203595  49.1918366 112.5183156 148.1073757
  48.9258819 112.7133232 149.5849128  39.1161766 100.0238371 148.3836628
  38.7874472  99.1435750 148.2011734  39.4701137  99.9686040 149.2713017
  42.2303589 100.3111341 148.7512106  42.5699662 100.8397262 148.0290714
  42.6775710 100.6491747 149.5270672  45.5763502  95.7797704 156.6542497
  46.3989571  95.3058182 156.5321387  45.8201566  96.5588188 157.1541183
  44.2171737  98.8085962 146.9505398  44.9380099  99.1867215 146.4469115
  43.5937041  99.5274839 147.0540376  48.3602859  99.5131111 147.8863731
  48.5766474 100.3955749 147.5852559  47.8796927  99.1217325 147.1569373
  44.9598464  99.4619372 154.5115365  44.9460032  98.5660466 154.1747663
  45.6770892  99.4690036 155.1453651  46.8124594  99.8956713 156.5568492
  46.5542372 100.8173783 156.5552823  46.2809635  99.4987147 157.2468957
  51.7570783 113.0007500 149.3358578  51.9307661 112.4353922 148.5832430
  52.2499674 113.8008395 149.1538068  44.3635360  98.3433753 149.7802935
  44.4851271  97.4150399 149.9793823  44.0737402  98.3572439 148.8681251
  47.2326550  96.0288663 152.9169655  47.2548247  96.0927996 151.9621634
  47.6494609  95.1893172 153.1110161  57.6110174 105.7643923 150.9548878
  58.0541320 105.0151248 150.5568001  56.7336685 105.7554059 150.5722609
  52.7445956 112.3174264 146.4355476  53.4396860 112.9380957 146.6542791
  53.0869106 111.4669615 146.7107854  54.6437379 109.7673970 147.9642807
  55.1688703 110.1061242 147.2392127  54.5559731 108.8320985 147.7805941
  43.3365419 109.9287885 147.8718822  43.4853539 110.6123350 147.2185495
  44.1431862 109.9092975 148.3868278  41.0918052 105.9553063 148.8779891
  40.8464094 105.0515393 149.0760101  41.2613966 105.9570213 147.9359369
  48.7814761  96.8276739 158.2604647  49.2996705  97.5637766 157.9351135
  48.4269894  97.1340733 159.0951406  40.3613699 101.6881421 146.3766053
  39.6682944 101.7625776 145.7206089  40.1165451 100.9241764 146.8987570
  49.0327356  93.2477022 153.7805543  49.3129109  92.5800211 154.4065970
  49.8177963  93.4406118 153.2680207  46.8360824 112.4236016 145.3430570
  46.2634791 113.0426203 144.8901041  47.4093618 112.9735378 145.8770492
  50.9250593  98.7550239 157.7136519  50.3300526  99.0355252 157.0183008
  50.6400290  99.2444140 158.4853260  50.0558084 112.7073166 146.4739152
  50.9888757 112.6418728 146.6772027  49.9681297 113.5429433 146.0153685
  52.6846101 112.0239036 143.4343099  52.6059732 111.6898900 144.3278857
  53.5055767 112.5160804 143.4334572  47.2207623 103.7596829 142.6846622
  48.1666727 103.6303037 142.7535040  46.8421868 103.0211491 143.1616050
  53.1929507  95.4252835 152.6473514  52.9954328  95.1167923 153.5316846
  53.8029213  96.1514474 152.7771444  45.4050540 101.6846805 142.6201507
  44.4981995 101.3879918 142.6964221  45.6826521 101.3876623 141.7535794
  47.0212605  96.2283695 148.7745749  46.2113334  95.8830780 149.1500995
  47.7097022  95.9191238 149.3633360  48.9503154  95.3061742 150.3970045
  49.5034192  95.7257195 151.0560068  49.1873240  94.3797490 150.4393001
  44.1749324  98.5433740 142.7613487  45.0368488  98.8688639 143.0209304
  44.3599669  97.7565236 142.2486552  52.3281961  97.4162267 149.9048710
  51.7480630  98.0747071 149.5226762  52.0617894  96.5939611 149.4936127
  50.7785527  96.8167324 152.1070030  51.2785306  96.9283859 151.2984349
  51.4221135  96.5128377 152.7470838  51.1106839  99.5762357 148.9605058
  50.2232694  99.8612008 148.7425253  51.5260828  99.4156120 148.1132335
  54.4621375  99.6008878 152.6759397  55.2381765 100.0905330 152.9484014
  53.7369509 100.0266932 153.1331267  56.8993934 100.3136497 153.7333338
  57.4938424 100.0732233 153.0226646  56.9720517  99.5943628 154.3606874
  50.2550052 109.3407032 143.0553078  50.9585902 109.5457034 143.6710733
  49.5312701 109.9083794 143.3202161  51.0847863 105.0916893 149.1755348
  51.0283064 105.5485444 148.3362980  51.6376205 104.3307578 148.9978191
  54.8952669 100.8806625 150.0005467  54.6389603 100.4803261 150.8313675
  54.2705537 101.5950419 149.8755607  59.2065006 103.6202698 152.5076759
  58.6464564 103.6895887 153.2808321  58.6008510 103.4443683 151.7876255
  52.1636750 109.7789561 145.1051538  52.9982354 109.3470759 144.9229013
  52.0021093 109.6071575 146.0328432  51.8182642 106.2821674 146.4707877
  51.7631446 106.1165946 145.5296321  51.1928697 106.9897707 146.6270067
  45.1278767  95.7829783 146.0493196  45.1157437  96.7271623 146.2061466
  46.0202189  95.5999929 145.7552657  48.9430887  92.3772560 150.3039132
  48.1763283  91.8231047 150.4495815  49.3541592  92.4494429 151.1653284
  55.3019011 119.0174888 144.4685179  55.5544531 118.4956409 143.7068642
  54.3643570 118.8541033 144.5711863  57.0052327 115.4103040 145.3717592
  57.1726730 116.2783277 145.7388063  56.8149496 115.5730322 144.4478881
  53.6250605 116.2327108 145.6186490  52.7887917 116.5701795 145.9395765
  53.4855375 116.0976088 144.6813627  55.6003686 111.0763896 150.3265675
  54.9468098 110.7612913 149.7022289  55.5584160 110.4539637 151.0525498
  56.7114891 121.3583191 142.2418967  55.8041952 121.1272445 142.4410116
  57.2085923 120.5620810 142.4292948  53.4988985 116.0774336 142.8184397
  52.6218452 115.9563136 142.4546644  53.9746738 115.2860414 142.5663286
  49.9555521 115.3530289 148.3836628  49.6268227 114.4727667 148.2011734
  50.3094891 115.2977957 149.2713017  55.0565491 114.1377880 146.9505398
  55.7773854 114.5159133 146.4469115  54.4330795 114.8566757 147.0540376
  51.2007454 117.0173338 146.3766053  50.5076699 117.0917693 145.7206089
  50.9559205 116.2533682 146.8987570  58.0601377 119.0888746 142.6846622
  59.0060482 118.9594954 142.7535040  57.6815622 118.3503408 143.1616050
  56.2444294 117.0138723 142.6201507  55.3375750 116.7171835 142.6964221
  56.5220275 116.7168541 141.7535794  57.8606360 111.5575612 148.7745749
  57.0507088 111.2122697 149.1500995  58.5490777 111.2483156 149.3633360
  55.0143079 113.8725658 142.7613487  55.8762243 114.1980556 143.0209304
  55.1993423 113.0857154 142.2486552  55.9672522 111.1121701 146.0493196
  55.9551192 112.0563541 146.2061466  56.8595944 110.9291846 145.7552657
  26.5215843  56.7879454 133.1624902  25.8703823  57.3733534 132.7758916
  27.3160206  57.3185649 133.2219939  32.7882567  53.2804390 134.4229739
  32.0112010  52.9415549 133.9784901  33.4674048  53.2857013 133.7484704
  24.1933628  52.3769561 128.9664273  23.2860690  52.1458814 129.1655422
  24.6904660  51.5807180 129.1538255  27.1001707  61.0867068 131.8860959
  26.4263406  61.3898765 132.4945917  27.4867529  61.8896148 131.5366417
  25.0697950  54.0190899 130.8276342  24.6317380  53.3026758 130.3681979
  25.8108390  54.2467014 130.2661433  25.2992922  61.2546740 134.1008039
  25.4744678  60.7834784 134.9153661  24.6125710  61.8812507 134.3289299
  29.1909177  52.8775281 130.4208400  28.5738348  52.1522109 130.3241452
  28.7225666  53.6384641 130.0775474  30.0146862  56.2014453 134.5401039
  30.2906706  56.0871047 135.4494913  29.1451361  55.8031938 134.5013212
  26.9843092  59.3768989 135.4448901  27.5130858  58.8661443 134.8319064
  27.2471311  59.0611519 136.3094434  30.0783275  59.3485787 136.0603884
  30.2520153  58.7832209 135.3077737  30.5712167  60.1486682 135.8783374
  31.0658448  58.6652551 133.1600783  31.7609353  59.2859244 133.3788097
  31.4081598  57.8147903 133.4353161  32.9649871  56.1152257 134.6888113
  33.4901195  56.4539530 133.9637433  32.8772224  55.1799272 134.5051248
  25.1573316  58.7714303 132.0675876  24.5847283  59.3904490 131.6146348
  25.7306110  59.3213665 132.6015798  28.3770576  59.0551453 133.1984459
  29.3101249  58.9897015 133.4017334  28.2893789  59.8907720 132.7398991
  31.0058593  58.3717324 130.1588406  30.9272224  58.0377187 131.0524164
  31.8268260  58.8639091 130.1579878  25.5420115  50.1075116 129.4091929
  26.4879220  49.9781324 129.4780347  25.1634360  49.3689778 129.8861357
  28.5762545  55.6885319 129.7798384  29.2798395  55.8935321 130.3956040
  27.8525193  56.2562081 130.0447468  30.4849242  56.1267848 131.8296844
  31.3194846  55.6949047 131.6474319  30.3233585  55.9549862 132.7573739
  30.1395134  52.6299961 133.1953184  30.0843938  52.4644233 132.2541628
  29.5141189  53.3375994 133.3515373  39.1133517  66.6437499 141.9252021
  39.7511927  66.5244247 141.2215361  38.9954360  67.5918343 141.9839973
  35.9223223  66.5964927 141.8613546  35.5841735  66.4805992 140.9734081
  36.7912992  66.1956092 141.8414552  31.7810039  68.4500404 137.8510437
  31.2174904  68.3590341 137.0826725  31.6662434  67.6300308 138.3312929
  29.3274471  69.9451595 140.6894657  30.1195763  69.6042420 140.2740957
  29.5671121  70.0546570 141.6096811  37.3609598  72.1171372 133.1624902
  36.7097578  72.7025452 132.7758916  38.1553961  72.6477566 133.2219939
  31.2865225  69.2060509 133.5612036  32.0596101  68.6589496 133.4224912
  31.6390624  70.0704758 133.7726498  34.0506474  67.9113739 143.3580295
  34.6470047  67.6869762 142.6437258  34.1081446  67.1698485 143.9605743
  33.6231503  65.3653175 131.1930486  33.8757023  64.8434696 130.4313949
  32.6856062  65.2019320 131.2957170  38.6674786  64.3688953 139.0005229
  39.4537875  63.9508376 138.6495646  38.9313490  65.2735045 139.1686878
  38.8384863  69.8061803 133.6993886  38.2030696  69.8796430 134.4114791
  38.5082269  70.3955402 133.0212965  44.0683213  64.3064186 139.9038208
  44.8008385  63.7363403 140.1376037  43.3122568  63.9185787 140.3444713
  33.3427792  67.2681281 133.3954861  33.2264050  66.5926184 134.0635945
  33.4530051  66.7813655 132.5787014  35.6859332  66.7291428 137.1001550
  35.3217540  66.2022049 137.8114472  36.5426448  66.3389897 136.9268036
  35.3264819  61.7581328 132.0962899  35.4939222  62.6261564 132.4633370
  35.1361989  61.9208609 131.1724188  38.0840153  70.2198306 143.7628729
  37.7840876  71.1223345 143.6544536  37.7391212  69.9530490 144.6149882
  31.5352634  66.6712103 139.7965434  30.6103131  66.5388317 140.0043125
  31.7837047  67.4506323 140.2935376  41.4837296  62.7380847 141.4426166
  40.5754174  62.6696255 141.1484927  41.4324892  63.2152792 142.2707992
  35.3054040  64.2138985 133.0809566  35.1853666  64.6596036 133.9195046
  34.6106629  64.5624303 132.5223104  28.8961445  66.3145377 140.6309223
  29.0253826  66.5679856 141.5448634  28.2158896  66.9073085 140.3113878
  33.0660932  76.9842627 136.7299697  32.9884962  77.9350452 136.8088177
  32.4622576  76.6388499 137.3874623  41.0039106  64.6860458 133.9089900
  41.9156963  64.9187845 133.7337597  40.4948754  65.2697502 133.3464978
  39.6108689  69.6686277 141.3003481  38.9817551  69.8331991 140.5979549
  39.2234351  70.0827886 142.0714445  43.4897921  70.6040715 138.6547845
  42.8048959  70.9839616 138.1044878  43.5741770  71.2136041 139.3879793
  40.7448852  68.2500674 145.2543188  40.9565748  68.8932433 144.5777569
  40.6978601  67.4162990 144.7865118  35.1636651  69.4060685 138.5653566
  35.6274996  69.6848388 137.7758189  34.8993449  68.5044129 138.3826657
  32.0560732  68.9532166 141.5033329  32.6262089  69.3819435 140.8650814
  32.6468844  68.6714751 142.2017515  34.1005537  65.5283837 135.3743131
  34.8029580  65.9804881 135.8417058  33.7686165  64.8867656 136.0023024
  41.8594680  71.1272629 143.4265546  42.6812124  70.7252816 143.1448227
  41.8557083  71.0240863 144.3781662  29.7945616  64.1511969 137.6343742
  28.9976779  64.2630663 138.1527237  29.5671208  64.4898621 136.7684632
  35.6251284  70.6756672 145.5826256  35.6895716  71.1377079 146.4184428
  34.9162208  70.0454037 145.7108566  49.9500673  67.4711377 139.7750517
  49.1964382  66.9018776 139.6194522  50.0848214  67.4374042 140.7221152
  35.3399301  72.3424780 135.4505237  35.2044976  73.1876315 135.8790084
  35.8809114  72.5444057 134.6871170  28.7928699  69.8600218 136.0233162
  29.3053219  70.6543468 136.1738726  29.4451412  69.1626508 135.9566763
  30.6023583  72.9765974 138.1055915  30.7790212  73.8983939 137.9176899
  31.3980417  72.6624393 138.5350295  31.7254899  74.4944148 144.1066257
  32.2762324  74.3661211 143.3343251  30.8866375  74.7939037 143.7561150
  39.0649016  73.2451146 147.6086980  39.0467491  74.0660027 147.1167249
  39.9868936  73.1205221 147.8337121  26.7577616  68.1888872 136.7992732
  27.5952838  68.5985880 136.5826440  26.9355883  67.2488314 136.7692926
  38.6542048  65.8563953 132.4876565  38.1388671  66.6268557 132.7264953
  38.3819356  65.1829089 133.1109627  36.2389159  60.7013654 137.5461804
  35.3830755  60.3120504 137.3667442  36.6516110  60.7805614 136.6861589
  43.6276322  68.6096307 134.4229739  42.8505765  68.2707467 133.9784901
  44.3067803  68.6148931 133.7484704  38.4428351  63.7291045 134.3136346
  38.1378486  64.0437194 135.1646489  39.3958793  63.8072465 134.3563679
  36.8874783  69.8881268 135.9629300  36.3596144  69.1534028 135.6502538
  36.3862285  70.6655944 135.7169269  41.8667629  68.0830289 141.0796347
  41.2091303  68.7729550 141.1676475  42.6708028  68.4726721 141.4230333
  31.6193510  60.5500934 138.3235912  32.1937262  60.3276116 137.5909105
  32.2064493  60.6189629 139.0764513  40.6773087  66.4374661 139.1300288
  41.1904969  67.0704653 139.6321998  41.3274311  65.8375857 138.7643648
  31.9463097  62.5805395 132.3431797  31.1100410  62.9180082 132.6641072
  31.8067867  62.4454375 131.4058934  33.9216178  57.4242183 137.0510981
  33.2680590  57.1091201 136.4267596  33.8796652  56.8017924 137.7770804
  35.0327383  67.7061478 128.9664273  34.1254445  67.4750732 129.1655422
  35.5298415  66.9099098 129.1538255  37.9395462  76.4158986 131.8860959
  37.2657160  76.7190682 132.4945917  38.3261284  77.2188066 131.5366417
  37.1553918  63.9124117 141.3758629  36.2376480  64.1339064 141.2180317
  37.5714062  63.9870427 140.5170336  37.9388966  65.3115533 136.5061309
  38.6860785  65.8236930 136.1968431  38.2080556  64.9899585 137.3665703
  36.2115616  67.8074073 133.4888263  35.3026836  67.5233106 133.5860733
  36.2410700  68.2273152 132.6291570  41.4434884  71.4180663 137.2579431
  40.9897211  70.5771573 137.3144621  40.8128850  72.0542061 137.5954211
  40.3867803  62.3472649 138.4880098  39.6490560  61.8350035 138.8190341
  40.6394577  61.9073030 137.6763375  39.8867823  73.2557159 138.1929249
  40.1790797  73.8162217 137.4741615  40.3966443  73.5485720 138.9482408
  40.4879431  55.1248901 139.0821868  40.7938307  54.2646264 138.7947783
  41.2132035  55.7166521 138.8820862  26.7803787  65.5279587 137.4703466
  26.5828186  64.9348948 136.7454532  26.2250451  65.2231798 138.1879404
  34.7600510  65.4202694 139.5898059  34.8149120  64.4676530 139.5140535
  33.9491712  65.5762133 140.0739357  35.9091704  69.3482817 130.8276342
  35.4711134  68.6318676 130.3681979  36.6502145  69.5758932 130.2661433
  32.6992870  64.0379754 137.3488438  31.8860736  64.3373924 137.7553630
  33.1951864  63.6435442 138.0662920  34.8501448  74.0337511 139.2822702
  34.8077627  74.2598357 138.3531234  35.7664147  73.8000885 139.4308503
  44.0264819  67.6240014 136.8852661  43.8882717  67.8141610 135.9573850
  43.6701038  68.3859397 137.3420712  44.0534198  69.6916541 141.8963932
  44.4870705  69.5991830 142.7446986  44.7665779  69.6674041 141.2583948
  32.9667249  70.9100540 139.0784665  33.7607847  70.4150860 138.8767240
  32.2558941  70.3818403 138.7152371  37.7862093  73.2918635 143.4297033
  37.8399116  73.8609571 144.1974749  36.9176875  73.4620520 143.0651070
  29.2750012  65.0543621 135.1544418  28.3447600  64.9928077 135.3714380
  29.3707484  64.5319574 134.3581059  29.1935561  61.5798434 137.7422659
  29.4542379  62.4943767 137.6331820  30.0152734  61.1122877 137.8919272
  44.9149748  69.7340242 144.4296817  45.1085638  70.6386052 144.6756092
  44.8150366  69.2747661 145.2635402  36.7450193  67.4578897 144.9883965
  37.6742253  67.6090057 144.8152932  36.3241223  67.5462918 144.1332611
  35.5438525  71.4829562 142.7582502  35.4049611  71.1148346 143.6308440
  34.7553121  71.9977201 142.5866460  36.1386677  76.5838658 134.1008039
  36.3138433  76.1126701 134.9153661  35.4519465  77.2104424 134.3289299
  37.0943740  70.8611164 140.1471340  36.7593573  70.8211934 141.0428990
  36.5947686  70.1955880 139.6741750  40.0302932  68.2067199 130.4208400
  39.4132102  67.4814027 130.3241452  39.5619420  68.9676559 130.0775474
  41.6857063  72.9166107 148.0814180  41.6269609  72.2325327 147.4144763
  42.0876582  73.6585097 147.6294806  30.7047762  79.7328021 140.8747899
  30.9444360  80.3646545 141.5526917  29.8616959  79.3816061 141.1613258
  31.8201478  62.4252623 129.5429704  30.9430944  62.3041424 129.1791951
  32.2959231  61.6338701 129.2908592  41.6874471  70.8805691 146.3128160
  40.8001249  70.5431613 146.4354558  42.2573022  70.1488722 146.5496925
  35.2175624  75.5407143 143.2789403  35.1445795  76.3462115 143.7908707
  34.7753017  75.7399109 142.4537424  35.0065404  74.7778913 136.7892224
  34.2232926  75.3200593 136.8830449  35.7058149  75.2952893 137.1886466
  38.3162054  60.5873543 139.4326430  38.8130753  59.8343505 139.1127500
  37.5449035  60.6237859 138.8669639  46.1691811  66.2913908 141.0744721
  46.1581687  67.1738624 140.7038654  45.3009191  65.9385459 140.8799258
  37.6774308  75.4393977 145.4347561  38.3902280  76.0741442 145.3623463
  37.1864336  75.5357843 144.6187563  39.3991834  69.3445230 137.0064853
  38.4648113  69.4646692 136.8369557  39.5768503  68.4417697 136.7424863
  34.8997022  62.7290926 139.1598114  34.5294810  62.1761966 139.8479020
  35.3956115  62.1249059 138.6073114  42.7864386  65.1862549 137.5414887
  43.2524838  66.0190541 137.4675190  43.2371886  64.7207531 138.2460146
  32.7286221  73.1888421 146.2553132  33.4295681  73.8224904 146.4082527
  32.2581336  73.5303152 145.4948772  40.8540617  71.5306371 134.5401039
  41.1300461  71.4162965 135.4494913  39.9845116  71.1323855 134.5013212
  40.5287507  65.7433028 144.0805683  39.8758957  65.9908936 143.4258135
  40.9067887  64.9297166 143.7468160  37.4894681  75.7792721 138.1833853
  37.6717075  74.9614377 138.6461605  38.3127667  75.9960414 137.7458743
  37.8236846  74.7060906 135.4448901  38.3524613  74.1953361 134.8319064
  38.0865066  74.3903437 136.3094434  28.3253939  72.7224776 143.1884235
  28.9107376  71.9768464 143.3212139  28.1278778  73.0328732 144.0720899
  31.1792594  75.7576023 138.2046677  30.5102970  76.2422151 137.7210717
  31.0405464  76.0045244 139.1190056  35.3197863  77.7919767 144.8029336
  35.8716171  77.9551388 145.5678421  35.6604056  78.3824205 144.1309361
  26.5480171  64.0194478 134.9842610  26.8433613  63.1105157 134.9309663
  25.6468207  63.9982218 134.6623612  38.4566250  75.7401742 141.7893018
  38.3317390  74.9391482 141.2803963  39.1145341  76.2347936 141.3006988
  40.5201159  73.5410762 143.4172568  39.5731494  73.4216113 143.3450895
  40.8683932  72.6533260 143.4998829  28.2768013  61.7008576 135.1081935
  27.9480719  60.8205955 134.9257041  28.6307384  61.6456244 135.9958324
  37.5247592  73.3363479 139.6176920  37.3772554  72.4080186 139.7984490
  38.3501085  73.3583569 139.1333995  31.3909836  61.9881546 135.4757412
  31.7305909  62.5167467 134.7536021  31.8381957  62.3261952 136.2515979
  41.1281714  74.1592037 140.7041793  42.0528261  73.9534899 140.5666244
  40.9597017  73.9108438 141.6131134  33.3777983  60.4856167 133.6750705
  34.0986346  60.8637420 133.1714422  32.7543287  61.2045044 133.7785683
  37.5209106  61.1901316 134.6109037  37.7372721  62.0725954 134.3097866
  37.0403173  60.7987530 133.8814679  40.9177030  74.6777705 136.0603884
  41.0913907  74.1124127 135.3077737  41.4105921  75.4778600 135.8783374
  33.5241606  60.0203958 136.5048242  33.6457518  59.0920604 136.7039129
  33.2343649  60.0342644 135.5926557  46.7716421  67.4414128 137.6794184
  47.2147567  66.6921453 137.2813307  45.8942931  67.4324264 137.2967916
  41.9052202  73.9944469 133.1600783  42.6003107  74.6151162 133.3788097
  42.2475353  73.1439820 133.4353161  43.8043626  71.4444175 134.6888113
  44.3294950  71.7831447 133.9637433  43.7165978  70.5091190 134.5051248
  35.4663674  75.3578248 146.8177990  35.7750801  75.1127395 147.6900690
  36.2639156  75.5624887 146.3296860  35.4884286  77.5116158 139.0483367
  35.0489277  77.0192537 139.7416223  36.2392403  76.9689126 138.8075442
  27.9676625  73.7027699 139.0507995  28.7934645  73.4031471 138.6706638
  27.6170677  72.9335321 139.4997783  32.9358158  73.0554167 141.1205668
  32.3138168  72.3924872 140.8207896  33.6063025  73.0815299 140.4379316
  26.1685230  71.6214025 140.0096928  25.3317139  71.1936200 139.8280930
  26.1408876  71.8146469 140.9467719  43.4937532  72.0777078 149.9939311
  42.7033075  72.0601217 149.4543811  43.2570886  72.6165372 150.7488348
  43.6135407  68.9269545 147.3072040  43.6633412  68.7619552 148.2487563
  43.5049330  68.0596804 146.9169921  32.4971665  71.6058090 134.5964129
  32.6459786  72.2893555 133.9430802  33.3038109  71.5863180 135.1113585
  45.1153603  71.3466486 147.5514061  44.8238412  71.7096467 148.3877522
  44.5025735  70.6333494 147.3727394  46.3149286  68.9119366 140.0716632
  47.1496177  69.3509170 140.2354192  46.4508415  68.4358019 139.2524877
  43.3640792  66.4699101 146.0194119  43.8394913  66.6626747 145.2112971
  42.4406357  66.5258287 145.7737503  30.2524298  67.6323268 135.6025198
  30.0070340  66.7285598 135.8005408  30.4220213  67.6340418 134.6604676
  29.5219946  63.3651626 133.1011359  28.8289191  63.4395981 132.4451395
  29.2771698  62.6011969 133.6232876  35.9967071  74.1006221 132.0675876
  35.4241038  74.7196408 131.6146348  36.5699865  74.6505582 132.6015798
  39.2164331  74.3843371 133.1984459  40.1495004  74.3188933 133.4017334
  39.1287543  75.2199638 132.7398991  41.8452347  73.7009241 130.1588406
  41.7665979  73.3669105 131.0524164  42.6662014  74.1931009 130.1579878
  44.5430539  66.5670981 143.3664725  44.5106859  65.6286981 143.5524409
  45.1531162  66.6455017 142.6330550  36.3813869  65.4367034 129.4091929
  37.3272974  65.3073242 129.4780347  36.0028114  64.6981695 129.8861357
  44.6925027  63.3582024 143.4123008  44.1764076  62.5740481 143.2252937
  45.5764976  63.0300741 143.5769527  42.3535754  57.1023040 139.3718821
  42.1560575  56.7938128 140.2562153  42.9635460  57.8284678 139.5016750
  50.3607088  67.6286987 142.5070762  51.0910477  67.3672276 143.0678465
  49.7514034  66.8915709 142.5472829  48.4422385  65.7694850 143.1045213
  47.7155549  65.6350815 142.4961704  48.0269672  66.0771679 143.9101931
  34.5656787  63.3617010 129.3446814  33.6588242  63.0650123 129.4209528
  34.8432768  63.0646828 128.4781100  36.1818852  57.9053900 135.4991055
  35.3719581  57.5600985 135.8746301  36.8703269  57.5961443 136.0878667
  38.1109401  56.9831946 137.1215352  38.6640439  57.4027400 137.7805375
  38.3479487  56.0567695 137.1638308  33.3355571  60.2203945 129.4858793
  34.1974735  60.5458843 129.7454611  33.5205915  59.4335441 128.9731859
  41.4888208  59.0932472 136.6294016  40.9086877  59.7517276 136.2472069
  41.2224140  58.2709816 136.2181434  39.9391774  58.4937529 138.8315337
  40.4391552  58.6054064 138.0229655  40.5827382  58.1898582 139.4716145
  27.2659729  68.2344539 139.6404997  27.2430418  68.3332226 138.6886880
  27.5760366  69.0809689 139.9622163  40.2713086  61.2532562 135.6850364
  39.3838941  61.5382213 135.4670559  40.6867075  61.0926325 134.8377641
  43.6227622  61.2779083 139.4004704  44.3988012  61.7675535 139.6729321
  42.8975756  61.7037137 139.8576573  46.0600180  61.9906702 140.4578644
  46.6544671  61.7502438 139.7471953  46.1326764  61.2713833 141.0852181
  28.2797336  75.8340313 140.7721809  28.1451804  75.0740714 140.2059807
  27.8629398  76.5581213 140.3050598  39.4156299  71.0177237 129.7798384
  40.1192149  71.2227239 130.3956040  38.6918948  71.5853999 130.0447468
  40.2454109  66.7687098 135.9000655  40.1889311  67.2255649 135.0608287
  40.7982452  66.0077783 135.7223497  44.0558915  62.5576830 136.7250774
  43.7995850  62.1573465 137.5558982  43.4311783  63.2720624 136.6000913
  48.3671253  65.2972903 139.2322066  47.8070811  65.3666092 140.0053628
  47.7614757  65.1213888 138.5121562  31.4366462  76.7309630 140.9840252
  31.3198846  77.6755063 140.8818942  30.6158908  76.4283192 141.3726051
  41.3242997  71.4559766 131.8296844  42.1588600  71.0240964 131.6474319
  41.1627339  71.2841780 132.7573739  40.9788889  67.9591879 133.1953184
  40.9237692  67.7936151 132.2541628  40.3534944  68.6667912 133.3515373
  34.2885014  57.4599988 132.7738502  34.2763684  58.4041828 132.9306773
  35.1808436  57.2770134 132.4797963  32.4620976  77.3837892 144.1996180
  33.3648223  77.4161502 144.5162675  32.2358346  76.4538343 144.2142516
  34.2174578  76.1368879 140.8606259  33.2670209  76.1370740 140.7470631
  34.5207064  75.3901613 140.3442293  38.1037134  54.0542765 137.0284439
  37.3369529  53.5001252 137.1741121  38.5147839  54.1264634 137.8898591
  49.9527272  81.9729417 141.9252021  50.5905682  81.8536164 141.2215361
  49.8348115  82.9210261 141.9839973  46.7616978  81.9256845 141.8613546
  46.4235489  81.8097910 140.9734081  47.6306746  81.5248010 141.8414552
  42.6203794  83.7792321 137.8510437  42.0568659  83.6882258 137.0826725
  42.5056189  82.9592226 138.3312929  47.2436761  83.0791697 147.8199751
  47.2325402  82.6844495 146.9480255  47.4057400  82.3457769 148.4133523
  40.1668226  85.2743513 140.6894657  40.9589517  84.9334338 140.2740957
  40.4064876  85.3838488 141.6096811  48.2003352  87.4463289 133.1624902
  47.5491332  88.0317370 132.7758916  48.9947715  87.9769484 133.2219939
  42.1258979  84.5352426 133.5612036  42.8989855  83.9881413 133.4224912
  42.4784378  85.3996676 133.7726498  43.9644022  85.8628809 146.7678935
  43.6733888  86.7674439 146.6525602  44.6001006  85.9045336 147.4823005
  44.8900229  83.2405657 143.3580295  45.4863801  83.0161680 142.6437258
  44.9475200  82.4990403 143.9605743  44.4625257  80.6945092 131.1930486
  44.7150778  80.1726614 130.4313949  43.5249816  80.5311238 131.2957170
  49.5068540  79.6980871 139.0005229  50.2931629  79.2800294 138.6495646
  49.7707244  80.6026963 139.1686878  49.6778617  85.1353721 133.6993886
  49.0424450  85.2088348 134.4114791  49.3476024  85.7247320 133.0212965
  54.9076967  79.6356104 139.9038208  55.6402139  79.0655321 140.1376037
  54.1516323  79.2477704 140.3444713  44.1821546  82.5973198 133.3954861
  44.0657804  81.9218102 134.0635945  44.2923806  82.1105572 132.5787014
  46.5253087  82.0583346 137.1001550  46.1611294  81.5313966 137.8114472
  47.3820203  81.6681815 136.9268036  52.4302388  73.3477678 144.3632816
  52.0985712  74.2173089 144.1394031  51.8348001  73.0313962 145.0426847
  46.1658574  77.0873245 132.0962899  46.3332976  77.9553482 132.4633370
  45.9755743  77.2500527 131.1724188  48.9233907  85.5490224 143.7628729
  48.6234630  86.4515263 143.6544536  48.5784967  85.2822407 144.6149882
  42.3746389  82.0004021 139.7965434  41.4496885  81.8680235 140.0043125
  42.6230802  82.7798240 140.2935376  52.3231051  78.0672764 141.4426166
  51.4147928  77.9988173 141.1484927  52.2718647  78.5444709 142.2707992
  46.1447795  79.5430903 133.0809566  46.0247420  79.9887953 133.9195046
  45.4500383  79.8916220 132.5223104  39.7355200  81.6437295 140.6309223
  39.8647581  81.8971773 141.5448634  39.0552651  82.2365003 140.3113878
  43.9054687  92.3134544 136.7299697  43.8278717  93.2642370 136.8088177
  43.3016331  91.9680417 137.3874623  46.3971917  79.4862410 149.3861064
  45.6205251  80.0456330 149.3763928  47.0362480  79.9719193 149.9075934
  54.1892697  76.2689203 143.2204040  53.5467078  76.5621736 142.5743835
  53.6847626  76.1542123 144.0257237  51.8432861  80.0152376 133.9089900
  52.7550717  80.2479763 133.7337597  51.3342508  80.5989420 133.3464978
  44.6518289  82.2947863 148.9479031  45.3932973  82.8332907 148.6713854
  43.9455274  82.9214152 149.1050583  50.1273629  84.4377004 147.5451192
  50.5356985  83.9959414 146.8005825  49.4050890  83.8629631 147.7985385
  46.4804699  79.3749610 144.9184749  47.3265894  79.7989024 145.0619398
  46.4203336  78.7183235 145.6123312  50.4502443  84.9978194 141.3003481
  49.8211306  85.1623908 140.5979549  50.0628105  85.4119804 142.0714445
  54.3291675  85.9332632 138.6547845  53.6442713  86.3131534 138.1044878
  54.4135524  86.5427959 139.3879793  49.6304144  77.0353979 146.5765923
  49.3865076  77.7896039 146.0400198  49.9064075  77.4139326 147.4113170
  51.5842607  83.5792591 145.2543188  51.7959502  84.2224351 144.5777569
  51.5372355  82.7454908 144.7865118  49.1868836  76.1910412 142.1579761
  48.3253315  76.4891665 142.4496498  49.2131270  76.4080811 141.2260793
  46.0030405  84.7352602 138.5653566  46.4668751  85.0140305 137.7758189
  45.7387203  83.8336047 138.3826657  42.8954486  84.2824084 141.5033329
  43.4655843  84.7111352 140.8650814  43.4862598  84.0006669 142.2017515
  44.9399291  80.8575755 135.3743131  45.6423335  81.3096798 135.8417058
  44.6079920  80.2159574 136.0023024  43.3879653  79.4487511 149.7494341
  42.7578313  80.1303792 149.9829738  43.2815741  79.3370593 148.8047479
  38.6824625  79.1159307 140.6760265  37.8923679  79.3716836 140.2000376
  39.1735873  79.9307645 140.7812305  52.6988435  86.4564547 143.4265546
  53.5205878  86.0544734 143.1448227  52.6950838  86.3532781 144.3781662
  40.6339371  79.4803887 137.6343742  39.8370534  79.5922581 138.1527237
  40.4064963  79.8190539 136.7684632  46.4645038  86.0048590 145.5826256
  46.5289471  86.4668997 146.4184428  45.7555962  85.3745955 145.7108566
  36.9662328  79.3689798 143.1075256  37.2170367  80.2536808 143.3732832
  37.5021877  79.1894399 142.3350348  60.7894428  82.8003295 139.7750517
  60.0358136  82.2310693 139.6194522  60.9241969  82.7665960 140.7221152
  46.1793056  87.6716697 135.4505237  46.0438731  88.5168233 135.8790084
  46.7202868  87.8735975 134.6871170  39.6322453  85.1892135 136.0233162
  40.1446974  85.9835386 136.1738726  40.2845166  84.4918426 135.9566763
  41.4417338  88.3057892 138.1055915  41.6183966  89.2275856 137.9176899
  42.2374171  87.9916311 138.5350295  45.5828356  75.1666156 149.7039848
  46.3238070  75.7673309 149.6244311  45.8146279  74.4243794 149.1457891
  40.7269694  80.3522524 147.9818078  40.6123210  79.4507781 148.2825177
  39.8714212  80.5986220 147.6302895  47.8061532  88.2940264 149.5805579
  47.3625386  87.5076642 149.2626483  48.4678746  88.4819414 148.9149469
  42.5648653  89.8236066 144.1066257  43.1156079  89.6953129 143.3343251
  41.7260129  90.1230955 143.7561150  49.9042770  88.5743064 147.6086980
  49.8861246  89.3951945 147.1167249  50.8262690  88.4497139 147.8337121
  46.3615824  86.0887193 148.4510488  46.8944161  85.3275482 148.2209796
  45.8329906  85.7960845 149.1934643  49.5285519  71.1947259 143.9804130
  49.1849789  72.0848901 143.9043241  49.8964482  71.0048917 143.1173715
  37.5971370  83.5180790 136.7992732  38.4346592  83.9277798 136.5826440
  37.7749638  82.5780232 136.7692926  49.4935802  81.1855870 132.4876565
  48.9782426  81.9560475 132.7264953  49.2213111  80.5121007 133.1109627
  47.0782913  76.0305571 137.5461804  46.2224509  75.6412422 137.3667442
  47.4909865  76.1097532 136.6861589  48.6082060  73.5651914 141.9453363
  48.1046855  73.5282050 141.1321169  48.9012667  74.4744657 142.0050020
  44.8524946  73.6490644 140.9519545  45.7177942  73.4533453 140.5925434
  44.9202455  73.4200996 141.8788902  54.4670076  83.9388225 134.4229739
  53.6899519  83.5999385 133.9784901  55.1461557  83.9440848 133.7484704
  49.2822105  79.0582963 134.3136346  48.9772241  79.3729112 135.1646489
  50.2352547  79.1364382 134.3563679  47.7268537  85.2173186 135.9629300
  47.1989899  84.4825945 135.6502538  47.2256040  85.9947862 135.7169269
  52.7061383  83.4122206 141.0796347  52.0485058  84.1021468 141.1676475
  53.5101782  83.8018638 141.4230333  42.4587265  75.8792852 138.3235912
  43.0331017  75.6568034 137.5909105  43.0458247  75.9481547 139.0764513
  51.5166842  81.7666579 139.1300288  52.0298724  82.3996571 139.6321998
  52.1668066  81.1667775 138.7643648  42.7856852  77.9097313 132.3431797
  41.9494164  78.2472000 132.6641072  42.6461622  77.7746293 131.4058934
  44.7609932  72.7534101 137.0510981  44.1074345  72.4383118 136.4267596
  44.7190407  72.1309841 137.7770804  45.8721137  83.0353396 128.9664273
  44.9648199  82.8042650 129.1655422  46.3692169  82.2391015 129.1538255
  48.7789216  91.7450903 131.8860959  48.1050915  92.0482600 132.4945917
  49.1655038  92.5479984 131.5366417  47.9947673  79.2416035 141.3758629
  47.0770234  79.4630982 141.2180317  48.4107816  79.3162345 140.5170336
  48.7782721  80.6407450 136.5061309  49.5254540  81.1528847 136.1968431
  49.0474310  80.3191503 137.3665703  47.0509371  83.1365991 133.4888263
  46.1420590  82.8525024 133.5860733  47.0804455  83.5565070 132.6291570
  52.2828638  86.7472580 137.2579431  51.8290965  85.9063490 137.3144621
  51.6522605  87.3833979 137.5954211  51.2261558  77.6764566 138.4880098
  50.4884315  77.1641953 138.8190341  51.4788331  77.2364948 137.6763375
  50.7261577  88.5849077 138.1929249  51.0184552  89.1454134 137.4741615
  51.2360198  88.8777638 138.9482408  51.3273185  70.4540818 139.0821868
  51.6332062  69.5938182 138.7947783  52.0525790  71.0458439 138.8820862
  37.6197541  80.8571505 137.4703466  37.4221941  80.2640866 136.7454532
  37.0644205  80.5523715 138.1879404  45.5994265  80.7494612 139.5898059
  45.6542875  79.7968448 139.5140535  44.7885467  80.9054051 140.0739357
  46.7485459  84.6774735 130.8276342  46.3104888  83.9610594 130.3681979
  47.4895899  84.9050849 130.2661433  43.5386625  79.3671671 137.3488438
  42.7254490  79.6665842 137.7553630  44.0345619  78.9727360 138.0662920
  45.6895203  89.3629428 139.2822702  45.6471381  89.5890275 138.3531234
  46.6057901  89.1292803 139.4308503  49.1360836  79.8313496 146.1803332
  49.4910224  80.0584969 147.0397797  49.7832968  80.1631873 145.5580587
  54.8658573  82.9531932 136.8852661  54.7276472  83.1433528 135.9573850
  54.5094792  83.7151314 137.3420712  43.0300699  76.9390027 142.9649673
  43.6700079  76.7978786 142.2672636  42.1978230  76.6524540 142.5888275
  54.8927953  85.0208459 141.8963932  55.3264460  84.9283748 142.7446986
  55.6059534  84.9965959 141.2583948  43.8061003  86.2392457 139.0784665
  44.6001602  85.7442777 138.8767240  43.0952696  85.7110320 138.7152371
  48.6255848  88.6210553 143.4297033  48.6792870  89.1901489 144.1974749
  47.7570629  88.7912438 143.0651070  40.1143767  80.3835539 135.1544418
  39.1841355  80.3219994 135.3714380  40.2101239  79.8611492 134.3581059
  40.0329316  76.9090352 137.7422659  40.2936133  77.8235685 137.6331820
  40.8546488  76.4414794 137.8919272  41.5054241  78.3228109 144.9121484
  42.1777295  78.1145471 144.2634133  40.6784028  78.1250195 144.4726716
  55.7543503  85.0632159 144.4296817  55.9479393  85.9677970 144.6756092
  55.6544121  84.6039578 145.2635402  47.4079813  74.9490050 146.9287145
  46.7607728  75.6480000 146.8351621  48.1780829  75.3826194 147.2963393
  50.8158611  85.2138902 150.0037698  50.6644118  84.9849454 149.0867782
  50.8063291  86.1709503 150.0169043  47.5843948  82.7870815 144.9883965
  48.5136008  82.9381974 144.8152932  47.1634978  82.8754836 144.1332611
  46.3832279  86.8121479 142.7582502  46.2443365  86.4440264 143.6308440
  45.5946876  87.3269119 142.5866460  46.9780431  91.9130576 134.1008039
  47.1532187  91.4418619 134.9153661  46.2913219  92.5396342 134.3289299
  47.9337495  86.1903082 140.1471340  47.5987327  86.1503852 141.0428990
  47.4341440  85.5247798 139.6741750  41.9081738  81.5970712 145.6723921
  41.7701536  80.8650951 146.2735460  42.8186662  81.5079612 145.3908109
  50.8696686  83.5359116 130.4208400  50.2525857  82.8105944 130.3241452
  50.4013175  84.2968477 130.0775474  44.5364039  81.3090671 145.1607601
  45.2463658  80.6683863 145.1194219  44.4933347  81.5603566 146.0833781
  52.5250818  88.2458025 148.0814180  52.4663364  87.5617245 147.4144763
  52.9270336  88.9877015 147.6294806  43.2492973  78.2955889 146.9803240
  42.7130330  77.8446628 147.6324837  42.6609682  78.4301798 146.2373705
  41.5441517  95.0619938 140.8747899  41.7838115  95.6938463 141.5526917
  40.7010713  94.7107978 141.1613258  42.6595232  77.7544541 129.5429704
  41.7824698  77.6333341 129.1791951  43.1352985  76.9630619 129.2908592
  52.5268225  86.2097609 146.3128160  51.6395004  85.8723530 146.4354558
  53.0966776  85.4780640 146.5496925  34.1797372  82.5421700 139.6371211
  34.8668412  82.2283430 139.0492226  34.0245501  83.4463065 139.3638462
  38.9832094  77.4311897 144.0656235  38.8990283  76.8237566 143.3306645
  38.1614801  77.9220915 144.0665731  46.0569379  90.8699061 143.2789403
  45.9839550  91.6754032 143.7908707  45.6146772  91.0691027 142.4537424
  45.8459158  90.1070831 136.7892224  45.0626680  90.6492511 136.8830449
  46.5451903  90.6244811 137.1886466  49.1555808  75.9165460 139.4326430
  49.6524508  75.1635423 139.1127500  48.3842790  75.9529777 138.8669639
  57.0085566  81.6205826 141.0744721  56.9975442  82.5030541 140.7038654
  56.1402945  81.2677377 140.8799258  48.5168062  90.7685895 145.4347561
  49.2296034  91.4033360 145.3623463  48.0258091  90.8649761 144.6187563
  50.2385589  84.6737148 137.0064853  49.3041868  84.7938610 136.8369557
  50.4162257  83.7709614 136.7424863  45.7390777  78.0582843 139.1598114
  45.3688565  77.5053884 139.8479020  46.2349869  77.4540977 138.6073114
  53.6258140  80.5154467 137.5414887  54.0918592  81.3482458 137.4675190
  54.0765641  80.0499448 138.2460146  43.5679976  88.5180338 146.2553132
  44.2689435  89.1516821 146.4082527  43.0975091  88.8595070 145.4948772
  51.6934371  86.8598288 134.5401039  51.9694215  86.7454883 135.4494913
  50.8238870  86.4615773 134.5013212  51.5974803  72.8835054 141.5805789
  50.6837883  73.1139281 141.7487996  52.0267904  72.9673498 142.4319821
  51.3681262  81.0724946 144.0805683  50.7152712  81.3200853 143.4258135
  51.7461641  80.2589084 143.7468160  48.3288435  91.1084639 138.1833853
  48.5110830  90.2906295 138.6461605  49.1521421  91.3252331 137.7458743
  48.6630601  90.0352824 135.4448901  49.1918367  89.5245279 134.8319064
  48.9258820  89.7195354 136.3094434  47.4168835  81.8144757 150.5671720
  46.7409472  81.7138886 151.2374095  48.2396468  81.6583971 151.0307717
  39.1647694  88.0516693 143.1884235  39.7501130  87.3060381 143.3212139
  38.9672532  88.3620650 144.0720899  42.0186349  91.0867941 138.2046677
  41.3496724  91.5714068 137.7210717  41.8799219  91.3337161 139.1190056
  33.7565348  80.6222294 141.9088678  33.7949448  80.0885884 142.7025796
  33.2505641  80.0957499 141.2899655  46.1591617  93.1211684 144.8029336
  46.7109925  93.2843306 145.5678421  46.4997811  93.7116122 144.1309361
  41.1356111  75.4686834 145.4051220  41.1997437  76.3301665 144.9928618
  41.0723231  74.8560836 144.6723579  40.6108383  77.5409967 149.0524255
  41.2380422  77.1587044 149.6661779  39.7536302  77.3224169 149.4179947
  51.0102492  87.9472942 150.6577990  51.5542396  88.5602900 150.1632945
  50.4289337  88.5052520 151.1745003  37.3873926  79.3486396 134.9842610
  37.6827367  78.4397074 134.9309663  36.4861962  79.3274135 134.6623612
  49.2960005  91.0693660 141.7893018  49.1711144  90.2683400 141.2803963
  49.9539096  91.5639853 141.3006988  40.9168173  77.4242392 140.9670158
  40.1954759  78.0378360 140.8277631  41.7061429  77.9600157 140.8886804
  51.3594913  88.8702680 143.4172568  50.4125249  88.7508031 143.3450895
  51.7077686  87.9825178 143.4998829  43.7194486  74.7596819 147.2410810
  44.2428888  75.0059115 148.0037119  43.5006820  75.5916854 146.8213947
  39.1161768  77.0300493 135.1081935  38.7874474  76.1497872 134.9257041
  39.4701138  76.9748162 135.9958324  48.3641346  88.6655396 139.6176920
  48.2166309  87.7372104 139.7984490  49.1894840  88.6875487 139.1333995
  42.2303591  77.3173463 135.4757412  42.5699663  77.8459385 134.7536021
  42.6775711  77.6553869 136.2515979  51.9675468  89.4883955 140.7041793
  52.8922016  89.2826816 140.5666244  51.7990772  89.2400356 141.6131134
  44.9247031  75.7010514 144.9260480  44.5843852  74.9018327 145.3281160
  44.2186038  76.0012225 144.3537314  45.5763503  72.7859826 143.3787803
  46.3989573  72.3120305 143.2566694  45.8201567  73.5650310 143.8786490
  44.2171738  75.8148085 133.6750705  44.9380100  76.1929338 133.1714422
  43.5937042  76.5336962 133.7785683  48.3602861  76.5193234 134.6109037
  48.5766475  77.4017872 134.3097866  47.8796928  76.1279447 133.8814679
  43.1002082  79.4778947 141.1879782  42.9546663  79.7919250 142.0804064
  42.6227286  80.0963847 140.6350681  44.9598465  76.4681495 141.2360672
  44.9460034  75.5722588 140.8992970  45.6770893  76.4752159 141.8698958
  46.8124596  76.9018835 143.2813799  46.5542373  77.8235906 143.2798129
  46.2809636  76.5049270 143.9714263  51.7570784  90.0069622 136.0603884
  51.9307662  89.4416045 135.3077737  52.2499676  90.8070517 135.8783374
  37.5747744  82.0184291 144.1267443  37.0301212  82.7944099 144.2587718
  38.4527094  82.3655096 143.9686565  44.3635361  75.3495875 136.5048242
  44.4851272  74.4212522 136.7039129  44.0737403  75.3634561 135.5926557
  47.2326551  73.0350786 139.6414962  47.2548248  73.0990119 138.6866941
  47.6494610  72.1955294 139.8355468  57.6110176  82.7706045 137.6794184
  58.0541322  82.0213371 137.2813307  56.7336686  82.7616182 137.2967916
  52.7445957  89.3236387 133.1600783  53.4396862  89.9443079 133.3788097
  53.0869107  88.4731738 133.4353161  38.3613766  81.1454188 147.0197600
  37.6195502  81.2936823 147.6062230  38.0406510  81.4062453 146.1564349
  54.6437380  86.7736092 134.6888113  55.1688704  87.1123365 133.9637433
  54.5559733  85.8383108 134.5051248  46.3057429  90.6870166 146.8177990
  46.6144555  90.4419313 147.6900690  47.1032911  90.8916804 146.3296860
  46.3278041  92.8408076 139.0483367  45.8883031  92.3484454 139.7416223
  47.0786158  92.2981043 138.8075442  38.8070380  89.0319616 139.0507995
  39.6328400  88.7323388 138.6706638  38.4564432  88.2627239 139.4997783
  43.7751913  88.3846085 141.1205668  43.1531922  87.7216790 140.8207896
  44.4456780  88.4107217 140.4379316  37.0078985  86.9505943 140.0096928
  36.1710893  86.5228117 139.8280930  36.9802630  87.1438386 140.9467719
  43.8476440  76.8627873 150.7138174  43.8964596  77.7389995 150.3315944
  44.3898955  76.3205266 150.1409818  54.3331286  87.4068996 149.9939311
  53.5426830  87.3893135 149.4543811  54.0964641  87.9457290 150.7488348
  54.4529161  84.2561462 147.3072040  54.5027166  84.0911470 148.2487563
  54.3443084  83.3888721 146.9169921  43.3365420  86.9350008 134.5964129
  43.4853540  87.6185472 133.9430802  44.1431863  86.9155098 135.1113585
  51.7432924  80.2392390 148.6231347  52.6442786  80.0998855 148.3315344
  51.8180898  80.4046845 149.5629524  46.0775729  77.6159245 147.4684533
  45.2079038  77.9092811 147.1967122  46.3135209  78.1999690 148.1891797
  55.9547358  86.6758404 147.5514061  55.6632166  87.0388384 148.3877522
  55.3419489  85.9625412 147.3727394  57.1543040  84.2411284 140.0716632
  57.9889932  84.6801088 140.2354192  57.2902169  83.7649937 139.2524877
  54.2034546  81.7991018 146.0194119  54.6788668  81.9918665 145.2112971
  53.2800112  81.8550204 145.7737503  41.0918053  82.9615186 135.6025198
  40.8464095  82.0577516 135.8005408  41.2613967  82.9632336 134.6604676
  48.7814763  73.8338862 144.9849953  49.2996707  74.5699889 144.6596442
  48.4269895  74.1402855 145.8196712  40.3613700  78.6943543 133.1011359
  39.6682945  78.7687898 132.4451395  40.1165452  77.9303887 133.6232876
  49.0327357  70.2539145 140.5050850  49.3129111  69.5862334 141.1311276
  49.8177964  70.4468240 139.9925514  46.8360825  89.4298138 132.0675876
  46.2634792  90.0488326 131.6146348  47.4093619  89.9797500 132.6015798
  52.9036215  78.6756779 144.2522425  53.8553638  78.7754876 144.2734649
  52.7339666  77.8835047 144.7620509  50.9250595  75.7612362 144.4381826
  50.3300527  76.0417374 143.7428315  50.6400291  76.2506263 145.2098567
  50.0558085  89.7135289 133.1984459  50.9888758  89.6480850 133.4017334
  49.9681298  90.5491555 132.7398991  52.6846102  89.0301159 130.1588406
  52.6059733  88.6961023 131.0524164  53.5055769  89.5222927 130.1579878
  55.3824293  81.8962898 143.3664725  55.3500613  80.9578899 143.5524409
  55.9924917  81.9746935 142.6330550  47.2207624  80.7658951 129.4091929
  48.1666729  80.6365159 129.4780347  46.8421869  80.0273613 129.8861357
  55.5318781  78.6873942 143.4123008  55.0157830  77.9032398 143.2252937
  56.4158730  78.3592658 143.5769527  53.1929508  72.4314957 139.3718821
  52.9954330  72.1230045 140.2562153  53.8029214  73.1576596 139.5016750
  61.2000843  82.9578905 142.5070762  61.9304231  82.6964193 143.0678465
  60.5907788  82.2207627 142.5472829  59.2816140  81.0986768 143.1045213
  58.5549304  80.9642733 142.4961704  58.8663427  81.4063596 143.9101931
  47.1046316  84.8176697 150.8692586  48.0249326  84.9955296 151.0632632
  47.0695899  83.8732743 150.7172285  45.4050541  78.6908928 129.3446814
  44.4981996  78.3942040 129.4209528  45.6826522  78.3938746 128.4781100
  36.3228481  80.0115291 139.7945860  36.0031266  79.1580599 139.5020234
  35.7761910  80.2263869 140.5503828  40.1008389  82.7277732 143.5115367
  40.3194399  83.6594840 143.5303401  40.5134163  82.3685706 144.2970171
  47.0212607  73.2345817 135.4991055  46.2113335  72.8892902 135.8746301
  47.7097024  72.9253361 136.0878667  48.9503155  72.3123864 137.1215352
  49.5034194  72.7319318 137.7805375  49.1873241  71.3859612 137.1638308
  44.9736254  78.3010938 152.9018116  44.8732981  79.2505295 152.8330207
  44.7557796  77.9729177 152.0294186  44.1749326  75.5495863 129.4858793
  45.0368490  75.8750761 129.7454611  44.3599670  74.7627359 128.9731859
  36.1916741  83.6318202 141.7638982  35.4980213  83.2172155 141.2508936
  36.9389732  83.6738739 141.1672401  52.3281962  74.4224389 136.6294016
  51.7480631  75.0809193 136.2472069  52.0617895  73.6001734 136.2181434
  50.7785528  73.8229447 138.8315337  51.2785307  73.9345982 138.0229655
  51.4221136  73.5190500 139.4716145  44.8367524  81.7308077 151.7183177
  44.3534606  82.5308437 151.9247067  44.9228463  81.7416021 150.7650621
  38.1053484  83.5636456 139.6404997  38.0824172  83.6624144 138.6886880
  38.4154120  84.4101607 139.9622163  40.7640862  85.6212611 143.7551611
  41.7184115  85.5896554 143.6881543  40.5653385  85.1603235 144.5701837
  41.3540244  84.1913727 146.3222409  42.1733133  84.6857806 146.3457246
  41.6277052  83.2745695 146.2939976  51.1106840  76.5824480 135.6850364
  50.2232695  76.8674130 135.4670559  51.5260829  76.4218243 134.8377641
  54.4621376  76.6071001 139.4004704  55.2381766  77.0967453 139.6729321
  53.7369510  77.0329055 139.8576573  56.8993935  77.3198620 140.4578644
  57.4938426  77.0794356 139.7471953  56.9720519  76.6005750 141.0852181
  39.1191091  91.1632231 140.7721809  38.9845559  90.4032632 140.2059807
  38.7023153  91.8873131 140.3050598  50.2550054  86.3469154 129.7798384
  50.9585904  86.5519157 130.3956040  49.5312702  86.9145916 130.0447468
  51.0847864  82.0979016 135.9000655  51.0283065  82.5547567 135.0608287
  51.6376206  81.3369700 135.7223497  54.8952670  77.8868747 136.7250774
  54.6389604  77.4865383 137.5558982  54.2705538  78.6012541 136.6000913
  59.2065008  80.6264821 139.2322066  58.6464566  80.6958010 140.0053628
  58.6008511  80.4505805 138.5121562  42.2760216  92.0601548 140.9840252
  42.1592601  93.0046980 140.8818942  41.4552663  91.7575109 141.3726051
  52.1636751  86.7851684 131.8296844  52.9982355  86.3532882 131.6474319
  52.0021094  86.6133697 132.7573739  51.8182643  83.2883797 133.1953184
  51.7631447  83.1228068 132.2541628  51.1928698  83.9959830 133.3515373
  36.6075158  78.5251861 147.0214606  37.2534022  78.0150815 147.5101831
  36.3992309  79.2620543 147.5958031  49.1328550  85.5932709 152.5206747
  50.0019710  85.7673361 152.1593381  48.6535302  86.4127126 152.3982476
  45.1278769  72.7891906 132.7738502  45.1157438  73.7333746 132.9306773
  46.0202191  72.6062051 132.4797963  43.3014731  92.7129810 144.1996180
  44.2041977  92.7453420 144.5162675  43.0752101  91.7830261 144.2142516
  45.0568333  91.4660796 140.8606259  44.1063964  91.4662658 140.7470631
  45.3600819  90.7193531 140.3442293  48.9430888  69.3834682 137.0284439
  48.1763284  68.8293169 137.1741121  49.3541593  69.4556551 137.8898591
  60.7921026  97.3021335 141.9252021  61.4299436  97.1828082 141.2215361
  60.6741869  98.2502179 141.9839973  57.6010732  97.2548763 141.8613546
  57.2629244  97.1389827 140.9734081  58.4700501  96.8539928 141.8414552
  53.4597548  99.1084239 137.8510437  52.8962413  99.0174176 137.0826725
  53.3449943  98.2884144 138.3312929  58.0830515  98.4083614 147.8199751
  58.0719156  98.0136413 146.9480255  58.2451155  97.6749687 148.4133523
  51.0061980 100.6035431 140.6894657  51.7983272 100.2626255 140.2740957
  51.2458630 100.7130406 141.6096811  59.0397107 102.7755207 133.1624902
  58.3885087 103.3609287 132.7758916  59.8341470 103.3061402 133.2219939
  52.9652734  99.8644344 133.5612036  53.7383610  99.3173331 133.4224912
  53.3178133 100.7288593 133.7726498  54.8037777 101.1920726 146.7678935
  54.5127642 102.0966357 146.6525602  55.4394761 101.2337254 147.4823005
  55.7293983  98.5697575 143.3580295  56.3257556  98.3453597 142.6437258
  55.7868955  97.8282320 143.9605743  55.3019012  96.0237010 131.1930486
  55.5544532  95.5018531 130.4313949  54.3643571  95.8603156 131.2957170
  60.3462295  95.0272788 139.0005229  61.1325384  94.6092212 138.6495646
  60.6100999  95.9318881 139.1686878  60.5172372 100.4645639 133.6993886
  59.8818205 100.5380265 134.4114791  60.1869778 101.0539238 133.0212965
  65.7470722  94.9648022 139.9038208  66.4795894  94.3947239 140.1376037
  64.9910077  94.5769622 140.3444713  55.0215301  97.9265116 133.3954861
  54.9051559  97.2510019 134.0635945  55.1317560  97.4397490 132.5787014
  57.3646841  97.3875263 137.1001550  57.0005049  96.8605884 137.8114472
  58.2213957  96.9973732 136.9268036  63.2696142  88.6769596 144.3632816
  62.9379467  89.5465007 144.1394031  62.6741755  88.3605880 145.0426847
  57.0052328  92.4165163 132.0962899  57.1726731  93.2845399 132.4633370
  56.8149497  92.5792445 131.1724188  59.7627662 100.8782142 143.7628729
  59.4628385 101.7807181 143.6544536  59.4178721 100.6114325 144.6149882
  53.2140143  97.3295939 139.7965434  52.2890640  97.1972153 140.0043125
  53.4624556  98.1090158 140.2935376  63.1624805  93.3964682 141.4426166
  62.2541683  93.3280090 141.1484927  63.1112401  93.8736627 142.2707992
  56.9841549  94.8722820 133.0809566  56.8641174  95.3179871 133.9195046
  56.2894138  95.2208138 132.5223104  50.5748954  96.9729212 140.6309223
  50.7041335  97.2263691 141.5448634  49.8946405  97.5656920 140.3113878
  54.7448441 107.6426462 136.7299697  54.6672471 108.5934287 136.8088177
  54.1410085 107.2972335 137.3874623  57.2365671  94.8154328 149.3861064
  56.4599005  95.3748248 149.3763928  57.8756234  95.3011111 149.9075934
  65.0286452  91.5981120 143.2204040  64.3860832  91.8913654 142.5743835
  64.5241380  91.4834041 144.0257237  62.6826615  95.3444294 133.9089900
  63.5944472  95.5771680 133.7337597  62.1736263  95.9281338 133.3464978
  55.4912043  97.6239781 148.9479031  56.2326728  98.1624825 148.6713854
  54.7849029  98.2506070 149.1050583  60.9667383  99.7668921 147.5451192
  61.3750739  99.3251332 146.8005825  60.2444645  99.1921549 147.7985385
  57.3198453  94.7041528 144.9184749  58.1659648  95.1280942 145.0619398
  57.2597091  94.0475152 145.6123312  61.2896198 100.3270112 141.3003481
  60.6605060 100.4915826 140.5979549  60.9021860 100.7411722 142.0714445
  65.1685430 101.2624550 138.6547845  64.4836468 101.6423451 138.1044878
  65.2529279 101.8719877 139.3879793  60.4697898  92.3645897 146.5765923
  60.2258830  93.1187957 146.0400198  60.7457829  92.7431244 147.4113170
  62.4236361  98.9084509 145.2543188  62.6353257  99.5516269 144.5777569
  62.3766110  98.0746825 144.7865118  60.0262590  91.5202330 142.1579761
  59.1647069  91.8183583 142.4496498  60.0525025  91.7372728 141.2260793
  56.8424160 100.0644520 138.5653566  57.3062505 100.3432223 137.7758189
  56.5780958  99.1627965 138.3826657  53.7348241  99.6116002 141.5033329
  54.3049598 100.0403270 140.8650814  54.3256353  99.3298586 142.2017515
  55.7793046  96.1867672 135.3743131  56.4817089  96.6388716 135.8417058
  55.4473674  95.5451491 136.0023024  54.2273407  94.7779429 149.7494341
  53.5972068  95.4595710 149.9829738  54.1209495  94.6662511 148.8047479
  49.5218380  94.4451225 140.6760265  48.7317434  94.7008754 140.2000376
  50.0129627  95.2599563 140.7812305  63.5382189 101.7856464 143.4265546
  64.3599633 101.3836652 143.1448227  63.5344592 101.6824698 144.3781662
  51.4733125  94.8095804 137.6343742  50.6764288  94.9214499 138.1527237
  51.2458717  95.1482457 136.7684632  57.3038793 101.3340508 145.5826256
  57.3683225 101.7960915 146.4184428  56.5949717 100.7037873 145.7108566
  47.8056083  94.6981716 143.1075256  48.0564121  95.5828725 143.3732832
  48.3415631  94.5186317 142.3350348  71.6288182  98.1295213 139.7750517
  70.8751891  97.5602611 139.6194522  71.7635723  98.0957877 140.7221152
  57.0186810 103.0008615 135.4505237  56.8832485 103.8460151 135.8790084
  57.5596623 103.2027893 134.6871170  53.5054150  89.0800195 152.1119592
  53.1121096  88.5266394 152.7867236  54.3220290  89.3910773 152.5026109
  50.4716208 100.5184053 136.0233162  50.9840728 101.3127303 136.1738726
  51.1238921  99.8210344 135.9566763  52.2811092 103.6349809 138.1055915
  52.4577721 104.5567774 137.9176899  53.0767926 103.3208229 138.5350295
  56.4222111  90.4958074 149.7039848  57.1631824  91.0965227 149.6244311
  56.6540034  89.7535712 149.1457891  51.5663449  95.6814441 147.9818078
  51.4516964  94.7799699 148.2825177  50.7107967  95.9278138 147.6302895
  58.6455287 103.6232182 149.5805579  58.2019141 102.8368560 149.2626483
  59.3072500 103.8111332 148.9149469  53.4042408 105.1527983 144.1066257
  53.9549833 105.0245047 143.3343251  52.5653884 105.4522872 143.7561150
  60.7436525 103.9034982 147.6086980  60.7255000 104.7243863 147.1167249
  61.6656445 103.7789057 147.8337121  57.2009579 101.4179111 148.4510488
  57.7337916 100.6567399 148.2209796  56.6723660 101.1252763 149.1934643
  60.3679274  86.5239177 143.9804130  60.0243543  87.4140819 143.9043241
  60.7358236  86.3340835 143.1173715  48.4365124  98.8472707 136.7992732
  49.2740346  99.2569716 136.5826440  48.6143392  97.9072150 136.7692926
  60.3329557  96.5147788 132.4876565  59.8176180  97.2852393 132.7264953
  60.0606865  95.8412924 133.1109627  57.9176668  91.3597489 137.5461804
  57.0618264  90.9704339 137.3667442  58.3303619  91.4389450 136.6861589
  59.4475814  88.8943832 141.9453363  58.9440610  88.8573967 141.1321169
  59.7406421  89.8036575 142.0050020  55.6918700  88.9782562 140.9519545
  56.5571697  88.7825371 140.5925434  55.7596209  88.7492914 141.8788902
  65.3063831  99.2680143 134.4229739  64.5293274  98.9291302 133.9784901
  65.9855312  99.2732766 133.7484704  60.1215860  94.3874880 134.3136346
  59.8165995  94.7021029 135.1646489  61.0746302  94.4656300 134.3563679
  58.5662292 100.5465104 135.9629300  58.0383653  99.8117863 135.6502538
  58.0649794 101.3239780 135.7169269  63.5455138  98.7414124 141.0796347
  62.8878812  99.4313385 141.1676475  64.3495537  99.1310556 141.4230333
  53.2981019  91.2084770 138.3235912  53.8724771  90.9859951 137.5909105
  53.8852002  91.2773464 139.0764513  62.3560596  97.0958497 139.1300288
  62.8692478  97.7288489 139.6321998  63.0061820  96.4959692 138.7643648
  53.6250606  93.2389231 132.3431797  52.7887919  93.5763917 132.6641072
  53.4855376  93.1038211 131.4058934  55.6003687  88.0826019 137.0510981
  54.9468099  87.7675036 136.4267596  55.5584161  87.4601759 137.7770804
  56.7114892  98.3645314 128.9664273  55.8041954  98.1334567 129.1655422
  57.2085924  97.5682933 129.1538255  59.6182971 107.0742821 131.8860959
  58.9444669 107.3774518 132.4945917  60.0048793 107.8771901 131.5366417
  58.8341427  94.5707952 141.3758629  57.9163989  94.7922899 141.2180317
  59.2501571  94.6454263 140.5170336  59.6176475  95.9699368 136.5061309
  60.3648294  96.4820765 136.1968431  59.8868065  95.6483421 137.3665703
  57.8903125  98.4657909 133.4888263  56.9814345  98.1816941 133.5860733
  57.9198209  98.8856987 132.6291570  63.1222393 102.0764498 137.2579431
  62.6684720 101.2355408 137.3144621  62.4916359 102.7125896 137.5954211
  62.0655312  93.0056484 138.4880098  61.3278069  92.4933870 138.8190341
  62.3182086  92.5656866 137.6763375  61.5655332 103.9140995 138.1929249
  61.8578306 104.4746052 137.4741615  62.0753952 104.2069556 138.9482408
  62.1666940  85.7832736 139.0821868  62.4725816  84.9230100 138.7947783
  62.8919544  86.3750356 138.8820862  48.4591296  96.1863423 137.4703466
  48.2615695  95.5932783 136.7454532  47.9037960  95.8815633 138.1879404
  56.4388019  96.0786529 139.5898059  56.4936629  95.1260366 139.5140535
  55.6279221  96.2345968 140.0739357  57.5879213 100.0066652 130.8276342
  57.1498643  99.2902511 130.3681979  58.3289654 100.2342767 130.2661433
  54.3780379  94.6963589 137.3488438  53.5648245  94.9957760 137.7553630
  54.8739373  94.3019278 138.0662920  56.5288957 104.6921346 139.2822702
  56.4865136 104.9182192 138.3531234  57.4451656 104.4584720 139.4308503
  59.9754591  95.1605413 146.1803332  60.3303979  95.3876887 147.0397797
  60.6226722  95.4923790 145.5580587  65.7052328  98.2823849 136.8852661
  65.5670226  98.4725445 135.9573850  65.3488547  99.0443232 137.3420712
  53.8694454  92.2681944 142.9649673  54.5093833  92.1270704 142.2672636
  53.0371985  91.9816458 142.5888275  65.7321707 100.3500376 141.8963932
  66.1658214 100.2575665 142.7446986  66.4453288 100.3257877 141.2583948
  54.6454758 101.5684375 139.0784665  55.4395356 101.0734695 138.8767240
  53.9346450 101.0402238 138.7152371  59.4649602 103.9502470 143.4297033
  59.5186625 104.5193407 144.1974749  58.5964384 104.1204355 143.0651070
  50.9537521  95.7127457 135.1544418  50.0235109  95.6511912 135.3714380
  51.0494993  95.1903409 134.3581059  50.8723070  92.2382269 137.7422659
  51.1329888  93.1527603 137.6331820  51.6940243  91.7706712 137.8919272
  52.3447996  93.6520027 144.9121484  53.0171049  93.4437389 144.2634133
  51.5177782  93.4542113 144.4726716  66.5937257 100.3924077 144.4296817
  66.7873147 101.2969888 144.6756092  66.4937875  99.9331496 145.2635402
  58.2473568  90.2781968 146.9287145  57.6001483  90.9771917 146.8351621
  59.0174583  90.7118112 147.2963393  61.6552366 100.5430820 150.0037698
  61.5037872 100.3141371 149.0867782  61.6457045 101.5001421 150.0169043
  58.4237702  98.1162732 144.9883965  59.3529762  98.2673892 144.8152932
  58.0028732  98.2046753 144.1332611  57.2226034 102.1413397 142.7582502
  57.0837120 101.7732181 143.6308440  56.4340630 102.6561036 142.5866460
  57.8174186 107.2422493 134.1008039  57.9925942 106.7710537 134.9153661
  57.1306974 107.8688260 134.3289299  58.7731249 101.5195000 140.1471340
  58.4381082 101.4795770 141.0428990  58.2735195 100.8539716 139.6741750
  52.7475493  96.9262630 145.6723921  52.6095291  96.1942868 146.2735460
  53.6580416  96.8371530 145.3908109  61.7090441  98.8651034 130.4208400
  61.0919611  98.1397862 130.3241452  61.2406929  99.6260394 130.0775474
  55.3757794  96.6382589 145.1607601  56.0857412  95.9975781 145.1194219
  55.3327102  96.8895484 146.0833781  63.3644572 103.5749942 148.0814180
  63.3057118 102.8909162 147.4144763  63.7664091 104.3168932 147.6294806
  54.0886728  93.6247807 146.9803240  53.5524085  93.1738545 147.6324837
  53.5003436  93.7593716 146.2373705  52.3835271 110.3911856 140.8747899
  52.6231869 111.0230380 141.5526917  51.5404468 110.0399896 141.1613258
  53.4988987  93.0836458 129.5429704  52.6218453  92.9625259 129.1791951
  53.9746740  92.2922537 129.2908592  63.3661980 101.5389526 146.3128160
  62.4788758 101.2015448 146.4354558  63.9360531 100.8072557 146.5496925
  45.0191127  97.8713618 139.6371211  45.7062167  97.5575348 139.0492226
  44.8639255  98.7754983 139.3638462  49.8225849  92.7603815 144.0656235
  49.7384038  92.1529484 143.3306645  49.0008555  93.2512833 144.0665731
  56.8963133 106.1990979 143.2789403  56.8233304 107.0045950 143.7908707
  56.4540526 106.3982944 142.4537424  56.6852913 105.4362749 136.7892224
  55.9020434 105.9784429 136.8830449  57.3845658 105.9536728 137.1886466
  59.9949563  91.2457378 139.4326430  60.4918262  90.4927340 139.1127500
  59.2236544  91.2821695 138.8669639  67.8479320  96.9497744 141.0744721
  67.8369196  97.8322459 140.7038654  66.9796700  96.5969294 140.8799258
  59.3561817 106.0977813 145.4347561  60.0689789 106.7325277 145.3623463
  58.8651845 106.1941679 144.6187563  61.0779343 100.0029065 137.0064853
  60.1435622 100.1230528 136.8369557  61.2556012  99.1001532 136.7424863
  56.5784531  93.3874761 139.1598114  56.2082319  92.8345801 139.8479020
  57.0743624  92.7832895 138.6073114  64.4651895  95.8446385 137.5414887
  64.9312347  96.6774376 137.4675190  64.9159395  95.3791366 138.2460146
  54.4073730 103.8472256 146.2553132  55.1083190 104.4808739 146.4082527
  53.9368845 104.1886988 145.4948772  62.5328126 102.1890206 134.5401039
  62.8087970 102.0746800 135.4494913  61.6632625 101.7907691 134.5013212
  62.4368558  88.2126972 141.5805789  61.5231637  88.4431198 141.7487996
  62.8661659  88.2965416 142.4319821  62.2075016  96.4016864 144.0805683
  61.5546466  96.6492771 143.4258135  62.5855396  95.5881002 143.7468160
  59.1682190 106.4376557 138.1833853  59.3504584 105.6198213 138.6461605
  59.9915176 106.6544249 137.7458743  59.5024355 105.3644742 135.4448901
  60.0312122 104.8537196 134.8319064  59.7652575 105.0487272 136.3094434
  58.2562589  97.1436675 150.5671720  57.5803226  97.0430804 151.2374095
  59.0790223  96.9875888 151.0307717  50.0041448 103.3808611 143.1884235
  50.5894885 102.6352299 143.3212139  49.8066287 103.6912568 144.0720899
  52.8580103 106.4159859 138.2046677  52.1890479 106.9005986 137.7210717
  52.7192973 106.6629079 139.1190056  44.5959103  95.9514211 141.9088678
  44.6343202  95.4177802 142.7025796  44.0899396  95.4249417 141.2899655
  56.9985372 108.4503602 144.8029336  57.5503680 108.6135224 145.5678421
  57.3391565 109.0408040 144.1309361  51.9749865  90.7978752 145.4051220
  52.0391192  91.6593583 144.9928618  51.9116985  90.1852753 144.6723579
  51.4502138  92.8701884 149.0524255  52.0774176  92.4878962 149.6661779
  50.5930057  92.6516086 149.4179947  61.8496246 103.2764860 150.6577990
  62.3936150 103.8894818 150.1632945  61.2683091 103.8344438 151.1745003
  48.2267680  94.6778313 134.9842610  48.5221121  93.7688992 134.9309663
  47.3255716  94.6566053 134.6623612  60.1353759 106.3985578 141.7893018
  60.0104899 105.5975317 141.2803963  60.7932850 106.8931771 141.3006988
  51.7561927  92.7534310 140.9670158  51.0348513  93.3670278 140.8277631
  52.5455183  93.2892075 140.8886804  62.1988668 104.1994598 143.4172568
  61.2519003 104.0799949 143.3450895  62.5471441 103.3117096 143.4998829
  54.5588241  90.0888737 147.2410810  55.0822643  90.3351033 148.0037119
  54.3400574  90.9208771 146.8213947  49.9555522  92.3592411 135.1081935
  49.6268228  91.4789790 134.9257041  50.3094893  92.3040080 135.9958324
  59.2035101 103.9947314 139.6176920  59.0560063 103.0664021 139.7984490
  60.0288594 104.0167405 139.1333995  53.0697345  92.6465381 135.4757412
  53.4093418  93.1751302 134.7536021  53.5169466  92.9845787 136.2515979
  62.8069223 104.8175873 140.7041793  63.7315770 104.6118734 140.5666244
  62.6384526 104.5692274 141.6131134  55.7640786  91.0302432 144.9260480
  55.4237606  90.2310245 145.3281160  55.0579792  91.3304143 144.3537314
  56.4157258  88.1151744 143.3787803  57.2383327  87.6412222 143.2566694
  56.6595321  88.8942228 143.8786490  55.0565492  91.1440003 133.6750705
  55.7773855  91.5221255 133.1714422  54.4330796  91.8628879 133.7785683
  59.1996615  91.8485152 134.6109037  59.4160230  92.7309789 134.3097866
  58.7190682  91.4571365 133.8814679  53.9395837  94.8070865 141.1879782
  53.7940417  95.1211168 142.0804064  53.4621040  95.4255765 140.6350681
  55.7992219  91.7973413 141.2360672  55.7853788  90.9014506 140.8992970
  56.5164648  91.8044076 141.8698958  57.6518350  92.2310753 143.2813799
  57.3936128  93.1527824 143.2798129  57.1203391  91.8341187 143.9714263
  62.5964539 105.3361540 136.0603884  62.7701416 104.7707963 135.3077737
  63.0893430 106.1362435 135.8783374  48.4141499  97.3476209 144.1267443
  47.8694967  98.1236017 144.2587718  49.2920849  97.6947014 143.9686565
  55.2029115  90.6787793 136.5048242  55.3245027  89.7504439 136.7039129
  54.9131158  90.6926479 135.5926557  58.0720306  88.3642703 139.6414962
  58.0942003  88.4282037 138.6866941  58.4888365  87.5247212 139.8355468
  68.4503930  98.0997963 137.6794184  68.8935076  97.3505288 137.2813307
  67.5730440  98.0908099 137.2967916  63.5839711 104.6528304 133.1600783
  64.2790616 105.2734997 133.3788097  63.9262862 103.8023656 133.4353161
  49.2007521  96.4746105 147.0197600  48.4589257  96.6228741 147.6062230
  48.8800265  96.7354371 146.1564349  65.4831135 102.1028010 134.6888113
  66.0082459 102.4415283 133.9637433  65.3953487 101.1675025 134.5051248
  57.1451183 106.0162084 146.8177990  57.4538310 105.7711230 147.6900690
  57.9426665 106.2208722 146.3296860  57.1671795 108.1699993 139.0483367
  56.7276786 107.6776372 139.7416223  57.9179912 107.6272961 138.8075442
  49.6464134 104.3611534 139.0507995  50.4722154 104.0615306 138.6706638
  49.2958186 103.5919157 139.4997783  54.6145667 103.7138002 141.1205668
  53.9925677 103.0508707 140.8207896  55.2850534 103.7399134 140.4379316
  47.8472739 102.2797861 140.0096928  47.0104648 101.8520035 139.8280930
  47.8196385 102.4730304 140.9467719  54.6870195  92.1919790 150.7138174
  54.7358350  93.0681913 150.3315944  55.2292709  91.6497183 150.1409818
  65.1725041 102.7360914 149.9939311  64.3820584 102.7185052 149.4543811
  64.9358395 103.2749207 150.7488348  65.2922916  99.5853380 147.3072040
  65.3420921  99.4203387 148.2487563  65.1836839  98.7180639 146.9169921
  54.1759174 102.2641926 134.5964129  54.3247295 102.9477390 133.9430802
  54.9825618 102.2447016 135.1113585  62.5826678  95.5684308 148.6231347
  63.4836541  95.4290773 148.3315344  62.6574653  95.7338763 149.5629524
  56.9169483  92.9451163 147.4684533  56.0472793  93.2384729 147.1967122
  57.1528964  93.5291608 148.1891797  66.7941112 102.0050322 147.5514061
  66.5025921 102.3680302 148.3877522  66.1813244 101.2917330 147.3727394
  67.9936795  99.5703201 140.0716632  68.8283686 100.0093005 140.2354192
  68.1295924  99.0941855 139.2524877  65.0428301  97.1282936 146.0194119
  65.5182422  97.3210582 145.2112971  64.1193866  97.1842122 145.7737503
  51.9311807  98.2907103 135.6025198  51.6857849  97.3869433 135.8005408
  52.1007722  98.2924254 134.6604676  59.6208517  89.1630780 144.9849953
  60.1390461  89.8991807 144.6596442  59.2663650  89.4694773 145.8196712
  51.2007455  94.0235461 133.1011359  50.5076700  94.0979816 132.4451395
  50.9559207  93.2595805 133.6232876  59.8721111  85.5831062 140.5050850
  60.1522865  84.9154251 141.1311276  60.6571718  85.7760158 139.9925514
  57.6754580 104.7590056 132.0675876  57.1028547 105.3780243 131.6146348
  58.2487374 105.3089418 132.6015798  63.7429970  94.0048696 144.2522425
  64.6947393  94.1046794 144.2734649  63.5733420  93.2126965 144.7620509
  61.7644349  91.0904279 144.4381826  61.1694281  91.3709292 143.7428315
  61.4794046  91.5798180 145.2098567  60.8951840 105.0427206 133.1984459
  61.8282513 104.9772768 133.4017334  60.8075052 105.8783473 132.7398991
  63.5239856 104.3593077 130.1588406  63.4453488 104.0252940 131.0524164
  64.3449523 104.8514845 130.1579878  66.2218047  97.2254816 143.3664725
  66.1894368  96.2870817 143.5524409  66.8318671  97.3038853 142.6330550
  58.0601378  96.0950869 129.4091929  59.0060483  95.9657077 129.4780347
  57.6815623  95.3565531 129.8861357  66.3712536  94.0165859 143.4123008
  65.8551585  93.2324316 143.2252937  67.2552485  93.6884576 143.5769527
  64.0323263  87.7606875 139.3718821  63.8348084  87.4521963 140.2562153
  64.6422968  88.4868514 139.5016750  72.0394597  98.2870823 142.5070762
  72.7697986  98.0256111 143.0678465  71.4301543  97.5499545 142.5472829
  70.1209894  96.4278685 143.1045213  69.3943058  96.2934650 142.4961704
  69.7057181  96.7355514 143.9101931  57.9440071 100.1468615 150.8692586
  58.8643080 100.3247214 151.0632632  57.9089654  99.2024660 150.7172285
  56.2444296  94.0200845 129.3446814  55.3375751  93.7233958 129.4209528
  56.5220277  93.7230663 128.4781100  47.1622236  95.3407209 139.7945860
  46.8425020  94.4872517 139.5020234  46.6155664  95.5555787 140.5503828
  50.9402143  98.0569650 143.5115367  51.1588153  98.9886757 143.5303401
  51.3527917  97.6977624 144.2970171  57.8606361  88.5637735 135.4991055
  57.0507090  88.2184820 135.8746301  58.5490778  88.2545279 136.0878667
  59.7896910  87.6415782 137.1215352  60.3427948  88.0611235 137.7805375
  60.0266996  86.7151530 137.1638308  55.8130009  93.6302855 152.9018116
  55.7126736  94.5797212 152.8330207  55.5951551  93.3021094 152.0294186
  55.0143080  90.8787780 129.4858793  55.8762244  91.2042679 129.7454611
  55.1993424  90.0919276 128.9731859  47.0310496  98.9610120 141.7638982
  46.3373967  98.5464073 141.2508936  47.7783487  99.0030657 141.1672401
  63.1675717  89.7516307 136.6294016  62.5874386  90.4101111 136.2472069
  62.9011649  88.9293652 136.2181434  61.6179283  89.1521365 138.8315337
  62.1179061  89.2637899 138.0229655  62.2614891  88.8482418 139.4716145
  55.6761279  97.0599994 151.7183177  55.1928361  97.8600354 151.9247067
  55.7622218  97.0707939 150.7650621  48.9447238  98.8928374 139.6404997
  48.9217927  98.9916061 138.6886880  49.2547875  99.7393525 139.9622163
  51.6034616 100.9504529 143.7551611  52.5577870 100.9188471 143.6881543
  51.4047140 100.4895153 144.5701837  52.1933998  99.5205645 146.3222409
  53.0126887 100.0149724 146.3457246  52.4670806  98.6037613 146.2939976
  61.9500595  91.9116397 135.6850364  61.0626450  92.1966048 135.4670559
  62.3654584  91.7510161 134.8377641  65.3015131  91.9362918 139.4004704
  66.0775521  92.4259371 139.6729321  64.5763265  92.3620973 139.8576573
  67.7387689  92.6490538 140.4578644  68.3332180  92.4086273 139.7471953
  67.8114273  91.9297668 141.0852181  49.9584845 106.4924148 140.7721809
  49.8239313 105.7324549 140.2059807  49.5416907 107.2165048 140.3050598
  61.0943808 101.6761072 129.7798384  61.7979658 101.8811075 130.3956040
  60.3706457 102.2437834 130.0447468  61.9241618  97.4270933 135.9000655
  61.8676820  97.8839485 135.0608287  62.4769961  96.6661618 135.7223497
  65.7346424  93.2160665 136.7250774  65.4783359  92.8157301 137.5558982
  65.1099292  93.9304459 136.6000913  70.0458762  95.9556738 139.2322066
  69.4858320  96.0249928 140.0053628  69.4402266  95.7797723 138.5121562
  53.1153971 107.3893465 140.9840252  52.9986355 108.3338898 140.8818942
  52.2946417 107.0867027 141.3726051  63.0030506 102.1143601 131.8296844
  63.8376109 101.6824800 131.6474319  62.8414848 101.9425615 132.7573739
  62.6576398  98.6175715 133.1953184  62.6025201  98.4519986 132.2541628
  62.0322453  99.3251747 133.3515373  47.4468913  93.8543779 147.0214606
  48.0927776  93.3442733 147.5101831  47.2386064  94.5912461 147.5958031
  59.9722305 100.9224626 152.5206747  60.8413464 101.0965279 152.1593381
  59.4929056 101.7419043 152.3982476  55.9672523  88.1183824 132.7738502
  55.9551193  89.0625663 132.9306773  56.8595945  87.9353969 132.4797963
  54.1408485 108.0421727 144.1996180  55.0435732 108.0745338 144.5162675
  53.9145855 107.1122178 144.2142516  55.8962087 106.7952714 140.8606259
  54.9457718 106.7954576 140.7470631  56.1994573 106.0485449 140.3442293
  59.7824643  84.7126600 137.0284439  59.0157038  84.1585087 137.1741121
  60.1935348  84.7848469 137.8898591  51.7866404  91.0011396 151.1189620
  52.6497865  90.6448201 151.3292945  51.2131814  90.6625291 151.8065024
  71.6314781 112.6313252 141.9252021  72.2693191 112.5120000 141.2215361
  71.5135623 113.5794096 141.9839973  68.4404487 112.5840680 141.8613546
  68.1022998 112.4681745 140.9734081  69.3094255 112.1831846 141.8414552
  64.2991303 114.4376157 137.8510437  63.7356168 114.3466094 137.0826725
  64.1843698 113.6176061 138.3312929  61.8455735 115.9327348 140.6894657
  62.6377026 115.5918173 140.2740957  62.0852385 116.0422323 141.6096811
  69.8790861 118.1047125 133.1624902  69.2278841 118.6901205 132.7758916
  70.6735224 118.6353319 133.2219939  63.8046488 115.1936262 133.5612036
  64.5777364 114.6465249 133.4224912  64.1571887 116.0580511 133.7726498
  66.5687738 113.8989492 143.3580295  67.1651310 113.6745515 142.6437258
  66.6262709 113.1574238 143.9605743  66.1412766 111.3528928 131.1930486
  66.3938287 110.8310449 130.4313949  65.2037325 111.1895073 131.2957170
  71.1856049 110.3564706 139.0005229  71.9719138 109.9384129 138.6495646
  71.4494753 111.2610798 139.1686878  71.3566126 115.7937556 133.6993886
  70.7211959 115.8672183 134.4114791  71.0263533 116.3831155 133.0212965
  76.5864476 110.2939939 139.9038208  77.3189648 109.7239156 140.1376037
  75.8303832 109.9061540 140.3444713  65.8609055 113.2557034 133.3954861
  65.7445313 112.5801937 134.0635945  65.9711315 112.7689408 132.5787014
  68.2040596 112.7167181 137.1001550  67.8398803 112.1897802 137.8114472
  69.0607712 112.3265650 136.9268036  74.1089897 104.0061513 144.3632816
  73.7773221 104.8756924 144.1394031  73.5135510 103.6897797 145.0426847
  67.8446083 107.7457081 132.0962899  68.0120485 108.6137317 132.4633370
  67.6543252 107.9084362 131.1724188  64.0533898 112.6587856 139.7965434
  63.1284394 112.5264070 140.0043125  64.3018311 113.4382076 140.2935376
  74.0018560 108.7256600 141.4426166  73.0935437 108.6572008 141.1484927
  73.9506156 109.2028545 142.2707992  67.8235304 110.2014738 133.0809566
  67.7034929 110.6471789 133.9195046  67.1287892 110.5500056 132.5223104
  61.4142709 112.3021130 140.6309223  61.5435090 112.5555609 141.5448634
  60.7340160 112.8948838 140.3113878  65.5842196 122.9718380 136.7299697
  65.5066226 123.9226205 136.8088177  64.9803839 122.6264252 137.3874623
  75.8680206 106.9273038 143.2204040  75.2254587 107.2205571 142.5743835
  75.3635135 106.8125958 144.0257237  73.5220370 110.6736211 133.9089900
  74.4338226 110.9063598 133.7337597  73.0130017 111.2573255 133.3464978
  68.1592208 110.0333446 144.9184749  69.0053403 110.4572859 145.0619398
  68.0990845 109.3767070 145.6123312  70.8656345 106.8494247 142.1579761
  70.0040824 107.1475501 142.4496498  70.8918779 107.0664646 141.2260793
  67.6817914 115.3936438 138.5653566  68.1456260 115.6724141 137.7758189
  67.4174712 114.4919882 138.3826657  64.5741995 114.9407919 141.5033329
  65.1443352 115.3695188 140.8650814  65.1650107 114.6590504 142.2017515
  66.6186800 111.5159590 135.3743131  67.3210844 111.9680634 135.8417058
  66.2867429 110.8743409 136.0023024  60.3612134 109.7743143 140.6760265
  59.5711188 110.0300671 140.2000376  60.8523382 110.5891481 140.7812305
  62.3126880 110.1387722 137.6343742  61.5158043 110.2506416 138.1527237
  62.0852472 110.4774374 136.7684632  58.6449837 110.0273633 143.1075256
  58.8957876 110.9120643 143.3732832  59.1809386 109.8478235 142.3350348
  67.8580565 118.3300533 135.4505237  67.7226240 119.1752069 135.8790084
  68.3990377 118.5319810 134.6871170  61.3109962 115.8475971 136.0233162
  61.8234483 116.6419221 136.1738726  61.9632675 115.1502261 135.9566763
  63.1204847 118.9641727 138.1055915  63.2971475 119.8859692 137.9176899
  63.9161680 118.6500146 138.5350295  62.4057203 111.0106359 147.9818078
  62.2910719 110.1091616 148.2825177  61.5501721 111.2570056 147.6302895
  71.2073028 101.8531095 143.9804130  70.8637298 102.7432736 143.9043241
  71.5751991 101.6632752 143.1173715  59.2758879 114.1764625 136.7992732
  60.1134101 114.5861633 136.5826440  59.4537147 113.2364067 136.7692926
  71.1723311 111.8439706 132.4876565  70.6569935 112.6144310 132.7264953
  70.9000620 111.1704842 133.1109627  68.7570422 106.6889407 137.5461804
  67.9012018 106.2996257 137.3667442  69.1697374 106.7681367 136.6861589
  70.2869569 104.2235750 141.9453363  69.7834364 104.1865885 141.1321169
  70.5800176 105.1328493 142.0050020  66.5312455 104.3074480 140.9519545
  67.3965451 104.1117288 140.5925434  66.5989964 104.0784831 141.8788902
  76.1457585 114.5972060 134.4229739  75.3687028 114.2583220 133.9784901
  76.8249066 114.6024684 133.7484704  70.9609614 109.7166798 134.3136346
  70.6559750 110.0312947 135.1646489  71.9140056 109.7948218 134.3563679
  69.4056046 115.8757021 135.9629300  68.8777408 115.1409781 135.6502538
  68.9043549 116.6531698 135.7169269  64.1374774 106.5376687 138.3235912
  64.7118526 106.3151869 137.5909105  64.7245756 106.6065382 139.0764513
  73.1954351 112.4250414 139.1300288  73.7086233 113.0580406 139.6321998
  73.8455575 111.8251610 138.7643648  64.4644361 108.5681148 132.3431797
  63.6281673 108.9055835 132.6641072  64.3249130 108.4330128 131.4058934
  66.4397441 103.4117936 137.0510981  65.7861854 103.0966954 136.4267596
  66.3977916 102.7893677 137.7770804  67.5508646 113.6937231 128.9664273
  66.6435708 113.4626485 129.1655422  68.0479678 112.8974851 129.1538255
  70.4576725 122.4034739 131.8860959  69.7838424 122.7066435 132.4945917
  70.8442547 123.2063819 131.5366417  69.6735182 109.8999870 141.3758629
  68.7557743 110.1214817 141.2180317  70.0895325 109.9746180 140.5170336
  70.4570230 111.2991286 136.5061309  71.2042049 111.8112683 136.1968431
  70.7261819 110.9775338 137.3665703  68.7296880 113.7949826 133.4888263
  67.8208099 113.5108859 133.5860733  68.7591964 114.2148905 132.6291570
  73.9616147 117.4056416 137.2579431  73.5078474 116.5647326 137.3144621
  73.3310114 118.0417814 137.5954211  72.9049067 108.3348402 138.4880098
  72.1671824 107.8225788 138.8190341  73.1575840 107.8948783 137.6763375
  72.4049086 119.2432912 138.1929249  72.6972061 119.8037970 137.4741615
  72.9147707 119.5361473 138.9482408  73.0060694 101.1124654 139.0821868
  73.3119571 100.2522017 138.7947783  73.7313299 101.7042274 138.8820862
  59.2985050 111.5155340 137.4703466  59.1009450 110.9224701 136.7454532
  58.7431714 111.2107551 138.1879404  67.2781774 111.4078447 139.5898059
  67.3330384 110.4552283 139.5140535  66.4672976 111.5637886 140.0739357
  68.4272968 115.3358570 130.8276342  67.9892397 114.6194429 130.3681979
  69.1683408 115.5634685 130.2661433  65.2174134 110.0255507 137.3488438
  64.4041999 110.3249677 137.7553630  65.7133128 109.6311195 138.0662920
  67.3682712 120.0213264 139.2822702  67.3258890 120.2474110 138.3531234
  68.2845410 119.7876638 139.4308503  76.5446082 113.6115767 136.8852661
  76.4063981 113.8017363 135.9573850  76.1882301 114.3735150 137.3420712
  64.7088208 107.5973862 142.9649673  65.3487588 107.4562621 142.2672636
  63.8765739 107.3108376 142.5888275  65.4848512 116.8976293 139.0784665
  66.2789111 116.4026613 138.8767240  64.7740205 116.3694156 138.7152371
  61.7931276 111.0419374 135.1544418  60.8628864 110.9803830 135.3714380
  61.8888748 110.5195327 134.3581059  61.7116825 107.5674187 137.7422659
  61.9723642 108.4819520 137.6331820  62.5333997 107.0998630 137.8919272
  63.1841750 108.9811944 144.9121484  63.8564804 108.7729306 144.2634133
  62.3571537 108.7834030 144.4726716  69.0867322 105.6073885 146.9287145
  68.4395237 106.3063835 146.8351621  69.8568338 106.0410029 147.2963393
  68.6567940 122.5714411 134.1008039  68.8319696 122.1002454 134.9153661
  67.9700728 123.1980177 134.3289299  69.6125004 116.8486917 140.1471340
  69.2774836 116.8087687 141.0428990  69.1128949 116.1831633 139.6741750
  63.5869247 112.2554547 145.6723921  63.4489045 111.5234786 146.2735460
  64.4974171 112.1663447 145.3908109  72.5484195 114.1942952 130.4208400
  71.9313366 113.4689780 130.3241452  72.0800684 114.9552312 130.0775474
  64.9280482 108.9539725 146.9803240  64.3917839 108.5030463 147.6324837
  64.3397191 109.0885633 146.2373705  64.3382741 108.4128376 129.5429704
  63.4612207 108.2917177 129.1791951  64.8140494 107.6214454 129.2908592
  55.8584881 113.2005536 139.6371211  56.5455921 112.8867266 139.0492226
  55.7033010 114.1046900 139.3638462  60.6619603 108.0895732 144.0656235
  60.5777792 107.4821402 143.3306645  59.8402310 108.5804751 144.0665731
  67.5246667 120.7654666 136.7892224  66.7414189 121.3076346 136.8830449
  68.2239412 121.2828646 137.1886466  70.8343317 106.5749296 139.4326430
  71.3312017 105.8219258 139.1127500  70.0630299 106.6113612 138.8669639
  71.9173098 115.3320983 137.0064853  70.9829377 115.4522445 136.8369557
  72.0949766 114.4293450 136.7424863  67.4178286 108.7166679 139.1598114
  67.0476073 108.1637719 139.8479020  67.9137378 108.1124812 138.6073114
  75.3045649 111.1738302 137.5414887  75.7706101 112.0066294 137.4675190
  75.7553150 110.7083284 138.2460146  73.3721880 117.5182124 134.5401039
  73.6481724 117.4038718 135.4494913  72.5026379 117.1199608 134.5013212
  73.2762312 103.5418889 141.5805789  72.3625392 103.7723116 141.7487996
  73.7055413 103.6257333 142.4319821  70.0075944 121.7668474 138.1833853
  70.1898339 120.9490130 138.6461605  70.8308930 121.9836167 137.7458743
  70.3418110 120.6936660 135.4448901  70.8705876 120.1829114 134.8319064
  70.6046329 120.3779190 136.3094434  60.8435203 118.7100529 143.1884235
  61.4288639 117.9644217 143.3212139  60.6460041 119.0204486 144.0720899
  63.6973858 121.7451776 138.2046677  63.0284233 122.2297904 137.7210717
  63.5586728 121.9920997 139.1190056  55.4352857 111.2806129 141.9088678
  55.4736957 110.7469720 142.7025796  54.9293150 110.7541335 141.2899655
  62.8143620 106.1270670 145.4051220  62.8784946 106.9885500 144.9928618
  62.7510740 105.5144671 144.6723579  62.2895892 108.1993802 149.0524255
  62.9167931 107.8170879 149.6661779  61.4323811 107.9808004 149.4179947
  59.0661435 110.0070231 134.9842610  59.3614876 109.0980910 134.9309663
  58.1649471 109.9857971 134.6623612  62.5955682 108.0826228 140.9670158
  61.8742268 108.6962195 140.8277631  63.3848938 108.6183993 140.8886804
  65.3981995 105.4180654 147.2410810  65.9216397 105.6642951 148.0037119
  65.1794329 106.2500689 146.8213947  60.7949276 107.6884329 135.1081935
  60.4661983 106.8081708 134.9257041  61.1488647 107.6331998 135.9958324
  70.0428855 119.3239232 139.6176920  69.8953818 118.3955939 139.7984490
  70.8682349 119.3459322 139.1333995  63.9091100 107.9757299 135.4757412
  64.2487172 108.5043220 134.7536021  64.3563220 108.3137705 136.2515979
  66.6034540 106.3594349 144.9260480  66.2631361 105.5602162 145.3281160
  65.8973547 106.6596060 144.3537314  67.2551012 103.4443662 143.3787803
  68.0777082 102.9704140 143.2566694  67.4989076 104.2234146 143.8786490
  65.8959247 106.4731920 133.6750705  66.6167609 106.8513173 133.1714422
  65.2724551 107.1920797 133.7785683  70.0390370 107.1777069 134.6109037
  70.2553984 108.0601707 134.3097866  69.5584437 106.7863283 133.8814679
  64.7789591 110.1362782 141.1879782  64.6334172 110.4503085 142.0804064
  64.3014795 110.7547683 140.6350681  66.6385974 107.1265330 141.2360672
  66.6247543 106.2306424 140.8992970  67.3558402 107.1335994 141.8698958
  68.4912105 107.5602671 143.2813799  68.2329882 108.4819741 143.2798129
  67.9597145 107.1633105 143.9714263  73.4358293 120.6653458 136.0603884
  73.6095171 120.0999880 135.3077737  73.9287185 121.4654353 135.8783374
  59.2535253 112.6768127 144.1267443  58.7088721 113.4527935 144.2587718
  60.1314603 113.0238931 143.9686565  66.0422870 106.0079711 136.5048242
  66.1638781 105.0796357 136.7039129  65.7524912 106.0218397 135.5926557
  68.9114060 103.6934621 139.6414962  68.9335757 103.7573954 138.6866941
  69.3282119 102.8539130 139.8355468  79.2897685 113.4289881 137.6794184
  79.7328831 112.6797206 137.2813307  78.4124195 113.4200017 137.2967916
  74.4233466 119.9820222 133.1600783  75.1184371 120.6026915 133.3788097
  74.7656616 119.1315573 133.4353161  60.0401275 111.8038023 147.0197600
  59.2983011 111.9520658 147.6062230  59.7194019 112.0646289 146.1564349
  76.3224889 117.4319928 134.6888113  76.8476213 117.7707200 133.9637433
  76.2347242 116.4966943 134.5051248  60.4857889 119.6903452 139.0507995
  61.3115909 119.3907224 138.6706638  60.1351941 118.9211074 139.4997783
  65.4539422 119.0429920 141.1205668  64.8319431 118.3800625 140.8207896
  66.1244289 119.0691052 140.4379316  58.6866494 117.6089778 140.0096928
  57.8498402 117.1811953 139.8280930  58.6590139 117.8022222 140.9467719
  65.0152929 117.5933843 134.5964129  65.1641049 118.2769308 133.9430802
  65.8219372 117.5738933 135.1113585  62.7705562 113.6199021 135.6025198
  62.5251604 112.7161351 135.8005408  62.9401476 113.6216171 134.6604676
  70.4602272 104.4922697 144.9849953  70.9784216 105.2283724 144.6596442
  70.1057404 104.7986691 145.8196712  62.0401209 109.3527379 133.1011359
  61.3470454 109.4271734 132.4451395  61.7952961 108.5887722 133.6232876
  70.7114866 100.9122980 140.5050850  70.9916620 100.2446169 141.1311276
  71.4965473 101.1052076 139.9925514  68.5148334 120.0881974 132.0675876
  67.9422301 120.7072161 131.6146348  69.0881128 120.6381336 132.6015798
  72.6038104 106.4196197 144.4381826  72.0088036 106.7001210 143.7428315
  72.3187800 106.9090098 145.2098567  71.7345594 120.3719124 133.1984459
  72.6676267 120.3064686 133.4017334  71.6468807 121.2075391 132.7398991
  74.3633611 119.6884994 130.1588406  74.2847242 119.3544858 131.0524164
  75.1843278 120.1806762 130.1579878  68.8995133 111.4242787 129.4091929
  69.8454238 111.2948995 129.4780347  68.5209378 110.6857448 129.8861357
  74.8717017 103.0898793 139.3718821  74.6741839 102.7813881 140.2562153
  75.4816723 103.8160432 139.5016750  67.0838050 109.3492763 129.3446814
  66.1769505 109.0525876 129.4209528  67.3614031 109.0522581 128.4781100
  58.0015990 110.6699126 139.7945860  57.6818775 109.8164435 139.5020234
  57.4549419 110.8847705 140.5503828  61.7795898 113.3861567 143.5115367
  61.9981908 114.3178675 143.5303401  62.1921672 113.0269542 144.2970171
  68.7000116 103.8929653 135.4991055  67.8900844 103.5476738 135.8746301
  69.3884533 103.5837196 136.0878667  70.6290664 102.9707699 137.1215352
  71.1821703 103.3903153 137.7805375  70.8660750 102.0443448 137.1638308
  65.8536835 106.2079698 129.4858793  66.7155999 106.5334596 129.7454611
  66.0387179 105.4211194 128.9731859  57.8704250 114.2902038 141.7638982
  57.1767722 113.8755991 141.2508936  58.6177241 114.3322574 141.1672401
  74.0069471 105.0808225 136.6294016  73.4268140 105.7393029 136.2472069
  73.7405404 104.2585569 136.2181434  72.4573037 104.4813282 138.8315337
  72.9572816 104.5929817 138.0229655  73.1008645 104.1774335 139.4716145
  59.7840993 114.2220292 139.6404997  59.7611681 114.3207979 138.6886880
  60.0941629 115.0685442 139.9622163  62.4428371 116.2796447 143.7551611
  63.3971624 116.2480389 143.6881543  62.2440894 115.8187070 144.5701837
  72.7894349 107.2408315 135.6850364  71.9020204 107.5257966 135.4670559
  73.2048338 107.0802078 134.8377641  76.1408885 107.2654836 139.4004704
  76.9169275 107.7551288 139.6729321  75.4157019 107.6912890 139.8576573
  78.5781444 107.9782455 140.4578644  79.1725935 107.7378191 139.7471953
  78.6508028 107.2589586 141.0852181  60.7978600 121.8216066 140.7721809
  60.6633068 121.0616467 140.2059807  60.3810662 122.5456966 140.3050598
  71.9337563 117.0052990 129.7798384  72.6373413 117.2102992 130.3956040
  71.2100211 117.5729752 130.0447468  72.7635373 112.7562851 135.9000655
  72.7070574 113.2131402 135.0608287  73.3163715 111.9953536 135.7223497
  76.5740179 108.5452583 136.7250774  76.3177113 108.1449218 137.5558982
  75.9493047 109.2596377 136.6000913  80.8852517 111.2848656 139.2322066
  80.3252075 111.3541845 140.0053628  80.2796020 111.1089641 138.5121562
  73.8424260 117.4435519 131.8296844  74.6769864 117.0116717 131.6474319
  73.6808603 117.2717533 132.7573739  73.4970152 113.9467632 133.1953184
  73.4418956 113.7811904 132.2541628  72.8716207 114.6543665 133.3515373
  58.2862667 109.1835697 147.0214606  58.9321531 108.6734651 147.5101831
  58.0779818 109.9204378 147.5958031  66.8066278 103.4475741 132.7738502
  66.7944947 104.3917581 132.9306773  67.6989700 103.2645887 132.4797963
  70.6218397 100.0418518 137.0284439  69.8550793  99.4877005 137.1741121
  71.0329102 100.1140387 137.8898591  76.9806521 126.6820845 131.1930486
  77.2332041 126.1602367 130.4313949  76.0431080 126.5186991 131.2957170
  78.6839837 123.0748998 132.0962899  78.8514240 123.9429235 132.4633370
  78.4937006 123.2376280 131.1724188  75.3038115 123.8973066 132.3431797
  74.4675428 124.2347753 132.6641072  75.1642885 123.7622046 131.4058934
  77.2791196 118.7409854 137.0510981  76.6255608 118.4258871 136.4267596
  77.2371670 118.1185594 137.7770804  78.3902401 129.0229149 128.9664273
  77.4829463 128.7918403 129.1655422  78.8873433 128.2266768 129.1538255
  75.1776496 123.7420294 129.5429704  74.3005962 123.6209094 129.1791951
  75.6534249 122.9506372 129.2908592  69.9055189 125.3362149 134.9842610
  70.2008630 124.4272827 134.9309663  69.0043225 125.3149888 134.6623612
  71.6343031 123.0176246 135.1081935  71.3055737 122.1373625 134.9257041
  71.9882402 122.9623915 135.9958324  76.7353001 121.8023838 133.6750705
  77.4561364 122.1805091 133.1714422  76.1118305 122.5212715 133.7785683
  72.8794964 124.6819296 133.1011359  72.1864209 124.7563651 132.4451395
  72.6346716 123.9179640 133.6232876  79.7388887 126.7534704 129.4091929
  80.6847992 126.6240912 129.4780347  79.3603132 126.0149366 129.8861357
  77.9231804 124.6784681 129.3446814  77.0163260 124.3817793 129.4209528
  78.2007786 124.3814499 128.4781100  79.5393870 119.2221570 135.4991055
  78.7294599 118.8768655 135.8746301  80.2278287 118.9129114 136.0878667
  76.6930589 121.5371616 129.4858793  77.5549753 121.8626514 129.7454611
  76.8780933 120.7503112 128.9731859  77.6460032 118.7767659 132.7738502
  77.6338702 119.7209499 132.9306773  78.5383454 118.5937804 132.4797963
  26.5215845  33.7941576 119.8870208  25.8703824  34.3795657 119.5004222
  27.3160207  34.3247771 119.9465246  32.7882569  30.2866512 121.1475045
  32.0112011  29.9477672 120.7030207  33.4674050  30.2919135 120.4730010
  24.1933630  29.3831683 115.6909580  23.2860691  29.1520937 115.8900729
  24.6904662  28.5869303 115.8783562  27.1001708  38.0929191 118.6106266
  26.4263407  38.3960887 119.2191224  27.4867530  38.8958271 118.2611723
  25.0697951  31.0253022 117.5521649  24.6317381  30.3088881 117.0927286
  25.8108392  31.2529137 116.9906740  25.2992924  38.2608863 120.8253345
  25.4744679  37.7896906 121.6398968  24.6125712  38.8874629 121.0534606
  29.1909178  29.8837404 117.1453706  28.5738349  29.1584232 117.0486759
  28.7225667  30.6446764 116.8020780  30.0146864  33.2076575 121.2646346
  30.2906708  33.0933170 122.1740220  29.1451362  32.8094060 121.2258519
  26.9843093  36.3831111 122.1694208  27.5130860  35.8723566 121.5564370
  27.2471313  36.0673642 123.0339741  30.0783277  36.3547910 122.7849191
  30.2520154  35.7894332 122.0323044  30.5712168  37.1548804 122.6028681
  31.0658449  35.6714674 119.8846089  31.7609354  36.2921367 120.1033404
  31.4081599  34.8210025 120.1598467  32.9649872  33.1214380 121.4133420
  33.4901196  33.4601652 120.6882740  32.8772225  32.1861395 121.2296555
  25.1573318  35.7776426 118.7921183  24.5847285  36.3966613 118.3391655
  25.7306111  36.3275787 119.3261105  28.3770577  36.0613576 119.9229765
  29.3101251  35.9959138 120.1262641  28.2893790  36.8969843 119.4644298
  31.0058594  35.3779446 116.8833713  30.9272226  35.0439310 117.7769471
  31.8268261  35.8701214 116.8825185  25.5420116  27.1137238 116.1337235
  26.4879221  26.9843447 116.2025653  25.1634361  26.3751900 116.6106664
  28.5762546  32.6947442 116.5043691  29.2798396  32.8997444 117.1201347
  27.8525195  33.2624203 116.7692775  30.4849243  33.1329971 118.5542151
  31.3194847  32.7011169 118.3719626  30.3233586  32.9611984 119.4819046
  30.1395135  29.6362084 119.9198490  30.0843939  29.4706356 118.9786935
  29.5141191  30.3438117 120.0760680  39.1133518  43.6499622 128.6497328
  39.7511928  43.5306369 127.9460668  38.9954361  44.5980466 128.7085280
  35.9223225  43.6027050 128.5858853  35.5841736  43.4868115 127.6979387
  36.7912993  43.2018215 128.5659859  31.7810040  45.4562526 124.5755744
  31.2174905  45.3652463 123.8072031  31.6662435  44.6362431 125.0558236
  29.3274472  46.9513718 127.4139964  30.1195764  46.6104543 126.9986263
  29.5671122  47.0608693 128.3342117  37.3609599  49.1233494 119.8870208
  36.7097579  49.7087575 119.5004222  38.1553962  49.6539689 119.9465246
  31.2865226  46.2122631 120.2857343  32.0596102  45.6651618 120.1470219
  31.6390625  47.0766881 120.4971804  34.0506476  44.9175862 130.0825602
  34.6470048  44.6931884 129.3682565  34.1081447  44.1760608 130.6851050
  33.6231504  42.3715297 117.9175793  33.8757025  41.8496819 117.1559256
  32.6856063  42.2081443 118.0202476  38.6674787  41.3751076 125.7250536
  39.4537876  40.9570499 125.3740953  38.9313491  42.2797168 125.8932184
  38.8384864  46.8123926 120.4239193  38.2030697  46.8858553 121.1360097
  38.5082271  47.4017525 119.7458272  44.0683214  41.3126309 126.6283514
  44.8008386  40.7425526 126.8621344  43.3122570  40.9247909 127.0690020
  33.3427793  44.2743403 120.1200168  33.2264051  43.5988307 120.7881252
  33.4530053  43.7875777 119.3032321  35.6859334  43.7353550 123.8246857
  35.3217541  43.2084171 124.5359778  36.5426450  43.3452019 123.6513342
  35.3264821  38.7643450 118.8208205  35.4939223  39.6323687 119.1878676
  35.1361990  38.9270732 117.8969495  38.0840154  47.2260429 130.4874036
  37.7840877  48.1285468 130.3789843  37.7391213  46.9592612 131.3395189
  31.5352635  43.6774226 126.5210740  30.6103132  43.5450440 126.7288432
  31.7837049  44.4568445 127.0180683  41.4837298  39.7442969 128.1671473
  40.5754175  39.6758378 127.8730234  41.4324893  40.2214914 128.9953299
  35.3054042  41.2201108 119.8054872  35.1853667  41.6658158 120.6440353
  34.6106630  41.5686425 119.2468410  28.8961446  43.3207499 127.3554529
  29.0253828  43.5741978 128.2693941  28.2158898  43.9135207 127.0359184
  33.0660934  53.9904749 123.4545003  32.9884963  54.9412574 123.5333484
  32.4622577  53.6450622 124.1119930  41.0039108  41.6922581 120.6335206
  41.9156964  41.9249968 120.4582904  40.4948755  42.2759625 120.0710285
  39.6108690  46.6748399 128.0248788  38.9817552  46.8394113 127.3224856
  39.2234352  47.0890009 128.7959752  43.4897922  47.6102837 125.3793151
  42.8048960  47.9901738 124.8290185  43.5741771  48.2198164 126.1125099
  40.7448854  45.2562796 131.9788495  40.9565749  45.8994556 131.3022876
  40.6978602  44.4225113 131.5110425  35.1636652  46.4122807 125.2898873
  35.6274997  46.6910510 124.5003495  34.8993450  45.5106252 125.1071964
  32.0560733  45.9594289 128.2278636  32.6262090  46.3881557 127.5896121
  32.6468845  45.6776874 128.9262822  34.1005538  42.5345960 122.0988438
  34.8029581  42.9867003 122.5662364  33.7686166  41.8929779 122.7268331
  41.8594681  48.1334752 130.1510852  42.6812125  47.7314939 129.8693534
  41.8557084  48.0302986 131.1026968  29.7945617  41.1574092 124.3589048
  28.9976781  41.2692786 124.8772544  29.5671210  41.4960744 123.4929939
  35.6251285  47.6818795 132.3071563  35.6895717  48.1439202 133.1429735
  34.9162209  47.0516160 132.4353873  49.9500675  44.4773500 126.4995824
  49.1964383  43.9080898 126.3439828  50.0848216  44.4436165 127.4466459
  35.3399303  49.3486902 122.1750543  35.2044977  50.1938438 122.6035391
  35.8809115  49.5506180 121.4116477  28.7928700  46.8662340 122.7478468
  29.3053221  47.6605591 122.8984033  29.4451413  46.1688631 122.6812070
  30.6023585  49.9828097 124.8301221  30.7790213  50.9046061 124.6422205
  31.3980418  49.6686516 125.2595601  31.7254900  51.5006270 130.8311564
  32.2762325  51.3723334 130.0588558  30.8866376  51.8001159 130.4806457
  39.0649017  50.2513269 134.3332287  39.0467492  51.0722150 133.8412556
  39.9868937  50.1267344 134.5582428  26.7577617  45.1950995 123.5238039
  27.5952839  45.6048003 123.3071747  26.9355884  44.2550437 123.4938233
  38.6542049  42.8626075 119.2121872  38.1388672  43.6330680 119.4510259
  38.3819357  42.1891211 119.8354933  36.2389160  37.7075776 124.2707110
  35.3830756  37.3182627 124.0912749  36.6516112  37.7867737 123.4106896
  43.6276323  45.6158430 121.1475045  42.8505766  45.2769589 120.7030207
  44.3067804  45.6211053 120.4730010  38.4428352  40.7353167 121.0381653
  38.1378488  41.0499317 121.8891796  39.3958794  40.8134587 121.0808986
  36.8874784  46.8943391 122.6874607  36.3596145  46.1596150 122.3747844
  36.3862287  47.6718067 122.4414575  41.8667630  45.0892411 127.8041653
  41.2091304  45.7791673 127.8921782  42.6708029  45.4788843 128.1475640
  31.6193512  37.5563057 125.0481218  32.1937263  37.3338239 124.3154411
  32.2064494  37.6251752 125.8009820  40.6773089  43.4436784 125.8545595
  41.1904970  44.0766776 126.3567305  41.3274313  42.8437979 125.4888955
  31.9463099  39.5867518 119.0677104  31.1100411  39.9242205 119.3886378
  31.8067868  39.4516498 118.1304241  33.9216179  34.4304306 123.7756288
  33.2680592  34.1153323 123.1512903  33.8796653  33.8080046 124.5016111
  35.0327384  44.7123601 115.6909580  34.1254446  44.4812854 115.8900729
  35.5298416  43.9161220 115.8783562  37.9395463  53.4221108 118.6106266
  37.2657162  53.7252805 119.2191224  38.3261285  54.2250189 118.2611723
  37.1553920  40.9186239 128.1003935  36.2376481  41.1401186 127.9425624
  37.5714063  40.9932550 127.2415643  37.9388967  42.3177655 123.2306616
  38.6860786  42.8299052 122.9213738  38.2080557  41.9961708 124.0911009
  36.2115618  44.8136196 120.2133570  35.3026837  44.5295229 120.3106040
  36.2410701  45.2335274 119.3536877  41.4434885  48.4242785 123.9824738
  40.9897212  47.5833695 124.0389928  40.8128852  49.0604184 124.3199518
  40.3867805  39.3534771 125.2125405  39.6490561  38.8412158 125.5435648
  40.6394578  38.9135153 124.4008682  39.8867824  50.2619282 124.9174556
  40.1790799  50.8224339 124.1986921  40.3966445  50.5547843 125.6727715
  40.4879432  32.1311023 125.8067174  40.7938309  31.2708387 125.5193089
  41.2132037  32.7228644 125.6066168  26.7803788  42.5341710 124.1948772
  26.5828188  41.9411071 123.4699839  26.2250452  42.2293920 124.9124711
  34.7600512  42.4264816 126.3143365  34.8149121  41.4738653 126.2385842
  33.9491714  42.5824256 126.7984664  35.9091705  46.3544940 117.5521649
  35.4711135  45.6380798 117.0927286  36.6502146  46.5821054 116.9906740
  32.6992871  41.0441876 124.0733744  31.8860737  41.3436047 124.4798936
  33.1951866  40.6497565 124.7908227  34.8501449  51.0399633 126.0068009
  34.8077628  51.2660479 125.0776541  35.7664148  50.8063008 126.1553810
  44.0264820  44.6302137 123.6097967  43.8882719  44.8203733 122.6819156
  43.6701039  45.3921519 124.0666018  44.0534200  46.6978664 128.6209239
  44.4870706  46.6053953 129.4692293  44.7665780  46.6736164 127.9829255
  32.9667250  47.9162662 125.8029972  33.7607849  47.4212982 125.6012547
  32.2558943  47.3880525 125.4397677  37.7862095  50.2980758 130.1542339
  37.8399117  50.8671694 130.9220055  36.9176876  50.4682643 129.7896376
  29.2750014  42.0605744 121.8789724  28.3447602  41.9990199 122.0959686
  29.3707486  41.5381697 121.0826366  29.1935563  38.5860557 124.4667966
  29.4542380  39.5005890 124.3577126  30.0152735  38.1184999 124.6164579
  44.9149749  46.7402364 131.1542124  45.1085639  47.6448175 131.4001399
  44.8150367  46.2809783 131.9880709  36.7450194  44.4641020 131.7129271
  37.6742254  44.6152179 131.5398238  36.3241224  44.5525041 130.8577918
  35.5438526  48.4891684 129.4827809  35.4049612  48.1210469 130.3553747
  34.7553122  49.0039324 129.3111767  36.1386678  53.5900781 120.8253345
  36.3138434  53.1188824 121.6398968  35.4519466  54.2166547 121.0534606
  37.0943741  47.8673287 126.8716647  36.7593574  47.8274057 127.7674296
  36.5947687  47.2018003 126.3987057  40.0302933  45.2129321 117.1453706
  39.4132104  44.4876149 117.0486759  39.5619421  45.9738681 116.8020780
  41.6857065  49.9228230 134.8059487  41.6269611  49.2387450 134.1390070
  42.0876583  50.6647220 134.3540113  30.7047763  56.7390143 127.5993205
  30.9444362  57.3708668 128.2772224  29.8616960  56.3878183 127.8858565
  31.8201479  39.4314745 116.2675010  30.9430945  39.3103546 115.9037257
  32.2959232  38.6400824 116.0153899  41.6874472  47.8867813 133.0373466
  40.8001251  47.5493735 133.1599865  42.2573023  47.1550845 133.2742232
  35.2175625  52.5469266 130.0034709  35.1445797  53.3524237 130.5154014
  34.7753018  52.7461232 129.1782731  35.0065405  51.7841036 123.5137531
  34.2232927  52.3262716 123.6075756  35.7058150  52.3015015 123.9131772
  38.3162055  37.5935665 126.1571736  38.8130755  36.8405628 125.8372807
  37.5449037  37.6299982 125.5914946  46.1691812  43.2976031 127.7990028
  46.1581689  44.1800746 127.4283961  45.3009192  42.9447582 127.6044565
  37.6774309  52.4456100 132.1592868  38.3902281  53.0803565 132.0868770
  37.1864337  52.5419966 131.3432870  39.3991836  46.3507353 123.7310160
  38.4648114  46.4708815 123.5614864  39.5768504  45.4479819 123.4670170
  34.8997024  39.7353048 125.8843421  34.5294811  39.1824089 126.5724327
  35.3956116  39.1311182 125.3318421  42.7864387  42.1924672 124.2660194
  43.2524839  43.0252663 124.1920497  43.2371888  41.7269653 124.9705452
  32.7286222  50.1950543 132.9798439  33.4295682  50.8287026 133.1327833
  32.2581337  50.5365275 132.2194078  40.8540618  48.5368493 121.2646346
  41.1300462  48.4225088 122.1740220  39.9845117  48.1385978 121.2258519
  40.5287508  42.7495151 130.8050989  39.8758959  42.9971058 130.1503442
  40.9067888  41.9359289 130.4713467  37.4894682  52.7854844 124.9079160
  37.6717077  51.9676500 125.3706912  38.3127668  53.0022536 124.4704050
  37.8236848  51.7123029 122.1694208  38.3524614  51.2015484 121.5564370
  38.0865067  51.3965559 123.0339741  28.3253940  49.7286898 129.9129542
  28.9107377  48.9830586 130.0457446  28.1278779  50.0390855 130.7966206
  31.1792596  52.7638146 124.9291984  30.5102971  53.2484273 124.4456024
  31.0405465  53.0107366 125.8435363  35.3197864  54.7981889 131.5274642
  35.8716172  54.9613511 132.2923728  35.6604058  55.3886327 130.8554667
  26.5480173  41.0256601 121.7087916  26.8433614  40.1167279 121.6554970
  25.6468208  41.0044340 121.3868918  38.4566251  52.7463865 128.5138325
  38.3317391  51.9453605 128.0049270  39.1145343  53.2410058 128.0252294
  40.5201160  50.5472885 130.1417875  39.5731495  50.4278236 130.0696201
  40.8683933  49.6595383 130.2244136  28.2768014  38.7070698 121.8327241
  27.9480720  37.8268077 121.6502347  28.6307385  38.6518367 122.7203631
  37.5247593  50.3425601 126.3422227  37.3772556  49.4142309 126.5229797
  38.3501087  50.3645692 125.8579302  31.3909837  38.9943668 122.2002719
  31.7305910  39.5229589 121.4781327  31.8381958  39.3324074 122.9761286
  41.1281715  51.1654160 127.4287100  42.0528262  50.9597021 127.2911551
  40.9597018  50.9170561 128.3376441  33.3777985  37.4918290 120.3996012
  34.0986347  37.8699543 119.8959729  32.7543289  38.2107167 120.5030990
  37.5209107  38.1963439 121.3354344  37.7372722  39.0788077 121.0343172
  37.0403175  37.8049652 120.6059986  40.9177031  51.6839827 122.7849191
  41.0913909  51.1186250 122.0323044  41.4105922  52.4840722 122.6028681
  33.5241608  37.0266080 123.2293548  33.6457519  36.0982726 123.4284436
  33.2343650  37.0404766 122.3171864  46.7716422  44.4476250 124.4039491
  47.2147568  43.6983575 124.0058614  45.8942933  44.4386387 124.0213223
  41.9052204  51.0006592 119.8846089  42.6003108  51.6213284 120.1033404
  42.2475354  50.1501943 120.1598467  43.8043627  48.4506297 121.4133420
  44.3294951  48.7893570 120.6882740  43.7165979  47.5153313 121.2296555
  35.4663676  52.3640371 133.5423297  35.7750802  52.1189518 134.4145996
  36.2639158  52.5687009 133.0542167  35.4884288  54.5178281 125.7728673
  35.0489278  54.0254659 126.4661530  36.2392405  53.9751248 125.5320749
  27.9676627  50.7089821 125.7753301  28.7934646  50.4093593 125.3951945
  27.6170679  49.9397444 126.2243090  32.9358160  50.0616290 127.8450975
  32.3138169  49.3986995 127.5453203  33.6063027  50.0877421 127.1624623
  26.1685232  48.6276148 126.7342235  25.3317140  48.1998322 126.5526236
  26.1408877  48.8208591 127.6713026  43.4937533  49.0839201 136.7184618
  42.7033077  49.0663340 136.1789117  43.2570887  49.6227495 137.4733655
  43.6135408  45.9331667 134.0317347  43.6633413  45.7681675 134.9732869
  43.5049331  45.0658926 133.6415227  32.4971667  48.6120213 121.3209435
  32.6459787  49.2955677 120.6676108  33.3038110  48.5925303 121.8358891
  45.1153605  48.3528609 134.2759368  44.8238413  48.7158589 135.1122829
  44.5025736  47.6395617 134.0972700  46.3149287  45.9181489 126.7961938
  47.1496178  46.3571293 126.9599499  46.4508416  45.4420142 125.9770184
  43.3640793  43.4761223 132.7439426  43.8394915  43.6688870 131.9358277
  42.4406358  43.5320409 132.4982810  30.2524300  44.6385391 122.3270504
  30.0070342  43.7347721 122.5250715  30.4220214  44.6402541 121.3849982
  29.5219947  40.3713748 119.8256666  28.8289192  40.4458103 119.1696702
  29.2771699  39.6074092 120.3478183  35.9967072  51.1068343 118.7921183
  35.4241039  51.7258531 118.3391655  36.5699866  51.6567705 119.3261105
  39.2164332  51.3905494 119.9229765  40.1495005  51.3251055 120.1262641
  39.1287545  52.2261760 119.4644298  41.8452349  50.7071364 116.8833713
  41.7665980  50.3731227 117.7769471  42.6662015  51.1993132 116.8825185
  44.5430540  43.5733103 130.0910031  44.5106860  42.6349104 130.2769715
  45.1531163  43.6517140 129.3575856  36.3813871  42.4429156 116.1337235
  37.3272975  42.3135364 116.2025653  36.0028116  41.7043818 116.6106664
  44.6925028  40.3644147 130.1368315  44.1764077  39.5802603 129.9498243
  45.5764977  40.0362863 130.3014834  42.3535755  34.1085162 126.0964127
  42.1560576  33.8000250 126.9807459  42.9635461  34.8346801 126.2262057
  50.3607090  44.6349110 129.2316068  51.0910478  44.3734398 129.7923771
  49.7514035  43.8977832 129.2718136  48.4422387  42.7756973 129.8290519
  47.7155550  42.6412938 129.2207011  48.0269674  43.0833801 130.6347237
  34.5656788  40.3679133 116.0692121  33.6588243  40.0712245 116.1454834
  34.8432769  40.0708951 115.2026407  36.1818854  34.9116022 122.2236362
  35.3719582  34.5663107 122.5991608  36.8703270  34.6023566 122.8123973
  38.1109402  33.9894069 123.8460659  38.6640440  34.4089522 124.5050682
  38.3479488  33.0629817 123.8883615  33.3355572  37.2266068 116.2104100
  34.1974736  37.5520966 116.4699917  33.5205917  36.4397564 115.6977166
  41.4888209  36.0994594 123.3539323  40.9086878  36.7579398 122.9717375
  41.2224142  35.2771939 122.9426740  39.9391775  35.4999652 125.5560643
  40.4391554  35.6116186 124.7474962  40.5827383  35.1960705 126.1961452
  27.2659731  45.2406661 126.3650303  27.2430419  45.3394348 125.4132187
  27.5760367  46.0871812 126.6867470  40.2713087  38.2594685 122.4095671
  39.3838942  38.5444335 122.1915866  40.6867076  38.0988448 121.5622948
  43.6227623  38.2841206 126.1250010  44.3988013  38.7737658 126.3974627
  42.8975757  38.7099260 126.5821880  46.0600182  38.9968825 127.1823951
  46.6544672  38.7564561 126.4717259  46.1326765  38.2775955 127.8097487
  28.2797337  52.8402436 127.4967116  28.1451805  52.0802837 126.9305114
  27.8629400  53.5643336 127.0295905  39.4156300  48.0239359 116.5043691
  40.1192151  48.2289362 117.1201347  38.6918949  48.5916121 116.7692775
  40.2454111  43.7749221 122.6245961  40.1889312  44.2317772 121.7853594
  40.7982453  43.0139905 122.4468804  44.0558917  39.5638952 123.4496081
  43.7995851  39.1635588 124.2804288  43.4311785  40.2782746 123.3246220
  48.3671254  42.3035026 125.9567372  47.8070812  42.3728215 126.7298934
  47.7614758  42.1276010 125.2366868  31.4366463  53.7371753 127.7085558
  31.3198847  54.6817185 127.6064249  30.6158910  53.4345314 128.0971358
  41.3242998  48.4621888 118.5542151  42.1588602  48.0303087 118.3719626
  41.1627341  48.2903902 119.4819046  40.9788890  44.9654002 119.9198490
  40.9237694  44.7998273 118.9786935  40.3534945  45.6730035 120.0760680
  34.2885015  34.4662111 119.4983809  34.2763685  35.4103951 119.6552080
  35.1808437  34.2832256 119.2043270  32.4620977  54.3900015 130.9241487
  33.3648224  54.4223625 131.2407982  32.2358347  53.4600466 130.9387823
  34.2174579  53.1431001 127.5851565  33.2670210  53.1432863 127.4715938
  34.5207066  52.3963736 127.0687600  38.1037135  31.0604887 123.7529746
  37.3369531  30.5063374 123.8986428  38.5147840  31.1326756 124.6143897
  49.9527273  58.9791540 128.6497328  50.5905683  58.8598287 127.9460668
  49.8348116  59.9272384 128.7085280  46.7616979  58.9318968 128.5858853
  46.4235491  58.8160032 127.6979387  47.6306747  58.5310133 128.5659859
  42.6203795  60.7854444 124.5755744  42.0568660  60.6944381 123.8072031
  42.5056190  59.9654349 125.0558236  47.2436762  60.0853819 134.5445058
  47.2325403  59.6906618 133.6725562  47.4057402  59.3519892 135.1378830
  40.1668227  62.2805636 127.4139964  40.9589519  61.9396460 126.9986263
  40.4064877  62.3900611 128.3342117  48.2003354  64.4525412 119.8870208
  47.5491333  65.0379492 119.5004222  48.9947716  64.9831607 119.9465246
  42.1258981  61.5414549 120.2857343  42.8989857  60.9943536 120.1470219
  42.4784380  62.4058798 120.4971804  43.9644023  62.8690931 133.4924242
  43.6733889  63.7736562 133.3770908  44.6001008  62.9107459 134.2068312
  44.8900230  60.2467780 130.0825602  45.4863802  60.0223802 129.3682565
  44.9475202  59.5052525 130.6851050  44.4625259  57.7007215 117.9175793
  44.7150779  57.1788736 117.1559256  43.5249818  57.5373360 118.0202476
  49.5068541  56.7042993 125.7250536  50.2931631  56.2862417 125.3740953
  49.7707246  57.6089086 125.8932184  49.6778619  62.1415844 120.4239193
  49.0424452  62.2150470 121.1360097  49.3476025  62.7309443 119.7458272
  54.9076968  56.6418227 126.6283514  55.6402140  56.0717443 126.8621344
  54.1516324  56.2539827 127.0690020  44.1821547  59.6035321 120.1200168
  44.0657805  58.9280224 120.7881252  44.2923807  59.1167695 119.3032321
  46.5253088  59.0645468 123.8246857  46.1611295  58.5376089 124.5359778
  47.3820204  58.6743937 123.6513342  52.4302389  50.3539801 131.0878123
  52.0985714  51.2235212 130.8639338  51.8348002  50.0376085 131.7672153
  46.1658575  54.0935368 118.8208205  46.3332978  54.9615604 119.1878676
  45.9755744  54.2562650 117.8969495  48.9233908  62.5552347 130.4874036
  48.6234631  63.4577386 130.3789843  48.5784968  62.2884530 131.3395189
  42.3746390  59.0066144 126.5210740  41.4496886  58.8742358 126.7288432
  42.6230803  59.7860363 127.0180683  52.3231052  55.0734887 128.1671473
  51.4147930  55.0050295 127.8730234  52.2718648  55.5506832 128.9953299
  46.1447796  56.5493025 119.8054872  46.0247421  56.9950076 120.6440353
  45.4500384  56.8978343 119.2468410  39.7355201  58.6499417 127.3554529
  39.8647582  58.9033896 128.2693941  39.0552652  59.2427125 127.0359184
  43.9054688  69.3196667 123.4545003  43.8278718  70.2704492 123.5333484
  43.3016332  68.9742540 124.1119930  46.3971918  56.4924532 136.1106370
  45.6205252  57.0518453 136.1009235  47.0362481  56.9781315 136.6321240
  54.1892699  53.2751325 129.9449347  53.5467079  53.5683858 129.2989142
  53.6847627  53.1604246 130.7502544  51.8432862  57.0214498 120.6335206
  52.7550718  57.2541885 120.4582904  51.3342509  57.6051543 120.0710285
  44.6518290  59.3009986 135.6724337  45.3932975  59.8395030 135.3959161
  43.9455276  59.9276275 135.8295889  50.1273630  61.4439126 134.2696499
  50.5356986  61.0021537 133.5251131  49.4050891  60.8691754 134.5230692
  46.4804700  56.3811733 131.6430056  47.3265895  56.8051147 131.7864705
  46.4203338  55.7245357 132.3368619  50.4502445  62.0040317 128.0248788
  49.8211307  62.1686031 127.3224856  50.0628107  62.4181926 128.7959752
  54.3291676  62.9394755 125.3793151  53.6442715  63.3193656 124.8290185
  54.4135526  63.5490081 126.1125099  49.6304145  54.0416101 133.3011229
  49.3865077  54.7958162 132.7645505  49.9064076  54.4201449 134.1358476
  51.5842608  60.5854714 131.9788495  51.7959503  61.2286474 131.3022876
  51.5372356  59.7517030 131.5110425  49.1868837  53.1972534 128.8825067
  48.3253316  53.4953788 129.1741805  49.2131272  53.4142933 127.9506100
  46.0030406  61.7414725 125.2898873  46.4668752  62.0202428 124.5003495
  45.7387205  60.8398170 125.1071964  42.8954487  61.2886207 128.2278636
  43.4655845  61.7173475 127.5896121  43.4862599  61.0068791 128.9262822
  44.9399292  57.8637877 122.0988438  45.6423336  58.3158921 122.5662364
  44.6079921  57.2221696 122.7268331  43.3879654  56.4549634 136.4739647
  42.7578315  57.1365915 136.7075044  43.2815742  56.3432716 135.5292786
  38.6824626  56.1221430 127.4005572  37.8923680  56.3778959 126.9245682
  39.1735874  56.9369768 127.5057612  52.6988436  63.4626669 130.1510852
  53.5205880  63.0606857 129.8693534  52.6950839  63.3594903 131.1026968
  40.6339372  56.4866009 124.3589048  39.8370535  56.5984704 124.8772544
  40.4064964  56.8252662 123.4929939  46.4645039  63.0110713 132.3071563
  46.5289472  63.4731120 133.1429735  45.7555963  62.3808077 132.4353873
  36.9662329  56.3751921 129.8320562  37.2170368  57.2598930 130.0978138
  37.5021878  56.1956522 129.0595654  60.7894429  59.8065418 126.4995824
  60.0358137  59.2372816 126.3439828  60.9241970  59.7728082 127.4466459
  46.1793057  64.6778820 122.1750543  46.0438732  65.5230356 122.6035391
  46.7202870  64.8798098 121.4116477  39.6322454  62.1954258 122.7478468
  40.1446975  62.9897508 122.8984033  40.2845167  61.4980549 122.6812070
  41.4417339  65.3120014 124.8301221  41.6183968  66.2337979 124.6422205
  42.2374173  64.9978434 125.2595601  45.5828358  52.1728279 136.4285155
  46.3238071  52.7735432 136.3489617  45.8146281  51.4305917 135.8703198
  40.7269696  57.3584646 134.7063385  40.6123211  56.4569903 135.0070484
  39.8714213  57.6048343 134.3548201  47.8061533  65.3002387 136.3050885
  47.3625388  64.5138765 135.9871790  48.4678747  65.4881537 135.6394776
  42.5648655  66.8298188 130.8311564  43.1156080  66.7015251 130.0588558
  41.7260131  67.1293077 130.4806457  49.9042772  65.5805186 134.3332287
  49.8861247  66.4014067 133.8412556  50.8262692  65.4559262 134.5582428
  46.3615826  63.0949316 135.1755795  46.8944162  62.3337604 134.9455103
  45.8329907  62.8022968 135.9179949  49.5285521  48.2009382 130.7049437
  49.1849790  49.0911024 130.6288547  49.8964483  48.0111040 129.8419022
  37.5971371  60.5242912 123.5238039  38.4346593  60.9339921 123.3071747
  37.7749639  59.5842355 123.4938233  49.4935803  58.1917993 119.2121872
  48.9782427  58.9622598 119.4510259  49.2213112  57.5183129 119.8354933
  47.0782914  53.0367694 124.2707110  46.2224511  52.6474544 124.0912749
  47.4909866  53.1159655 123.4106896  48.6082061  50.5714037 128.6698670
  48.1046857  50.5344172 127.8566475  48.9012668  51.4806780 128.7295327
  44.8524947  50.6552767 127.6764852  45.7177944  50.4595575 127.3170741
  44.9202456  50.4263119 128.6034208  54.4670078  60.9450348 121.1475045
  53.6899520  60.6061507 120.7030207  55.1461558  60.9502971 120.4730010
  49.2822107  56.0645085 121.0381653  48.9772242  56.3791234 121.8891796
  50.2352549  56.1426505 121.0808986  47.7268538  62.2235308 122.6874607
  47.1989900  61.4888068 122.3747844  47.2256041  63.0009985 122.4414575
  52.7061384  60.4184329 127.8041653  52.0485059  61.1083590 127.8921782
  53.5101784  60.8080761 128.1475640  42.4587266  52.8854975 125.0481218
  43.0331018  52.6630156 124.3154411  43.0458248  52.9543669 125.8009820
  51.5166843  58.7728702 125.8545595  52.0298725  59.4058693 126.3567305
  52.1668067  58.1729897 125.4888955  42.7856853  54.9159436 119.0677104
  41.9494165  55.2534122 119.3886378  42.6461623  54.7808416 118.1304241
  44.7609934  49.7596224 123.7756288  44.1074346  49.4445241 123.1512903
  44.7190408  49.1371964 124.5016111  45.8721139  60.0415519 115.6909580
  44.9648200  59.8104772 115.8900729  46.3692171  59.2453138 115.8783562
  48.7789217  68.7513026 118.6106266  48.1050916  69.0544723 119.2191224
  49.1655039  69.5542106 118.2611723  47.9947674  56.2478157 128.1003935
  47.0770235  56.4693104 127.9425624  48.4107818  56.3224468 127.2415643
  48.7782722  57.6469573 123.2306616  49.5254541  58.1590970 122.9213738
  49.0474311  57.3253626 124.0911009  47.0509372  60.1428114 120.2133570
  46.1420591  59.8587146 120.3106040  47.0804456  60.5627192 119.3536877
  52.2828639  63.7534703 123.9824738  51.8290967  62.9125613 124.0389928
  51.6522606  64.3896101 124.3199518  51.2261559  54.6826689 125.2125405
  50.4884316  54.1704075 125.5435648  51.4788333  54.2427071 124.4008682
  50.7261579  65.5911200 124.9174556  51.0184553  66.1516257 124.1986921
  51.2360199  65.8839761 125.6727715  51.3273186  47.4602941 125.8067174
  51.6332063  46.6000305 125.5193089  52.0525791  48.0520561 125.6066168
  37.6197542  57.8633628 124.1948772  37.4221942  57.2702988 123.4699839
  37.0644206  57.5585838 124.9124711  45.5994266  57.7556734 126.3143365
  45.6542876  56.8030571 126.2385842  44.7885468  57.9116173 126.7984664
  46.7485460  61.6836857 117.5521649  46.3104890  60.9672716 117.0927286
  47.4895901  61.9112972 116.9906740  43.5386626  56.3733794 124.0733744
  42.7254492  56.6727964 124.4798936  44.0345620  55.9789483 124.7908227
  45.6895204  66.3691551 126.0068009  45.6471383  66.5952397 125.0776541
  46.6057903  66.1354925 126.1553810  49.1360838  56.8375618 132.9048638
  49.4910225  57.0647092 133.7643104  49.7832969  57.1693995 132.2825893
  54.8658575  59.9594054 123.6097967  54.7276473  60.1495650 122.6819156
  54.5094793  60.7213437 124.0666018  43.0300701  53.9452149 129.6894979
  43.6700080  53.8040909 128.9917943  42.1978231  53.6586663 129.3133581
  54.8927954  62.0270581 128.6209239  55.3264461  61.9345870 129.4692293
  55.6059535  62.0028082 127.9829255  43.8061005  63.2454580 125.8029972
  44.6001603  62.7504900 125.6012547  43.0952697  62.7172443 125.4397677
  48.6255849  65.6272675 130.1542339  48.6792871  66.1963612 130.9220055
  47.7570630  65.7974560 129.7896376  40.1143768  57.3897662 121.8789724
  39.1841356  57.3282117 122.0959686  40.2101240  56.8673614 121.0826366
  40.0329317  53.9152474 124.4667966  40.2936134  54.8297808 124.3577126
  40.8546489  53.4476917 124.6164579  41.5054242  55.3290232 131.6366791
  42.1777296  55.1207594 130.9879439  40.6784029  55.1312318 131.1972023
  55.7543504  62.0694282 131.1542124  55.9479394  62.9740092 131.4001399
  55.6544122  61.6101701 131.9880709  47.4079814  51.9552172 133.6532451
  46.7607730  52.6542122 133.5596928  48.1780830  52.3888316 134.0208700
  50.8158612  62.2201025 136.7283005  50.6644119  61.9911576 135.8113088
  50.8063292  63.1771626 136.7414350  47.5843949  59.7932937 131.7129271
  48.5136009  59.9444097 131.5398238  47.1634979  59.8816958 130.8577918
  46.3832281  63.8183602 129.4827809  46.2443366  63.4502386 130.3553747
  45.5946877  64.3331241 129.3111767  46.9780433  68.9192698 120.8253345
  47.1532188  68.4480741 121.6398968  46.2913221  69.5458464 121.0534606
  47.9337496  63.1965205 126.8716647  47.5987328  63.1565974 127.7674296
  47.4341441  62.5309920 126.3987057  41.9081740  58.6032835 132.3969228
  41.7701538  57.8713073 132.9980767  42.8186663  58.5141735 132.1153415
  50.8696687  60.5421239 117.1453706  50.2525858  59.8168067 117.0486759
  50.4013176  61.3030599 116.8020780  44.5364040  58.3152794 131.8852907
  45.2463659  57.6745986 131.8439526  44.4933349  58.5665689 132.8079088
  52.5250819  65.2520147 134.8059487  52.4663365  64.5679367 134.1390070
  52.9270337  65.9939137 134.3540113  43.2492974  55.3018012 133.7048547
  42.7130331  54.8508750 134.3570143  42.6609683  55.4363921 132.9619011
  41.5441518  72.0682061 127.5993205  41.7838116  72.7000585 128.2772224
  40.7010714  71.7170101 127.8858565  42.6595233  54.7606663 116.2675010
  41.7824700  54.6395464 115.9037257  43.1352986  53.9692741 116.0153899
  52.5268226  63.2159731 133.0373466  51.6395005  62.8785653 133.1599865
  53.0966777  62.4842762 133.2742232  34.1797373  59.5483823 126.3616518
  34.8668413  59.2345553 125.7737533  34.0245502  60.4525188 126.0883769
  38.9832096  54.4374019 130.7901541  38.8990284  53.8299689 130.0551951
  38.1614802  54.9283038 130.7911038  46.0569380  67.8761183 130.0034709
  45.9839551  68.6816155 130.5154014  45.6146773  68.0753149 129.1782731
  45.8459159  67.1132954 123.5137531  45.0626681  67.6554634 123.6075756
  46.5451905  67.6306933 123.9131772  49.1555809  52.9227583 126.1571736
  49.6524509  52.1697545 125.8372807  48.3842791  52.9591900 125.5914946
  57.0085567  58.6267949 127.7990028  56.9975443  59.5092664 127.4283961
  56.1402946  58.2739499 127.6044565  48.5168063  67.7748018 132.1592868
  49.2296035  68.4095482 132.0868770  48.0258092  67.8711884 131.3432870
  50.2385590  61.6799270 123.7310160  49.3041869  61.8000733 123.5614864
  50.4162259  60.7771737 123.4670170  45.7390778  55.0644966 125.8843421
  45.3688566  54.5116006 126.5724327  46.2349871  54.4603099 125.3318421
  53.6258142  57.5216589 124.2660194  54.0918594  58.3544581 124.1920497
  54.0765642  57.0561571 124.9705452  43.5679977  65.5242461 132.9798439
  44.2689436  66.1578944 133.1327833  43.0975092  65.8657193 132.2194078
  51.6934373  63.8660411 121.2646346  51.9694217  63.7517005 122.1740220
  50.8238871  63.4677896 121.2258519  51.5974804  49.8897176 128.3051095
  50.6837884  50.1201403 128.4733302  52.0267906  49.9735621 129.1565128
  51.3681263  58.0787068 130.8050989  50.7152713  58.3262976 130.1503442
  51.7461643  57.2651207 130.4713467  48.3288437  68.1146762 124.9079160
  48.5110831  67.2968418 125.3706912  49.1521423  68.3314454 124.4704050
  48.6630602  67.0414947 122.1694208  49.1918369  66.5307401 121.5564370
  48.9258822  66.7257477 123.0339741  47.4168836  58.8206880 137.2917026
  46.7409473  58.7201009 137.9619402  48.2396470  58.6646093 137.7553024
  39.1647695  65.0578816 129.9129542  39.7501132  64.3122504 130.0457446
  38.9672533  65.3682773 130.7966206  42.0186350  68.0930063 124.9291984
  41.3496725  68.5776191 124.4456024  41.8799220  68.3399284 125.8435363
  33.7565350  57.6284416 128.6333985  33.7949449  57.0948007 129.4271103
  33.2505642  57.1019622 128.0144962  46.1591619  70.1273807 131.5274642
  46.7109927  70.2905428 132.2923728  46.4997812  70.7178245 130.8554667
  41.1356112  52.4748957 132.1296527  41.1997438  53.3363788 131.7173925
  41.0723232  51.8622958 131.3968886  40.6108384  54.5472089 135.7769561
  41.2380423  54.1649167 136.3907086  39.7536303  54.3286291 136.1425254
  51.0102493  64.9535064 137.3823297  51.5542397  65.5665023 136.8878252
  50.4289338  65.5114643 137.8990310  37.3873927  56.3548518 121.7087916
  37.6827368  55.4459197 121.6554970  36.4861963  56.3336258 121.3868918
  49.2960006  68.0755782 128.5138325  49.1711145  67.2745522 128.0049270
  49.9539097  68.5701976 128.0252294  40.9168174  54.4304515 127.6915465
  40.1954760  55.0440483 127.5522938  41.7061430  54.9662280 127.6132111
  51.3594914  65.8764803 130.1417875  50.4125250  65.7570154 130.0696201
  51.7077687  64.9887301 130.2244136  43.7194488  51.7658941 133.9656117
  44.2428890  52.0121238 134.7282426  43.5006821  52.5978976 133.5459254
  39.1161769  54.0362616 121.8327241  38.7874475  53.1559995 121.6502347
  39.4701139  53.9810285 122.7203631  48.3641348  65.6717519 126.3422227
  48.2166310  64.7434226 126.5229797  49.1894841  65.6937609 125.8579302
  42.2303592  54.3235586 122.2002719  42.5699664  54.8521507 121.4781327
  42.6775712  54.6615992 122.9761286  51.9675469  66.4946078 127.4287100
  52.8922017  66.2888939 127.2911551  51.7990773  66.2462479 128.3376441
  44.9247033  52.7072637 131.6505787  44.5843853  51.9080450 132.0526467
  44.2186039  53.0074347 131.0782620  45.5763505  49.7921949 130.1033110
  46.3989574  49.3182427 129.9812000  45.8201568  50.5712433 130.6031796
  44.2171739  52.8210207 120.3996012  44.9380102  53.1991460 119.8959729
  43.5937043  53.5399084 120.5030990  48.3602862  53.5255356 121.3354344
  48.5766476  54.4079994 121.0343172  47.8796929  53.1341570 120.6059986
  43.1002083  56.4841070 127.9125089  42.9546664  56.7981373 128.8049370
  42.6227287  57.1025970 127.3595987  44.9598466  53.4743618 127.9605978
  44.9460035  52.5784711 127.6238276  45.6770894  53.4814281 128.5944264
  46.8124597  53.9080958 130.0059106  46.5542375  54.8298028 130.0043436
  46.2809637  53.5111392 130.6959570  51.7570786  67.0131745 122.7849191
  51.9307663  66.4478167 122.0323044  52.2499677  67.8132640 122.6028681
  37.5747745  59.0246414 130.8512750  37.0301214  59.8006222 130.9833024
  38.4527095  59.3717219 130.6931871  44.3635362  52.3557998 123.2293548
  44.4851273  51.4274644 123.4284436  44.0737405  52.3696684 122.3171864
  47.2326553  50.0412908 126.3660268  47.2548249  50.1052241 125.4112248
  47.6494612  49.2017417 126.5600774  57.6110177  59.7768168 124.4039491
  58.0541323  59.0275493 124.0058614  56.7336687  59.7678304 124.0213223
  52.7445958  66.3298509 119.8846089  53.4396863  66.9505202 120.1033404
  53.0869108  65.4793861 120.1598467  38.3613767  58.1516310 133.7442907
  37.6195503  58.2998946 134.3307537  38.0406512  58.4124576 132.8809656
  54.6437381  63.7798215 121.4133420  55.1688705  64.1185488 120.6882740
  54.5559734  62.8445230 121.2296555  46.3057430  67.6932289 133.5423297
  46.6144556  67.4481435 134.4145996  47.1032912  67.8978927 133.0542167
  46.3278042  69.8470198 125.7728673  45.8883032  69.3546577 126.4661530
  47.0786159  69.3043166 125.5320749  38.8070381  66.0381739 125.7753301
  39.6328401  65.7385511 125.3951945  38.4564433  65.2689361 126.2243090
  43.7751914  65.3908207 127.8450975  43.1531923  64.7278912 127.5453203
  44.4456781  65.4169339 127.1624623  37.0078986  63.9568065 126.7342235
  36.1710894  63.5290240 126.5526236  36.9802632  64.1500509 127.6713026
  43.8476442  53.8689995 137.4383481  43.8964597  54.7452118 137.0561251
  44.3898956  53.3267388 136.8655124  54.3331287  64.4131119 136.7184618
  53.5426831  64.3955257 136.1789117  54.0964642  64.9519412 137.4733655
  54.4529162  61.2623585 134.0317347  54.5027167  61.0973592 134.9732869
  54.3443086  60.3950844 133.6415227  43.3365421  63.9412131 121.3209435
  43.4853541  64.6247595 120.6676108  44.1431865  63.9217221 121.8358891
  51.7432925  57.2454513 135.3476653  52.6442788  57.1060978 135.0560651
  51.8180899  57.4108968 136.2874831  46.0775730  54.6221368 134.1929840
  45.2079040  54.9154934 133.9212428  46.3135210  55.2061813 134.9137103
  55.9547359  63.6820526 134.2759368  55.6632168  64.0450507 135.1122829
  55.3419491  62.9687535 134.0972700  57.1543042  61.2473406 126.7961938
  57.9889933  61.6863210 126.9599499  57.2902170  60.7712059 125.9770184
  54.2034547  58.8053141 132.7439426  54.6788669  58.9980787 131.9358277
  53.2800113  58.8612327 132.4982810  41.0918054  59.9677308 122.3270504
  40.8464096  59.0639638 122.5250715  41.2613969  59.9694459 121.3849982
  48.7814764  50.8400985 131.7095260  49.2996708  51.5762012 131.3841749
  48.4269897  51.1464978 132.5442019  40.3613702  55.7005666 119.8256666
  39.6682947  55.7750021 119.1696702  40.1165454  54.9366009 120.3478183
  49.0327358  47.2601267 127.2296157  49.3129112  46.5924456 127.8556583
  49.8177965  47.4530363 126.7170820  46.8360827  66.4360261 118.7921183
  46.2634794  67.0550448 118.3391655  47.4093620  66.9859623 119.3261105
  52.9036216  55.6818901 130.9767732  53.8553639  55.7816999 130.9979956
  52.7339667  54.8897170 131.4865816  50.9250596  52.7674484 131.1627133
  50.3300528  53.0479497 130.4673621  50.6400293  53.2568385 131.9343874
  50.0558086  66.7197411 119.9229765  50.9888760  66.6542973 120.1262641
  49.9681299  67.5553678 119.4644298  52.6846103  66.0363282 116.8833713
  52.6059735  65.7023145 117.7769471  53.5055770  66.5285049 116.8825185
  55.3824294  58.9025021 130.0910031  55.3500614  57.9641022 130.2769715
  55.9924918  58.9809058 129.3575856  47.2207625  57.7721074 116.1337235
  48.1666730  57.6427282 116.2025653  46.8421870  57.0335736 116.6106664
  55.5318783  55.6936064 130.1368315  55.0157831  54.9094521 129.9498243
  56.4158731  55.3654781 130.3014834  53.1929510  49.4377080 126.0964127
  52.9954331  49.1292168 126.9807459  53.8029215  50.1638719 126.2262057
  61.2000844  59.9641028 129.2316068  61.9304233  59.7026316 129.7923771
  60.5907790  59.2269750 129.2718136  59.2816141  58.1048890 129.8290519
  58.5549305  57.9704855 129.2207011  58.8663428  58.4125719 130.6347237
  47.1046318  61.8238820 137.5937892  48.0249327  62.0017419 137.7877939
  47.0695901  60.8794865 137.4417592  45.4050542  55.6971050 116.0692121
  44.4981998  55.4004163 116.1454834  45.6826523  55.4000868 115.2026407
  36.3228483  57.0177414 126.5191167  36.0031267  56.1642722 126.2265541
  35.7761911  57.2325992 127.2749134  40.1008390  59.7339855 130.2360674
  40.3194400  60.6656962 130.2548707  40.5134164  59.3747829 131.0215477
  47.0212608  50.2407940 122.2236362  46.2113336  49.8955025 122.5991608
  47.7097025  49.9315484 122.8123973  48.9503156  49.3185987 123.8460659
  49.5034195  49.7381440 124.5050682  49.1873243  48.3921735 123.8883615
  44.9736256  55.3073060 139.6263422  44.8732982  56.2567417 139.5575514
  44.7557798  54.9791299 138.7539493  44.1749327  52.5557985 116.2104100
  45.0368491  52.8812884 116.4699917  44.3599671  51.7689481 115.6977166
  36.1916743  60.6380325 128.4884289  35.4980214  60.2234278 127.9754243
  36.9389734  60.6800862 127.8917708  52.3281963  51.4286512 123.3539323
  51.7480632  52.0871316 122.9717375  52.0617896  50.6063856 122.9426740
  50.7785530  50.8291570 125.5560643  51.2785308  50.9408104 124.7474962
  51.4221138  50.5252622 126.1961452  44.8367526  58.7370199 138.4428484
  44.3534607  59.5370559 138.6492373  44.9228465  58.7478144 137.4895928
  38.1053485  60.5698579 126.3650303  38.0824173  60.6686266 125.4132187
  38.4154122  61.4163730 126.6867470  40.7640863  62.6274734 130.4796918
  41.7184117  62.5958676 130.4126849  40.5653387  62.1665358 131.2947144
  41.3540245  61.1975850 133.0467716  42.1733134  61.6919929 133.0702553
  41.6277053  60.2807818 133.0185283  51.1106841  53.5886602 122.4095671
  50.2232696  53.8736253 122.1915866  51.5260830  53.4280366 121.5622948
  54.4621378  53.6133123 126.1250010  55.2381768  54.1029576 126.3974627
  53.7369512  54.0391177 126.5821880  56.8993936  54.3260742 127.1823951
  57.4938427  54.0856478 126.4717259  56.9720520  53.6067873 127.8097487
  39.1191092  68.1694353 127.4967116  38.9845560  67.4094754 126.9305114
  38.7023154  68.8935253 127.0295905  50.2550055  63.3531277 116.5043691
  50.9585905  63.5581279 117.1201347  49.5312704  63.9208039 116.7692775
  51.0847865  59.1041138 122.6245961  51.0283067  59.5609690 121.7853594
  51.6376208  58.3431823 122.4468804  54.8952671  54.8930870 123.4496081
  54.6389605  54.4927506 124.2804288  54.2705539  55.6074664 123.3246220
  59.2065009  57.6326943 125.9567372  58.6464567  57.7020133 126.7298934
  58.6008512  57.4567928 125.2366868  42.2760218  69.0663670 127.7085558
  42.1592602  70.0109103 127.6064249  41.4552664  68.7637232 128.0971358
  52.1636752  63.7913806 118.5542151  52.9982356  63.3595005 118.3719626
  52.0021095  63.6195820 119.4819046  51.8182644  60.2945919 119.9198490
  51.7631448  60.1290191 118.9786935  51.1928700  61.0021952 120.0760680
  36.6075159  55.5313984 133.7459913  37.2534023  55.0212938 134.2347138
  36.3992311  56.2682665 134.3203338  49.1328552  62.5994831 139.2452053
  50.0019711  62.7735484 138.8838688  48.6535303  63.4189248 139.1227783
  45.1278770  49.7954028 119.4983809  45.1157440  50.7395868 119.6552080
  46.0202192  49.6124174 119.2043270  43.3014732  69.7191932 130.9241487
  44.2041979  69.7515543 131.2407982  43.0752102  68.7892383 130.9387823
  45.0568334  68.4722919 127.5851565  44.1063965  68.4724780 127.4715938
  45.3600820  67.7255653 127.0687600  48.9430889  46.3896805 123.7529746
  48.1763285  45.8355292 123.8986428  49.3541594  46.4618674 124.6143897
  60.7921027  74.3083457 128.6497328  61.4299437  74.1890205 127.9460668
  60.6741870  75.2564301 128.7085280  57.6010734  74.2610885 128.5858853
  57.2629245  74.1451950 127.6979387  58.4700502  73.8602050 128.5659859
  53.4597549  76.1146362 124.5755744  52.8962414  76.0236299 123.8072031
  53.3449944  75.2946266 125.0558236  58.0830517  75.4145737 134.5445058
  58.0719157  75.0198535 133.6725562  58.2451156  74.6811810 135.1378830
  51.0061981  77.6097553 127.4139964  51.7983273  77.2688378 126.9986263
  51.2458631  77.7192528 128.3342117  59.0397108  79.7817329 119.8870208
  58.3885088  80.3671410 119.5004222  59.8341471  80.3123524 119.9465246
  52.9652735  76.8706467 120.2857343  53.7383611  76.3235454 120.1470219
  53.3178134  77.7350716 120.4971804  54.8037778  78.1982849 133.4924242
  54.5127644  79.1028480 133.3770908  55.4394762  78.2399376 134.2068312
  55.7293985  75.5759697 130.0825602  56.3257557  75.3515720 129.3682565
  55.7868956  74.8344443 130.6851050  55.3019013  73.0299133 117.9175793
  55.5544534  72.5080654 117.1559256  54.3643572  72.8665278 118.0202476
  60.3462296  72.0334911 125.7250536  61.1325385  71.6154334 125.3740953
  60.6101000  72.9381003 125.8932184  60.5172373  77.4707761 120.4239193
  59.8818206  77.5442388 121.1360097  60.1869780  78.0601360 119.7458272
  65.7470723  71.9710144 126.6283514  66.4795895  71.4009361 126.8621344
  64.9910079  71.5831745 127.0690020  55.0215302  74.9327239 120.1200168
  54.9051560  74.2572142 120.7881252  55.1317562  74.4459613 119.3032321
  57.3646843  74.3937386 123.8246857  57.0005050  73.8668007 124.5359778
  58.2213959  74.0035855 123.6513342  63.2696143  65.6831718 131.0878123
  62.9379468  66.5527129 130.8639338  62.6741757  65.3668002 131.7672153
  57.0052330  69.4227285 118.8208205  57.1726732  70.2907522 119.1878676
  56.8149499  69.5854567 117.8969495  59.7627663  77.8844264 130.4874036
  59.4628386  78.7869303 130.3789843  59.4178722  77.6176448 131.3395189
  53.2140144  74.3358061 126.5210740  52.2890641  74.2034275 126.7288432
  53.4624558  75.1152280 127.0180683  63.1624807  70.4026805 128.1671473
  62.2541684  70.3342213 127.8730234  63.1112402  70.8798750 128.9953299
  56.9841551  71.8784943 119.8054872  56.8641176  72.3241994 120.6440353
  56.2894139  72.2270261 119.2468410  50.5748955  73.9791335 127.3554529
  50.7041337  74.2325814 128.2693941  49.8946407  74.5719043 127.0359184
  54.7448443  84.6488585 123.4545003  54.6672472  85.5996410 123.5333484
  54.1410086  84.3034457 124.1119930  57.2365672  71.8216450 136.1106370
  56.4599006  72.3810370 136.1009235  57.8756235  72.3073233 136.6321240
  65.0286453  68.6043243 129.9449347  64.3860833  68.8975776 129.2989142
  64.5241382  68.4896163 130.7502544  62.6826617  72.3506416 120.6335206
  63.5944473  72.5833803 120.4582904  62.1736264  72.9343460 120.0710285
  55.4912045  74.6301904 135.6724337  56.2326729  75.1686947 135.3959161
  54.7849030  75.2568192 135.8295889  60.9667384  76.7731044 134.2696499
  61.3750740  76.3313455 133.5251131  60.2444646  76.1983672 134.5230692
  57.3198454  71.7103651 131.6430056  58.1659650  72.1343064 131.7864705
  57.2597092  71.0537275 132.3368619  61.2896199  77.3332235 128.0248788
  60.6605061  77.4977949 127.3224856  60.9021861  77.7473844 128.7959752
  65.1685431  78.2686672 125.3793151  64.4836469  78.6485574 124.8290185
  65.2529280  78.8781999 126.1125099  60.4697900  69.3708019 133.3011229
  60.2258832  70.1250080 132.7645505  60.7457830  69.7493367 134.1358476
  62.4236363  75.9146631 131.9788495  62.6353258  76.5578391 131.3022876
  62.3766111  75.0808948 131.5110425  60.0262591  68.5264452 128.8825067
  59.1647071  68.8245706 129.1741805  60.0525026  68.7434851 127.9506100
  56.8424161  77.0706643 125.2898873  57.3062506  77.3494346 124.5003495
  56.5780959  76.1690087 125.1071964  53.7348242  76.6178124 128.2278636
  54.3049599  77.0465393 127.5896121  54.3256354  76.3360709 128.9262822
  55.7793047  73.1929795 122.0988438  56.4817090  73.6450839 122.5662364
  55.4473675  72.5513614 122.7268331  54.2273408  71.7841552 136.4739647
  53.5972069  72.4657833 136.7075044  54.1209496  71.6724633 135.5292786
  49.5218381  71.4513348 127.4005572  48.7317435  71.7070876 126.9245682
  50.0129628  72.2661686 127.5057612  63.5382190  78.7918587 130.1510852
  64.3599634  78.3898774 129.8693534  63.5344593  78.6886821 131.1026968
  51.4733126  71.8157927 124.3589048  50.6764290  71.9276621 124.8772544
  51.2458718  72.1544579 123.4929939  57.3038794  78.3402630 132.3071563
  57.3683226  78.8023037 133.1429735  56.5949718  77.7099995 132.4353873
  47.8056084  71.7043838 129.8320562  48.0564122  72.5890848 130.0978138
  48.3415632  71.5248440 129.0595654  71.6288184  75.1357335 126.4995824
  70.8751892  74.5664733 126.3439828  71.7635725  75.1020000 127.4466459
  57.0186812  80.0070738 122.1750543  56.8832486  80.8522273 122.6035391
  57.5596624  80.2090015 121.4116477  53.5054151  66.0862318 138.8364898
  53.1121097  65.5328516 139.5112543  54.3220292  66.3972896 139.2271416
  50.4716209  77.5246176 122.7478468  50.9840730  78.3189426 122.8984033
  51.1238922  76.8272466 122.6812070  52.2811094  80.6411932 124.8301221
  52.4577722  81.5629897 124.6422205  53.0767927  80.3270351 125.2595601
  56.4222112  67.5020197 136.4285155  57.1631826  68.1027350 136.3489617
  56.6540035  66.7597834 135.8703198  51.5663450  72.6876564 134.7063385
  51.4516965  71.7861821 135.0070484  50.7107968  72.9340261 134.3548201
  58.6455288  80.6294304 136.3050885  58.2019142  79.8430683 135.9871790
  59.3072502  80.8173455 135.6394776  53.4042409  82.1590106 130.8311564
  53.9549834  82.0307169 130.0588558  52.5653885  82.4584995 130.4806457
  60.7436526  80.9097104 134.3332287  60.7255001  81.7305985 133.8412556
  61.6656446  80.7851179 134.5582428  57.2009580  78.4241234 135.1755795
  57.7337917  77.6629522 134.9455103  56.6723661  78.1314885 135.9179949
  60.3679275  63.5301300 130.7049437  60.0243545  64.4202941 130.6288547
  60.7358238  63.3402957 129.8419022  48.4365126  75.8534830 123.5238039
  49.2740348  76.2631838 123.3071747  48.6143393  74.9134272 123.4938233
  60.3329558  73.5209911 119.2121872  59.8176181  74.2914515 119.4510259
  60.0606866  72.8475047 119.8354933  57.9176669  68.3659611 124.2707110
  57.0618265  67.9766462 124.0912749  58.3303621  68.4451572 123.4106896
  59.4475816  65.9005955 128.6698670  58.9440611  65.8636090 127.8566475
  59.7406422  66.8098697 128.7295327  55.6918701  65.9844684 127.6764852
  56.5571698  65.7887493 127.3170741  55.7596210  65.7555036 128.6034208
  65.3063832  76.2742265 121.1475045  64.5293275  75.9353425 120.7030207
  65.9855313  76.2794888 120.4730010  60.1215861  71.3937003 121.0381653
  59.8165997  71.7083152 121.8891796  61.0746303  71.4718423 121.0808986
  58.5662293  77.5527226 122.6874607  58.0383654  76.8179986 122.3747844
  58.0649796  78.3301902 122.4414575  63.5455139  75.7476247 127.8041653
  62.8878813  76.4375508 127.8921782  64.3495538  76.1372679 128.1475640
  53.2981020  68.2146892 125.0481218  53.8724772  67.9922074 124.3154411
  53.8852003  68.2835587 125.8009820  62.3560598  74.1020619 125.8545595
  62.8692479  74.7350611 126.3567305  63.0061822  73.5021815 125.4888955
  53.6250608  70.2451353 119.0677104  52.7887920  70.5826040 119.3886378
  53.4855377  70.1100333 118.1304241  55.6003688  65.0888141 123.7756288
  54.9468101  64.7737158 123.1512903  55.5584162  64.4663882 124.5016111
  56.7114893  75.3707436 115.6909580  55.8041955  75.1396690 115.8900729
  57.2085925  74.5745056 115.8783562  59.6182972  84.0804944 118.6106266
  58.9444671  84.3836640 119.2191224  60.0048794  84.8834024 118.2611723
  58.8341429  71.5770075 128.1003935  57.9163990  71.7985022 127.9425624
  59.2501572  71.6516385 127.2415643  59.6176476  72.9761491 123.2306616
  60.3648295  73.4882888 122.9213738  59.8868066  72.6545543 124.0911009
  57.8903126  75.4720031 120.2133570  56.9814346  75.1879064 120.3106040
  57.9198210  75.8919110 119.3536877  63.1222394  79.0826621 123.9824738
  62.6684721  78.2417531 124.0389928  62.4916361  79.7188019 124.3199518
  62.0655313  70.0118607 125.2125405  61.3278070  69.4995993 125.5435648
  62.3182087  69.5718988 124.4008682  61.5655333  80.9203117 124.9174556
  61.8578308  81.4808175 124.1986921  62.0753954  81.2131678 125.6727715
  62.1666941  62.7894859 125.8067174  62.4725818  61.9292222 125.5193089
  62.8919546  63.3812479 125.6066168  48.4591297  73.1925545 124.1948772
  48.2615697  72.5994906 123.4699839  47.9037961  72.8877756 124.9124711
  56.4388021  73.0848652 126.3143365  56.4936630  72.1322488 126.2385842
  55.6279223  73.2408091 126.7984664  57.5879214  77.0128775 117.5521649
  57.1498644  76.2964634 117.0927286  58.3289655  77.2404890 116.9906740
  54.3780380  71.7025712 124.0733744  53.5648246  72.0019882 124.4798936
  54.8739375  71.3081400 124.7908227  56.5288958  81.6983469 126.0068009
  56.4865137  81.9244315 125.0776541  57.4451657  81.4646843 126.1553810
  59.9754592  72.1667536 132.9048638  60.3303980  72.3939009 133.7643104
  60.6226723  72.4985913 132.2825893  65.7052329  75.2885972 123.6097967
  65.5670228  75.4787568 122.6819156  65.3488548  76.0505355 124.0666018
  53.8694455  69.2744067 129.6894979  54.5093835  69.1332826 128.9917943
  53.0371986  68.9878580 129.3133581  65.7321709  77.3562499 128.6209239
  66.1658215  77.2637788 129.4692293  66.4453289  77.3319999 127.9829255
  54.6454759  78.5746498 125.8029972  55.4395358  78.0796818 125.6012547
  53.9346452  78.0464361 125.4397677  59.4649604  80.9564593 130.1542339
  59.5186626  81.5255529 130.9220055  58.5964385  81.1266478 129.7896376
  50.9537523  72.7189579 121.8789724  50.0235111  72.6574035 122.0959686
  51.0494995  72.1965532 121.0826366  50.8723072  69.2444392 124.4667966
  51.1329889  70.1589725 124.3577126  51.6940244  68.7768835 124.6164579
  52.3447997  70.6582149 131.6366791  53.0171050  70.4499511 130.9879439
  51.5177784  70.4604235 131.1972023  66.5937258  77.3986200 131.1542124
  66.7873148  78.3032010 131.4001399  66.4937876  76.9393619 131.9880709
  58.2473569  67.2844090 133.6532451  57.6001484  67.9834040 133.5596928
  59.0174584  67.7180234 134.0208700  61.6552367  77.5492942 136.7283005
  61.5037873  77.3203494 135.8113088  61.6457046  78.5063544 136.7414350
  58.4237703  75.1224855 131.7129271  59.3529763  75.2736015 131.5398238
  58.0028733  75.2108876 130.8577918  57.2226035  79.1475520 129.4827809
  57.0837121  78.7794304 130.3553747  56.4340631  79.6623159 129.3111767
  57.8174187  84.2484616 120.8253345  57.9925943  83.7772659 121.6398968
  57.1306975  84.8750382 121.0534606  58.7731250  78.5257122 126.8716647
  58.4381083  78.4857892 127.7674296  58.2735196  77.8601838 126.3987057
  52.7475494  73.9324752 132.3969228  52.6095292  73.2004991 132.9980767
  53.6580418  73.8433652 132.1153415  61.7090442  75.8713157 117.1453706
  61.0919613  75.1459985 117.0486759  61.2406930  76.6322517 116.8020780
  55.3757795  73.6444712 131.8852907  56.0857413  73.0037904 131.8439526
  55.3327103  73.8957606 132.8079088  63.3644574  80.5812065 134.8059487
  63.3057120  79.8971285 134.1390070  63.7664092  81.3231055 134.3540113
  54.0886729  70.6309929 133.7048547  53.5524086  70.1800668 134.3570143
  53.5003437  70.7655838 132.9619011  52.3835272  87.3973979 127.5993205
  52.6231871  88.0292503 128.2772224  51.5404469  87.0462019 127.8858565
  53.4988988  70.0898581 116.2675010  52.6218454  69.9687382 115.9037257
  53.9746741  69.2984659 116.0153899  63.3661981  78.5451649 133.0373466
  62.4788760  78.2077571 133.1599865  63.9360532  77.8134680 133.2742232
  45.0191128  74.8775741 126.3616518  45.7062168  74.5637471 125.7737533
  44.8639257  75.7817105 126.0883769  49.8225850  69.7665937 130.7901541
  49.7384039  69.1591607 130.0551951  49.0008557  70.2574955 130.7911038
  56.8963134  83.2053101 130.0034709  56.8233306  84.0108073 130.5154014
  56.4540527  83.4045067 129.1782731  56.6852914  82.4424871 123.5137531
  55.9020436  82.9846551 123.6075756  57.3845659  82.9598851 123.9131772
  59.9949564  68.2519501 126.1571736  60.4918264  67.4989463 125.8372807
  59.2236545  68.2883817 125.5914946  67.8479321  73.9559866 127.7990028
  67.8369198  74.8384582 127.4283961  66.9796701  73.6031417 127.6044565
  59.3561818  83.1039935 132.1592868  60.0689790  83.7387400 132.0868770
  58.8651846  83.2003801 131.3432870  61.0779345  77.0091188 123.7310160
  60.1435623  77.1292650 123.5614864  61.2556013  76.1063655 123.4670170
  56.5784533  70.3936884 125.8843421  56.2082320  69.8407924 126.5724327
  57.0743625  69.7895017 125.3318421  64.4651896  72.8508507 124.2660194
  64.9312348  73.6836499 124.1920497  64.9159397  72.3853489 124.9705452
  54.4073731  80.8534379 132.9798439  55.1083191  81.4870862 133.1327833
  53.9368846  81.1949110 132.2194078  62.5328127  79.1952328 121.2646346
  62.8087971  79.0808923 122.1740220  61.6632626  78.7969813 121.2258519
  62.4368559  65.2189094 128.3051095  61.5231639  65.4493321 128.4733302
  62.8661660  65.3027538 129.1565128  62.2075017  73.4078986 130.8050989
  61.5546467  73.6554894 130.1503442  62.5855397  72.5943124 130.4713467
  59.1682191  83.4438679 124.9079160  59.3504586  82.6260335 125.3706912
  59.9915177  83.6606372 124.4704050  59.5024357  82.3706864 122.1694208
  60.0312123  81.8599319 121.5564370  59.7652576  82.0549395 123.0339741
  58.2562590  74.1498797 137.2917026  57.5803227  74.0492927 137.9619402
  59.0790224  73.9938011 137.7553024  50.0041449  80.3870734 129.9129542
  50.5894886  79.6414422 130.0457446  49.8066288  80.6974690 130.7966206
  52.8580105  83.4221981 124.9291984  52.1890480  83.9068109 124.4456024
  52.7192974  83.6691202 125.8435363  44.5959104  72.9576334 128.6333985
  44.6343204  72.4239925 129.4271103  44.0899397  72.4311539 128.0144962
  56.9985373  85.4565725 131.5274642  57.5503681  85.6197346 132.2923728
  57.3391567  86.0470162 130.8554667  51.9749866  67.8040874 132.1296527
  52.0391193  68.6655705 131.7173925  51.9116987  67.1914876 131.3968886
  51.4502139  69.8764007 135.7769561  52.0774178  69.4941084 136.3907086
  50.5930058  69.6578209 136.1425254  61.8496247  80.2826982 137.3823297
  62.3936151  80.8956940 136.8878252  61.2683092  80.8406561 137.8990310
  48.2267682  71.6840436 121.7087916  48.5221123  70.7751114 121.6554970
  47.3255717  71.6628176 121.3868918  60.1353760  83.4047700 128.5138325
  60.0104900  82.6037440 128.0049270  60.7932852  83.8993894 128.0252294
  51.7561929  69.7596433 127.6915465  51.0348514  70.3732400 127.5522938
  52.5455184  70.2954197 127.6132111  62.1988669  81.2056720 130.1417875
  61.2519004  81.0862071 130.0696201  62.5471442  80.3179218 130.2244136
  54.5588242  67.0950859 133.9656117  55.0822644  67.3413156 134.7282426
  54.3400575  67.9270894 133.5459254  49.9555523  69.3654534 121.8327241
  49.6268229  68.4851913 121.6502347  50.3094894  69.3102202 122.7203631
  59.2035102  81.0009436 126.3422227  59.0560065  80.0726144 126.5229797
  60.0288596  81.0229527 125.8579302  53.0697346  69.6527504 122.2002719
  53.4093419  70.1813425 121.4781327  53.5169467  69.9907910 122.9761286
  62.8069224  81.8237995 127.4287100  63.7315771  81.6180857 127.2911551
  62.6384527  81.5754396 128.3376441  55.7640787  68.0364554 131.6505787
  55.4237608  67.2372367 132.0526467  55.0579794  68.3366265 131.0782620
  56.4157259  65.1213867 130.1033110  57.2383328  64.6474345 129.9812000
  56.6595323  65.9004350 130.6031796  55.0565494  68.1502125 120.3996012
  55.7773856  68.5283378 119.8959729  54.4330798  68.8691002 120.5030990
  59.1996616  68.8547274 121.3354344  59.4160231  69.7371912 121.0343172
  58.7190684  68.4633488 120.6059986  53.9395838  71.8132987 127.9125089
  53.7940419  72.1273290 128.8049370  53.4621041  72.4317888 127.3595987
  55.7992221  68.8035535 127.9605978  55.7853789  67.9076629 127.6238276
  56.5164649  68.8106199 128.5944264  57.6518351  69.2372876 130.0059106
  57.3936129  70.1589946 130.0043436  57.1203392  68.8403310 130.6959570
  62.5964540  82.3423663 122.7849191  62.7701418  81.7770085 122.0323044
  63.0893431  83.1424558 122.6028681  48.4141500  74.3538332 130.8512750
  47.8694968  75.1298140 130.9833024  49.2920850  74.7009136 130.6931871
  55.2029117  67.6849916 123.2293548  55.3245028  66.7566562 123.4284436
  54.9131159  67.6988602 122.3171864  58.0720307  65.3704826 126.3660268
  58.0942004  65.4344159 125.4112248  58.4888366  64.5309335 126.5600774
  68.4503931  75.1060086 124.4039491  68.8935077  74.3567411 124.0058614
  67.5730442  75.0970222 124.0213223  63.5839713  81.6590427 119.8846089
  64.2790617  82.2797120 120.1033404  63.9262863  80.8085778 120.1598467
  49.2007522  73.4808228 133.7442907  48.4589258  73.6290863 134.3307537
  48.8800266  73.7416494 132.8809656  65.4831136  79.1090133 121.4133420
  66.0082460  79.4477405 120.6882740  65.3953488  78.1737148 121.2296555
  57.1451184  83.0224206 133.5423297  57.4538311  82.7773353 134.4145996
  57.9426667  83.2270845 133.0542167  57.1671797  85.1762116 125.7728673
  56.7276787  84.6838495 126.4661530  57.9179913  84.6335084 125.5320749
  49.6464136  81.3673657 125.7753301  50.4722155  81.0677429 125.3951945
  49.2958188  80.5981279 126.2243090  54.6145669  80.7200125 127.8450975
  53.9925678  80.0570830 127.5453203  55.2850536  80.7461257 127.1624623
  47.8472741  79.2859983 126.7342235  47.0104649  78.8582158 126.5526236
  47.8196386  79.4792427 127.6713026  54.6870196  69.1981913 137.4383481
  54.7358352  70.0744036 137.0561251  55.2292710  68.6559306 136.8655124
  65.1725042  79.7423036 136.7184618  64.3820586  79.7247175 136.1789117
  64.9358396  80.2811330 137.4733655  65.2922917  76.5915503 134.0317347
  65.3420922  76.4265510 134.9732869  65.1836840  75.7242762 133.6415227
  54.1759176  79.2704048 121.3209435  54.3247296  79.9539513 120.6676108
  54.9825619  79.2509138 121.8358891  62.5826679  72.5746431 135.3476653
  63.4836542  72.4352895 135.0560651  62.6574654  72.7400885 136.2874831
  56.9169485  69.9513285 134.1929840  56.0472794  70.2446851 133.9212428
  57.1528965  70.5353730 134.9137103  66.7941114  79.0112444 134.2759368
  66.5025922  79.3742425 135.1122829  66.1813245  78.2979452 134.0972700
  67.9936796  76.5765324 126.7961938  68.8283687  77.0155128 126.9599499
  68.1295925  76.1003977 125.9770184  65.0428302  74.1345059 132.7439426
  65.5182424  74.3272705 131.9358277  64.1193867  74.1904245 132.4982810
  51.9311809  75.2969226 122.3270504  51.6857851  74.3931556 122.5250715
  52.1007723  75.2986376 121.3849982  59.6208518  66.1692902 131.7095260
  60.1390462  66.9053929 131.3841749  59.2663651  66.4756896 132.5442019
  51.2007456  71.0297583 119.8256666  50.5076701  71.1041938 119.1696702
  50.9559208  70.2657927 120.3478183  59.8721113  62.5893185 127.2296157
  60.1522866  61.9216374 127.8556583  60.6571720  62.7822280 126.7170820
  57.6754581  81.7652179 118.7921183  57.1028548  82.3842366 118.3391655
  58.2487375  82.3151540 119.3261105  63.7429971  71.0110819 130.9767732
  64.6947394  71.1108916 130.9979956  63.5733421  70.2189087 131.4865816
  61.7644350  68.0966402 131.1627133  61.1694283  68.3771415 130.4673621
  61.4794047  68.5860303 131.9343874  60.8951841  82.0489329 119.9229765
  61.8282514  81.9834891 120.1262641  60.8075054  82.8845596 119.4644298
  63.5239858  81.3655199 116.8833713  63.4453489  81.0315063 117.7769471
  64.3449524  81.8576967 116.8825185  66.2218049  74.2316939 130.0910031
  66.1894369  73.2932939 130.2769715  66.8318672  74.3100975 129.3575856
  58.0601380  73.1012991 116.1337235  59.0060484  72.9719200 116.2025653
  57.6815625  72.3627653 116.6106664  66.3712537  71.0227982 130.1368315
  65.8551586  70.2386439 129.9498243  67.2552486  70.6946699 130.3014834
  64.0323264  64.7668998 126.0964127  63.8348085  64.4584086 126.9807459
  64.6422970  65.4930636 126.2262057  72.0394599  75.2932945 129.2316068
  72.7697987  75.0318233 129.7923771  71.4301544  74.5561667 129.2718136
  70.1209896  73.4340808 129.8290519  69.3943059  73.2996773 129.2207011
  69.7057183  73.7417637 130.6347237  57.9440072  77.1530738 137.5937892
  58.8643082  77.3309337 137.7877939  57.9089655  76.2086783 137.4417592
  56.2444297  71.0262968 116.0692121  55.3375752  70.7296081 116.1454834
  56.5220278  70.7292786 115.2026407  47.1622237  72.3469331 126.5191167
  46.8425021  71.4934639 126.2265541  46.6155665  72.5617909 127.2749134
  50.9402145  75.0631772 130.2360674  51.1588154  75.9948880 130.2548707
  51.3527919  74.7039747 131.0215477  57.8606362  65.5699858 122.2236362
  57.0507091  65.2246943 122.5991608  58.5490779  65.2607401 122.8123973
  59.7896911  64.6477904 123.8460659  60.3427949  65.0673358 124.5050682
  60.0266997  63.7213653 123.8883615  55.8130010  70.6364978 139.6263422
  55.7126737  71.5859335 139.5575514  55.5951552  70.3083217 138.7539493
  55.0143081  67.8849903 116.2104100  55.8762245  68.2104801 116.4699917
  55.1993426  67.0981399 115.6977166  47.0310497  75.9672243 128.4884289
  46.3373969  75.5526196 127.9754243  47.7783488  76.0092779 127.8917708
  63.1675718  66.7578430 123.3539323  62.5874387  67.4163234 122.9717375
  62.9011651  65.9355774 122.9426740  61.6179284  66.1583487 125.5560643
  62.1179063  66.2700022 124.7474962  62.2614892  65.8544540 126.1961452
  55.6761280  74.0662117 138.4428484  55.1928362  74.8662477 138.6492373
  55.7622219  74.0770062 137.4895928  48.9447240  75.8990497 126.3650303
  48.9217928  75.9978184 125.4132187  49.2547876  76.7455647 126.6867470
  51.6034618  77.9566652 130.4796918  52.5577871  77.9250594 130.4126849
  51.4047141  77.4957275 131.2947144  52.1934000  76.5267768 133.0467716
  53.0126889  77.0211846 133.0702553  52.4670807  75.6099736 133.0185283
  61.9500596  68.9178520 122.4095671  61.0626451  69.2028171 122.1915866
  62.3654585  68.7572283 121.5622948  65.3015132  68.9425041 126.1250010
  66.0775522  69.4321493 126.3974627  64.5763266  69.3683095 126.5821880
  67.7387691  69.6552660 127.1823951  68.3332181  69.4148396 126.4717259
  67.8114274  68.9359791 127.8097487  49.9584846  83.4986271 127.4967116
  49.8239314  82.7386672 126.9305114  49.5416909  84.2227171 127.0295905
  61.0943809  78.6823195 116.5043691  61.7979659  78.8873197 117.1201347
  60.3706458  79.2499957 116.7692775  61.9241620  74.4333056 122.6245961
  61.8676821  74.8901607 121.7853594  62.4769962  73.6723740 122.4468804
  65.7346426  70.2222788 123.4496081  65.4783360  69.8219423 124.2804288
  65.1099294  70.9366582 123.3246220  70.0458763  72.9618861 125.9567372
  69.4858321  73.0312050 126.7298934  69.4402267  72.7859846 125.2366868
  53.1153972  84.3955588 127.7085558  52.9986356  85.3401021 127.6064249
  52.2946418  84.0929150 128.0971358  63.0030507  79.1205724 118.5542151
  63.8376111  78.6886922 118.3719626  62.8414850  78.9487737 119.4819046
  62.6576399  75.6237837 119.9198490  62.6025203  75.4582109 118.9786935
  62.0322454  76.3313870 120.0760680  47.4468914  70.8605901 133.7459913
  48.0927778  70.3504855 134.2347138  47.2386065  71.5974583 134.3203338
  59.9722306  77.9286749 139.2452053  60.8413466  78.1027401 138.8838688
  59.4929058  78.7481166 139.1227783  55.9672524  65.1245946 119.4983809
  55.9551194  66.0687786 119.6552080  56.8595946  64.9416092 119.2043270
  54.1408486  85.0483850 130.9241487  55.0435733  85.0807460 131.2407982
  53.9145856  84.1184301 130.9387823  55.8962088  83.8014837 127.5851565
  54.9457719  83.8016698 127.4715938  56.1994575  83.0547571 127.0687600
  59.7824644  61.7188723 123.7529746  59.0157040  61.1647209 123.8986428
  60.1935349  61.7910592 124.6143897  51.7866405  68.0073519 137.8434927
  52.6497866  67.6510323 138.0538251  51.2131816  67.6687413 138.5310331
  71.6314782  89.6375375 128.6497328  72.2693192  89.5182122 127.9460668
  71.5135625  90.5856219 128.7085280  68.4404488  89.5902803 128.5858853
  68.1023000  89.4743868 127.6979387  69.3094256  89.1893968 128.5659859
  64.2991304  91.4438279 124.5755744  63.7356169  91.3528216 123.8072031
  64.1843699  90.6238184 125.0558236  68.9224271  90.7437655 134.5445058
  68.9112912  90.3490453 133.6725562  69.0844911  90.0103727 135.1378830
  61.8455736  92.9389471 127.4139964  62.6377028  92.5980296 126.9986263
  62.0852386  93.0484446 128.3342117  69.8790863  95.1109247 119.8870208
  69.2278842  95.6963328 119.5004222  70.6735225  95.6415442 119.9465246
  63.8046490  92.1998384 120.2857343  64.5777366  91.6527371 120.1470219
  64.1571889  93.0642634 120.4971804  65.6431532  93.5274767 133.4924242
  65.3521398  94.4320397 133.3770908  66.2788517  93.5691294 134.2068312
  66.5687739  90.9051615 130.0825602  67.1651311  90.6807637 129.3682565
  66.6262711  90.1636361 130.6851050  66.1412768  88.3591050 117.9175793
  66.3938288  87.8372572 117.1559256  65.2037327  88.1957196 118.0202476
  71.1856050  87.3626829 125.7250536  71.9719140  86.9446252 125.3740953
  71.4494755  88.2672921 125.8932184  71.3566128  92.7999679 120.4239193
  70.7211961  92.8734306 121.1360097  71.0263534  93.3893278 119.7458272
  76.5864477  87.3002062 126.6283514  77.3189649  86.7301279 126.8621344
  75.8303833  86.9123662 127.0690020  65.8609056  90.2619156 120.1200168
  65.7445314  89.5864060 120.7881252  65.9711316  89.7751530 119.3032321
  68.2040597  89.7229303 123.8246857  67.8398804  89.1959924 124.5359778
  69.0607713  89.3327773 123.6513342  74.1089898  81.0123636 131.0878123
  73.7773223  81.8819047 130.8639338  73.5135511  80.6959920 131.7672153
  67.8446084  84.7519203 118.8208205  68.0120487  85.6199440 119.1878676
  67.6543253  84.9146485 117.8969495  70.6021417  93.2136182 130.4874036
  70.3022140  94.1161221 130.3789843  70.2572477  92.9468365 131.3395189
  64.0533899  89.6649979 126.5210740  63.1284395  89.5326193 126.7288432
  64.3018312  90.4444198 127.0180683  74.0018561  85.7318722 128.1671473
  73.0935438  85.6634131 127.8730234  73.9506157  86.2090667 128.9953299
  67.8235305  87.2076861 119.8054872  67.7034930  87.6533911 120.6440353
  67.1287893  87.5562178 119.2468410  61.4142710  89.3083252 127.3554529
  61.5435091  89.5617731 128.2693941  60.7340161  89.9010960 127.0359184
  65.5842197  99.9780502 123.4545003  65.5066227 100.9288327 123.5333484
  64.9803841  99.6326375 124.1119930  68.0759427  87.1508368 136.1106370
  67.2992761  87.7102288 136.1009235  68.7149990  87.6365151 136.6321240
  75.8680208  83.9335161 129.9449347  75.2254588  84.2267694 129.2989142
  75.3635136  83.8188081 130.7502544  73.5220371  87.6798334 120.6335206
  74.4338227  87.9125721 120.4582904  73.0130018  88.2635378 120.0710285
  66.3305799  89.9593821 135.6724337  67.0720484  90.4978865 135.3959161
  65.6242785  90.5860110 135.8295889  71.8061139  92.1022962 134.2696499
  72.2144495  91.6605372 133.5251131  71.0838400  91.5275589 134.5230692
  68.1592209  87.0395568 131.6430056  69.0053404  87.4634982 131.7864705
  68.0990847  86.3829193 132.3368619  72.1289954  92.6624152 128.0248788
  71.4998816  92.8269866 127.3224856  71.7415616  93.0765762 128.7959752
  76.0079185  93.5978590 125.3793151  75.3230224  93.9777491 124.8290185
  76.0923035  94.2073917 126.1125099  71.3091654  84.6999937 133.3011229
  71.0652586  85.4541997 132.7645505  71.5851585  85.0785284 134.1358476
  73.2630117  91.2438549 131.9788495  73.4747012  91.8870309 131.3022876
  73.2159865  90.4100866 131.5110425  70.8656346  83.8556370 128.8825067
  70.0040825  84.1537623 129.1741805  70.8918781  84.0726769 127.9506100
  67.6817915  92.3998560 125.2898873  68.1456261  92.6786263 124.5003495
  67.4174713  91.4982005 125.1071964  64.5741996  91.9470042 128.2278636
  65.1443354  92.3757310 127.5896121  65.1650108  91.6652627 128.9262822
  66.6186801  88.5221713 122.0988438  67.3210845  88.9742756 122.5662364
  66.2867430  87.8805532 122.7268331  65.0667163  87.1133469 136.4739647
  64.4365824  87.7949750 136.7075044  64.9603251  87.0016551 135.5292786
  60.3612135  86.7805265 127.4005572  59.5711189  87.0362794 126.9245682
  60.8523383  87.5953603 127.5057612  74.3775945  94.1210505 130.1510852
  75.1993389  93.7190692 129.8693534  74.3738348  94.0178739 131.1026968
  62.3126881  87.1449845 124.3589048  61.5158044  87.2568539 124.8772544
  62.0852473  87.4836497 123.4929939  68.1432548  93.6694548 132.3071563
  68.2076981  94.1314955 133.1429735  67.4343472  93.0391913 132.4353873
  58.6449838  87.0335756 129.8320562  58.8957877  87.9182766 130.0978138
  59.1809387  86.8540357 129.0595654  82.4681938  90.4649253 126.4995824
  81.7145646  89.8956651 126.3439828  82.6029479  90.4311918 127.4466459
  67.8580566  95.3362655 122.1750543  67.7226241  96.1814191 122.6035391
  68.3990379  95.5381933 121.4116477  64.3447906  81.4154235 138.8364898
  63.9514851  80.8620434 139.5112543  65.1614046  81.7264814 139.2271416
  61.3109963  92.8538093 122.7478468  61.8234484  93.6481344 122.8984033
  61.9632676  92.1564384 122.6812070  63.1204848  95.9703850 124.8301221
  63.2971476  96.8921814 124.6422205  63.9161682  95.6562269 125.2595601
  67.2615867  82.8312114 136.4285155  68.0025580  83.4319267 136.3489617
  67.4933790  82.0889752 135.8703198  62.4057205  88.0168482 134.7063385
  62.2910720  87.1153739 135.0070484  61.5501722  88.2632178 134.3548201
  69.4849042  95.9586222 136.3050885  69.0412897  95.1722600 135.9871790
  70.1466256  96.1465372 135.6394776  64.2436164  97.4882023 130.8311564
  64.7943589  97.3599087 130.0588558  63.4047640  97.7876912 130.4806457
  71.5830281  96.2389022 134.3332287  71.5648756  97.0597903 133.8412556
  72.5050201  96.1143097 134.5582428  68.0403335  93.7533151 135.1755795
  68.5731671  92.9921439 134.9455103  67.5117416  93.4606803 135.9179949
  71.2073030  78.8593217 130.7049437  70.8637299  79.7494859 130.6288547
  71.5751992  78.6694875 129.8419022  59.2758880  91.1826748 123.5238039
  60.1134102  91.5923756 123.3071747  59.4537148  90.2426190 123.4938233
  71.1723312  88.8501828 119.2121872  70.6569936  89.6206433 119.4510259
  70.9000621  88.1766965 119.8354933  68.7570423  83.6951529 124.2707110
  67.9012020  83.3058380 124.0912749  69.1697375  83.7743490 123.4106896
  70.2869570  81.2297872 128.6698670  69.7834366  81.1928008 127.8566475
  70.5800177  82.1390615 128.7295327  66.5312456  81.3136602 127.6764852
  67.3965453  81.1179411 127.3170741  66.5989965  81.0846954 128.6034208
  76.1457586  91.6034183 121.1475045  75.3687029  91.2645342 120.7030207
  76.8249067  91.6086806 120.4730010  70.9609616  86.7228920 121.0381653
  70.6559751  87.0375070 121.8891796  71.9140058  86.8010340 121.0808986
  69.4056047  92.8819144 122.6874607  68.8777409  92.1471903 122.3747844
  68.9043550  93.6593820 122.4414575  74.3848893  91.0768164 127.8041653
  73.7272568  91.7667426 127.8921782  75.1889293  91.4664596 128.1475640
  64.1374775  83.5438810 125.0481218  64.7118527  83.3213992 124.3154411
  64.7245757  83.6127505 125.8009820  73.1954352  89.4312537 125.8545595
  73.7086234  90.0642529 126.3567305  73.8455576  88.8313732 125.4888955
  64.4644362  85.5743271 119.0677104  63.6281674  85.9117958 119.3886378
  64.3249132  85.4392251 118.1304241  66.4397443  80.4180059 123.7756288
  65.7861855  80.1029076 123.1512903  66.3977917  79.7955799 124.5016111
  67.5508648  90.6999354 115.6909580  66.6435709  90.4688607 115.8900729
  68.0479680  89.9036973 115.8783562  70.4576726  99.4096861 118.6106266
  69.7838425  99.7128558 119.2191224  70.8442548 100.2125942 118.2611723
  69.6735183  86.9061992 128.1003935  68.7557744  87.1276940 127.9425624
  70.0895327  86.9808303 127.2415643  70.4570231  88.3053408 123.2306616
  71.2042050  88.8174805 122.9213738  70.7261820  87.9837461 124.0911009
  68.7296881  90.8011949 120.2133570  67.8208100  90.5170982 120.3106040
  68.7591965  91.2211027 119.3536877  73.9616148  94.4118538 123.9824738
  73.5078476  93.5709448 124.0389928  73.3310115  95.0479937 124.3199518
  72.9049068  85.3410524 125.2125405  72.1671825  84.8287911 125.5435648
  73.1575842  84.9010906 124.4008682  72.4049088  96.2495035 124.9174556
  72.6972062  96.8100092 124.1986921  72.9147708  96.5423596 125.6727715
  73.0060695  78.1186776 125.8067174  73.3119572  77.2584140 125.5193089
  73.7313300  78.7104397 125.6066168  59.2985051  88.5217463 124.1948772
  59.1009451  87.9286824 123.4699839  58.7431715  88.2169673 124.9124711
  67.2781775  88.4140570 126.3143365  67.3330385  87.4614406 126.2385842
  66.4672977  88.5700009 126.7984664  68.4272969  92.3420693 117.5521649
  67.9892399  91.6256551 117.0927286  69.1683410  92.5696807 116.9906740
  65.2174135  87.0317629 124.0733744  64.4042000  87.3311800 124.4798936
  65.7133129  86.6373318 124.7908227  67.3682713  97.0275386 126.0068009
  67.3258892  97.2536232 125.0776541  68.2845412  96.7938761 126.1553810
  70.8148347  87.4959454 132.9048638  71.1697734  87.7230927 133.7643104
  71.4620478  87.8277831 132.2825893  76.5446084  90.6177890 123.6097967
  76.4063982  90.8079486 122.6819156  76.1882302  91.3797272 124.0666018
  64.7088210  84.6035985 129.6894979  65.3487589  84.4624744 128.9917943
  63.8765740  84.3170498 129.3133581  76.5715463  92.6854417 128.6209239
  77.0051970  92.5929706 129.4692293  77.2847044  92.6611917 127.9829255
  65.4848514  93.9038415 125.8029972  66.2789112  93.4088735 125.6012547
  64.7740206  93.3756278 125.4397677  70.3043358  96.2856511 130.1542339
  70.3580380  96.8547447 130.9220055  69.4358139  96.4558396 129.7896376
  61.7931277  88.0481497 121.8789724  60.8628865  87.9865952 122.0959686
  61.8888749  87.5257450 121.0826366  61.7116826  84.5736310 124.4667966
  61.9723643  85.4881643 124.3577126  62.5333998  84.1060752 124.6164579
  63.1841751  85.9874067 131.6366791  63.8564805  85.7791429 130.9879439
  62.3571538  85.7896153 131.1972023  77.4331013  92.7278117 131.1542124
  77.6266903  93.6323928 131.4001399  77.3331631  92.2685536 131.9880709
  69.0867323  82.6136008 133.6532451  68.4395239  83.3125958 133.5596928
  69.8568339  83.0472152 134.0208700  72.4946121  92.8784860 136.7283005
  72.3431628  92.6495412 135.8113088  72.4850801  93.8355461 136.7414350
  69.2631458  90.4516773 131.7129271  70.1923518  90.6027932 131.5398238
  68.8422488  90.5400794 130.8577918  68.0619790  94.4767437 129.4827809
  67.9230875  94.1086222 130.3553747  67.2734386  94.9915077 129.3111767
  68.6567942  99.5776534 120.8253345  68.8319697  99.1064577 121.6398968
  67.9700730 100.2042300 121.0534606  69.6125005  93.8549040 126.8716647
  69.2774837  93.8149810 127.7674296  69.1128950  93.1893756 126.3987057
  63.5869249  89.2616670 132.3969228  63.4489047  88.5296909 132.9980767
  64.4974172  89.1725570 132.1153415  72.5484196  91.2005074 117.1453706
  71.9313367  90.4751902 117.0486759  72.0800685  91.9614434 116.8020780
  66.2151549  88.9736629 131.8852907  66.9251168  88.3329821 131.8439526
  66.1720858  89.2249524 132.8079088  74.2038328  95.9103983 134.8059487
  74.1450874  95.2263203 134.1390070  74.6057846  96.6522973 134.3540113
  64.9280483  85.9601847 133.7048547  64.3917840  85.5092586 134.3570143
  64.3397192  86.0947756 132.9619011  63.2229027 102.7265896 127.5993205
  63.4625625 103.3584421 128.2772224  62.3798223 102.3753936 127.8858565
  64.3382742  85.4190499 116.2675010  63.4612209  85.2979299 115.9037257
  64.8140495  84.6276577 116.0153899  74.2055735  93.8743567 133.0373466
  73.3182514  93.5369488 133.1599865  74.7754286  93.1426598 133.2742232
  55.8584882  90.2067658 126.3616518  56.5455922  89.8929388 125.7737533
  55.7033011  91.1109023 126.0883769  60.6619605  85.0957855 130.7901541
  60.5777793  84.4883524 130.0551951  59.8402311  85.5866873 130.7911038
  67.7356889  98.5345019 130.0034709  67.6627060  99.3399990 130.5154014
  67.2934282  98.7336985 129.1782731  67.5246668  97.7716789 123.5137531
  66.7414190  98.3138469 123.6075756  68.2239414  98.2890769 123.9131772
  70.8343318  83.5811418 126.1571736  71.3312018  82.8281381 125.8372807
  70.0630300  83.6175735 125.5914946  78.6873076  89.2851784 127.7990028
  78.6762952  90.1676499 127.4283961  77.8190455  88.9323335 127.6044565
  70.1955572  98.4331853 132.1592868  70.9083544  99.0679318 132.0868770
  69.7045601  98.5295719 131.3432870  71.9173099  92.3383106 123.7310160
  70.9829378  92.4584568 123.5614864  72.0949768  91.4355572 123.4670170
  67.4178287  85.7228801 125.8843421  67.0476075  85.1699842 126.5724327
  67.9137380  85.1186935 125.3318421  75.3045651  88.1800425 124.2660194
  75.7706103  89.0128416 124.1920497  75.7553151  87.7145406 124.9705452
  65.2467486  96.1826296 132.9798439  65.9476945  96.8162779 133.1327833
  64.7762601  96.5241028 132.2194078  73.3721882  94.5244246 121.2646346
  73.6481726  94.4100841 122.1740220  72.5026380  94.1261731 121.2258519
  73.2762313  80.5481012 128.3051095  72.3625393  80.7785239 128.4733302
  73.7055415  80.6319456 129.1565128  73.0468772  88.7370904 130.8050989
  72.3940222  88.9846811 130.1503442  73.4249152  87.9235042 130.4713467
  70.0075946  98.7730597 124.9079160  70.1898340  97.9552253 125.3706912
  70.8308932  98.9898289 124.4704050  70.3418111  97.6998782 122.1694208
  70.8705878  97.1891237 121.5564370  70.6046331  97.3841312 123.0339741
  69.0956345  89.4790715 137.2917026  68.4196982  89.3784844 137.9619402
  69.9183979  89.3229929 137.7553024  60.8435204  95.7162651 129.9129542
  61.4288641  94.9706339 130.0457446  60.6460042  96.0266608 130.7966206
  63.6973859  98.7513899 124.9291984  63.0284234  99.2360026 124.4456024
  63.5586729  98.9983119 125.8435363  55.4352859  88.2868252 128.6333985
  55.4736958  87.7531842 129.4271103  54.9293151  87.7603457 128.0144962
  67.8379128 100.7857642 131.5274642  68.3897436 100.9489264 132.2923728
  68.1785321 101.3762080 130.8554667  62.8143621  83.1332792 132.1296527
  62.8784947  83.9947623 131.7173925  62.7510741  82.5206794 131.3968886
  62.2895893  85.2055925 135.7769561  62.9167932  84.8233002 136.3907086
  61.4323812  84.9870127 136.1425254  72.6890002  95.6118900 137.3823297
  73.2329906  96.2248858 136.8878252  72.1076847  96.1698478 137.8990310
  59.0661436  87.0132354 121.7087916  59.3614877  86.1043032 121.6554970
  58.1649472  86.9920093 121.3868918  70.9747515  98.7339618 128.5138325
  70.8498654  97.9329358 128.0049270  71.6326606  99.2285811 128.0252294
  62.5955683  85.0888350 127.6915465  61.8742269  85.7024318 127.5522938
  63.3848939  85.6246115 127.6132111  73.0382423  96.5348638 130.1417875
  72.0912759  96.4153989 130.0696201  73.3865196  95.6471136 130.2244136
  65.3981997  82.4242777 133.9656117  65.9216398  82.6705073 134.7282426
  65.1794330  83.2562812 133.5459254  60.7949278  84.6946451 121.8327241
  60.4661984  83.8143830 121.6502347  61.1488648  84.6394120 122.7203631
  70.0428857  96.3301354 126.3422227  69.8953819  95.4018062 126.5229797
  70.8682350  96.3521445 125.8579302  63.9091101  84.9819421 122.2002719
  64.2487173  85.5105342 121.4781327  64.3563221  85.3199827 122.9761286
  73.6462978  97.1529913 127.4287100  74.5709526  96.9472774 127.2911551
  73.4778282  96.9046314 128.3376441  66.6034542  83.3656472 131.6505787
  66.2631362  82.5664285 132.0526467  65.8973548  83.6658183 131.0782620
  67.2551014  80.4505784 130.1033110  68.0777083  79.9766263 129.9812000
  67.4989077  81.2296268 130.6031796  65.8959248  83.4794043 120.3996012
  66.6167611  83.8575296 119.8959729  65.2724552  84.1982920 120.5030990
  70.0390371  84.1839192 121.3354344  70.2553985  85.0663830 121.0343172
  69.5584438  83.7925405 120.6059986  64.7789592  87.1424905 127.9125089
  64.6334173  87.4565208 128.8049370  64.3014796  87.7609805 127.3595987
  66.6385975  84.1327453 127.9605978  66.6247544  83.2368546 127.6238276
  67.3558403  84.1398117 128.5944264  68.4912106  84.5664793 130.0059106
  68.2329884  85.4881864 130.0043436  67.9597146  84.1695228 130.6959570
  73.4358295  97.6715580 122.7849191  73.6095172  97.1062003 122.0323044
  73.9287186  98.4716475 122.6028681  59.2535254  89.6830249 130.8512750
  58.7088723  90.4590057 130.9833024  60.1314604  90.0301054 130.6931871
  66.0422871  83.0141833 123.2293548  66.1638782  82.0858479 123.4284436
  65.7524913  83.0280519 122.3171864  68.9114062  80.6996744 126.3660268
  68.9335758  80.7636077 125.4112248  69.3282121  79.8601252 126.5600774
  79.2897686  90.4352003 124.4039491  79.7328832  89.6859328 124.0058614
  78.4124196  90.4262140 124.0213223  74.4233467  96.9882345 119.8846089
  75.1184372  97.6089037 120.1033404  74.7656617  96.1377696 120.1598467
  60.0401276  88.8100146 133.7442907  59.2983012  88.9582781 134.3307537
  59.7194021  89.0708411 132.8809656  76.3224890  94.4382050 121.4133420
  76.8476214  94.7769323 120.6882740  76.2347243  93.5029066 121.2296555
  67.9844939  98.3516124 133.5423297  68.2932065  98.1065271 134.4145996
  68.7820421  98.5562762 133.0542167  68.0065551 100.5054034 125.7728673
  67.5670541 100.0130412 126.4661530  68.7573668  99.9627001 125.5320749
  60.4857890  96.6965574 125.7753301  61.3115910  96.3969346 125.3951945
  60.1351942  95.9273197 126.2243090  65.4539423  96.0492043 127.8450975
  64.8319432  95.3862748 127.5453203  66.1244290  96.0753175 127.1624623
  58.6866495  94.6151901 126.7342235  57.8498403  94.1874075 126.5526236
  58.6590140  94.8084344 127.6713026  65.5263951  84.5273831 137.4383481
  65.5752106  85.4035953 137.0561251  66.0686465  83.9851224 136.8655124
  76.0118796  95.0714954 136.7184618  75.2214340  95.0539093 136.1789117
  75.7752151  95.6103248 137.4733655  76.1316671  91.9207420 134.0317347
  76.1814676  91.7557428 134.9732869  76.0230595  91.0534679 133.6415227
  65.0152930  94.5995966 121.3209435  65.1641050  95.2831430 120.6676108
  65.8219374  94.5801056 121.8358891  73.4220434  87.9038348 135.3476653
  74.3230297  87.7644813 135.0560651  73.4968408  88.0692803 136.2874831
  67.7563239  85.2805203 134.1929840  66.8866549  85.5738769 133.9212428
  67.9922719  85.8645648 134.9137103  77.6334868  94.3404362 134.2759368
  77.3419677  94.7034342 135.1122829  77.0206999  93.6271370 134.0972700
  78.8330551  91.9057242 126.7961938  79.6677442  92.3447046 126.9599499
  78.9689679  91.4295895 125.9770184  75.8822056  89.4636976 132.7439426
  76.3576178  89.6564623 131.9358277  74.9587622  89.5196162 132.4982810
  62.7705563  90.6261144 122.3270504  62.5251605  89.7223474 122.5250715
  62.9401478  90.6278294 121.3849982  70.4602273  81.4984820 131.7095260
  70.9784217  82.2345847 131.3841749  70.1057406  81.8048813 132.5442019
  62.0401211  86.3589501 119.8256666  61.3470456  86.4333856 119.1696702
  61.7952962  85.5949845 120.3478183  70.7114867  77.9185103 127.2296157
  70.9916621  77.2508292 127.8556583  71.4965474  78.1114198 126.7170820
  68.5148336  97.0944096 118.7921183  67.9422303  97.7134284 118.3391655
  69.0881129  97.6443458 119.3261105  74.5823725  86.3402736 130.9767732
  75.5341148  86.4400834 130.9979956  74.4127176  85.5481005 131.4865816
  72.6038105  83.4258320 131.1627133  72.0088037  83.7063332 130.4673621
  72.3187802  83.9152221 131.9343874  71.7345595  97.3781247 119.9229765
  72.6676269  97.3126808 120.1262641  71.6468808  98.2137513 119.4644298
  74.3633612  96.6947117 116.8833713  74.2847244  96.3606980 117.7769471
  75.1843279  97.1868885 116.8825185  77.0611803  89.5608856 130.0910031
  77.0288123  88.6224857 130.2769715  77.6712427  89.6392893 129.3575856
  68.8995134  88.4304909 116.1337235  69.8454239  88.3011117 116.2025653
  68.5209379  87.6919571 116.6106664  77.2106292  86.3519900 130.1368315
  76.6945340  85.5678356 129.9498243  78.0946240  86.0238616 130.3014834
  74.8717019  80.0960915 126.0964127  74.6741840  79.7876003 126.9807459
  75.4816724  80.8222554 126.2262057  82.8788353  90.6224863 129.2316068
  83.6091742  90.3610151 129.7923771  82.2695299  89.8853585 129.2718136
  80.9603650  88.7632726 129.8290519  80.2336814  88.6288691 129.2207011
  80.5450937  89.0709554 130.6347237  68.7833827  92.4822655 137.5937892
  69.7036836  92.6601254 137.7877939  68.7483410  91.5378701 137.4417592
  67.0838051  86.3554886 116.0692121  66.1769507  86.0587998 116.1454834
  67.3614032  86.0584704 115.2026407  58.0015992  87.6761249 126.5191167
  57.6818776  86.8226557 126.2265541  57.4549420  87.8909827 127.2749134
  61.7795899  90.3923690 130.2360674  61.9981909  91.3240798 130.2548707
  62.1921673  90.0331664 131.0215477  68.7000117  80.8991775 122.2236362
  67.8900845  80.5538860 122.5991608  69.3884534  80.5899319 122.8123973
  70.6290665  79.9769822 123.8460659  71.1821704  80.3965275 124.5050682
  70.8660752  79.0505570 123.8883615  66.6523765  85.9656896 139.6263422
  66.5520491  86.9151253 139.5575514  66.4345307  85.6375135 138.7539493
  65.8536836  83.2141821 116.2104100  66.7156000  83.5396719 116.4699917
  66.0387180  82.4273317 115.6977166  57.8704252  91.2964160 128.4884289
  57.1767723  90.8818113 127.9754243  58.6177243  91.3384697 127.8917708
  74.0069472  82.0870347 123.3539323  73.4268141  82.7455151 122.9717375
  73.7405405  81.2647692 122.9426740  72.4573039  81.4875405 125.5560643
  72.9572817  81.5991939 124.7474962  73.1008647  81.1836458 126.1961452
  66.5155035  89.3954035 138.4428484  66.0322116  90.1954395 138.6492373
  66.6015974  89.4061979 137.4895928  59.7840994  91.2282414 126.3650303
  59.7611682  91.3270102 125.4132187  60.0941631  92.0747565 126.6867470
  62.4428372  93.2858569 130.4796918  63.3971626  93.2542512 130.4126849
  62.2440896  92.8249193 131.2947144  63.0327754  91.8559685 133.0467716
  63.8520643  92.3503764 133.0702553  63.3064562  90.9391653 133.0185283
  72.7894350  84.2470438 122.4095671  71.9020205  84.5320088 122.1915866
  73.2048339  84.0864201 121.5622948  76.1408887  84.2716959 126.1250010
  76.9169277  84.7613411 126.3974627  75.4157021  84.6975013 126.5821880
  78.5781445  84.9844578 127.1823951  79.1725936  84.7440314 126.4717259
  78.6508029  84.2651708 127.8097487  60.7978601  98.8278189 127.4967116
  60.6633069  98.0678590 126.9305114  60.3810663  99.5519089 127.0295905
  71.9337564  94.0115112 116.5043691  72.6373414  94.2165115 117.1201347
  71.2100213  94.5791874 116.7692775  72.7635374  89.7624974 122.6245961
  72.7070576  90.2193525 121.7853594  73.3163717  89.0015658 122.4468804
  76.5740180  85.5514705 123.4496081  76.3177114  85.1511341 124.2804288
  75.9493048  86.2658499 123.3246220  80.8852518  88.2910779 125.9567372
  80.3252076  88.3603968 126.7298934  80.2796021  88.1151763 125.2366868
  63.9547727  99.7247506 127.7085558  63.8380111 100.6692938 127.6064249
  63.1340173  99.4221067 128.0971358  73.8424261  94.4497641 118.5542151
  74.6769865  94.0178840 118.3719626  73.6808604  94.2779655 119.4819046
  73.4970153  90.9529755 119.9198490  73.4418957  90.7874026 118.9786935
  72.8716209  91.6605788 120.0760680  58.2862668  86.1897819 133.7459913
  58.9321532  85.6796773 134.2347138  58.0779820  86.9266501 134.3203338
  70.8116061  93.2578667 139.2452053  71.6807220  93.4319319 138.8838688
  70.3322812  94.0773083 139.1227783  66.8066279  80.4537864 119.4983809
  66.7944949  81.3979704 119.6552080  67.6989701  80.2708009 119.2043270
  64.9802241 100.3775768 130.9241487  65.8829488 100.4099378 131.2407982
  64.7539611  99.4476219 130.9387823  66.7355843  99.1306754 127.5851565
  65.7851474  99.1308616 127.4715938  67.0388329  98.3839489 127.0687600
  70.6218398  77.0480640 123.7529746  69.8550794  76.4939127 123.8986428
  71.0329103  77.1202509 124.6143897  62.6260159  83.3365436 137.8434927
  63.4891621  82.9802241 138.0538251  62.0525570  82.9979331 138.5310331
  82.4708536 104.9667293 128.6497328  83.1086946 104.8474040 127.9460668
  82.3529379 105.9148137 128.7085280  79.2798243 104.9194721 128.5858853
  78.9416754 104.8035785 127.6979387  80.1488011 104.5185886 128.5659859
  75.1385058 106.7730197 124.5755744  74.5749923 106.6820134 123.8072031
  75.0237453 105.9530102 125.0558236  79.7618026 106.0729572 134.5445058
  79.7506666 105.6782371 133.6725562  79.9238665 105.3395645 135.1378830
  72.6849490 108.2681389 127.4139964  73.4770782 107.9272213 126.9986263
  72.9246140 108.3776364 128.3342117  80.7184617 110.4401165 119.8870208
  80.0672597 111.0255245 119.5004222  81.5128980 110.9707360 119.9465246
  74.6440244 107.5290302 120.2857343  75.4171120 106.9819289 120.1470219
  74.9965643 108.3934551 120.4971804  76.4825287 108.8566684 133.4924242
  76.1915153 109.7612315 133.3770908  77.1182271 108.8983212 134.2068312
  77.4081494 106.2343533 130.0825602  78.0045066 106.0099555 129.3682565
  77.4656465 105.4928278 130.6851050  76.9806522 103.6882968 117.9175793
  77.2332043 103.1664489 117.1559256  76.0431081 103.5249114 118.0202476
  82.0249805 102.6918746 125.7250536  82.8112894 102.2738170 125.3740953
  82.2888509 103.5964839 125.8932184  82.1959882 108.1291597 120.4239193
  81.5605715 108.2026223 121.1360097  81.8657289 108.7185196 119.7458272
  87.4258232 102.6293980 126.6283514  88.1583404 102.0593196 126.8621344
  86.6697588 102.2415580 127.0690020  76.7002811 105.5911074 120.1200168
  76.5839069 104.9155977 120.7881252  76.8105071 105.1043448 119.3032321
  79.0434352 105.0521221 123.8246857  78.6792559 104.5251842 124.5359778
  79.9001468 104.6619690 123.6513342  84.9483652  96.3415554 131.0878123
  84.6166977  97.2110965 130.8639338  84.3529266  96.0251838 131.7672153
  78.6839839 100.0811121 118.8208205  78.8514241 100.9491357 119.1878676
  78.4937008 100.2438403 117.8969495  81.4415172 108.5428100 130.4874036
  81.1415895 109.4453139 130.3789843  81.0966231 108.2760283 131.3395189
  74.8927653 104.9941897 126.5210740  73.9678150 104.8618111 126.7288432
  75.1412067 105.7736116 127.0180683  84.8412316 101.0610640 128.1671473
  83.9329193 100.9926048 127.8730234  84.7899911 101.5382585 128.9953299
  78.6629060 102.5368778 119.8054872  78.5428685 102.9825829 120.6440353
  77.9681648 102.8854096 119.2468410  72.2536464 104.6375170 127.3554529
  72.3828846 104.8909649 128.2693941  71.5733916 105.2302878 127.0359184
  76.4235952 115.3072420 123.4545003  76.3459981 116.2580245 123.5333484
  75.8197595 114.9618293 124.1119930  78.9153181 102.4800286 136.1106370
  78.1386515 103.0394206 136.1009235  79.5543744 102.9657068 136.6321240
  86.7073962  99.2627078 129.9449347  86.0648342  99.5559611 129.2989142
  86.2028891  99.1479999 130.7502544  84.3614126 103.0090252 120.6335206
  85.2731982 103.2417638 120.4582904  83.8523773 103.5927296 120.0710285
  77.1699554 105.2885739 135.6724337  77.9114238 105.8270783 135.3959161
  76.4636539 105.9152028 135.8295889  82.6454893 107.4314879 134.2696499
  83.0538249 106.9897290 133.5251131  81.9232155 106.8567507 134.5230692
  78.9985963 102.3687486 131.6430056  79.8447159 102.7926900 131.7864705
  78.9384601 101.7121110 132.3368619  82.9683708 107.9916070 128.0248788
  82.3392570 108.1561784 127.3224856  82.5809370 108.4057680 128.7959752
  86.8472940 108.9270508 125.3793151  86.1623978 109.3069409 124.8290185
  86.9316789 109.5365834 126.1125099  82.1485409 100.0291854 133.3011229
  81.9046341 100.7833915 132.7645505  82.4245339 100.4077202 134.1358476
  84.1023872 106.5730467 131.9788495  84.3140767 107.2162227 131.3022876
  84.0553620 105.7392783 131.5110425  81.7050100  99.1848287 128.8825067
  80.8434579  99.4829541 129.1741805  81.7312535  99.4018686 127.9506100
  78.5211670 107.7290478 125.2898873  78.9850015 108.0078181 124.5003495
  78.2568468 106.8273923 125.1071964  75.4135751 107.2761960 128.2278636
  75.9837108 107.7049228 127.5896121  76.0043863 106.9944544 128.9262822
  77.4580556 103.8513630 122.0988438  78.1604599 104.3034674 122.5662364
  77.1261184 103.2097449 122.7268331  75.9060917 102.4425387 136.4739647
  75.2759578 103.1241668 136.7075044  75.7997005 102.3308469 135.5292786
  71.2005890 102.1097183 127.4005572  70.4104944 102.3654712 126.9245682
  71.6917137 102.9245521 127.5057612  85.2169699 109.4502422 130.1510852
  86.0387143 109.0482610 129.8693534  85.2132102 109.3470656 131.1026968
  73.1520635 102.4741762 124.3589048  72.3551799 102.5860457 124.8772544
  72.9246227 102.8128415 123.4929939  78.9826303 108.9986466 132.3071563
  79.0470735 109.4606873 133.1429735  78.2737227 108.3683830 132.4353873
  69.4843593 102.3627674 129.8320562  69.7351631 103.2474683 130.0978138
  70.0203141 102.1832275 129.0595654  93.3075693 105.7941171 126.4995824
  92.5539401 105.2248569 126.3439828  93.4423234 105.7603835 127.4466459
  78.6974321 110.6654573 122.1750543  78.5619995 111.5106109 122.6035391
  79.2384133 110.8673851 121.4116477  75.1841660  96.7446153 138.8364898
  74.7908606  96.1912351 139.5112543  76.0007801  97.0556731 139.2271416
  72.1503718 108.1830011 122.7478468  72.6628239 108.9773261 122.8984033
  72.8026431 107.4856302 122.6812070  73.9598603 111.2995767 124.8301221
  74.1365231 112.2213732 124.6422205  74.7555436 110.9854187 125.2595601
  78.1009621  98.1604032 136.4285155  78.8419335  98.7611185 136.3489617
  78.3327544  97.4181670 135.8703198  73.2450959 103.3460399 134.7063385
  73.1304474 102.4445656 135.0070484  72.3895477 103.5924096 134.3548201
  80.3242797 111.2878140 136.3050885  79.8806651 110.5014518 135.9871790
  80.9860011 111.4757290 135.6394776  75.0829918 112.8173941 130.8311564
  75.6337343 112.6891005 130.0588558  74.2441394 113.1168830 130.4806457
  82.4224035 111.5680939 134.3332287  82.4042510 112.3889821 133.8412556
  83.3443955 111.4435015 134.5582428  78.8797089 109.0825069 135.1755795
  79.4125426 108.3213357 134.9455103  78.3511170 108.7898721 135.9179949
  82.0466784  94.1885135 130.7049437  81.7031054  95.0786777 130.6288547
  82.4145747  93.9986793 129.8419022  70.1152635 106.5118665 123.5238039
  70.9527857 106.9215674 123.3071747  70.2930902 105.5718108 123.4938233
  82.0117067 104.1793746 119.2121872  81.4963690 104.9498351 119.4510259
  81.7394375 103.5058882 119.8354933  79.5964178  99.0243447 124.2707110
  78.7405774  98.6350297 124.0912749  80.0091130  99.1035408 123.4106896
  81.1263325  96.5589790 128.6698670  80.6228120  96.5219925 127.8566475
  81.4193931  97.4682533 128.7295327  77.3706210  96.6428520 127.6764852
  78.2359207  96.4471328 127.3170741  77.4383719  96.4138872 128.6034208
  86.9851341 106.9326101 121.1475045  86.2080784 106.5937260 120.7030207
  87.6642822 106.9378724 120.4730010  81.8003370 102.0520838 121.0381653
  81.4953506 102.3666987 121.8891796  82.7533812 102.1302258 121.0808986
  80.2449802 108.2111061 122.6874607  79.7171163 107.4763821 122.3747844
  79.7437305 108.9885738 122.4414575  85.2242648 106.4060082 127.8041653
  84.5666322 107.0959343 127.8921782  86.0283047 106.7956514 128.1475640
  74.9768529  98.8730728 125.0481218  75.5512281  98.6505909 124.3154411
  75.5639512  98.9419422 125.8009820  84.0348107 104.7604455 125.8545595
  84.5479988 105.3934446 126.3567305  84.6849331 104.1605650 125.4888955
  75.3038117 100.9035189 119.0677104  74.4675429 101.2409875 119.3886378
  75.1642886 100.7684169 118.1304241  77.2791197  95.7471977 123.7756288
  76.6255610  95.4320994 123.1512903  77.2371671  95.1247717 124.5016111
  81.2970481 114.7388779 118.6106266  80.6232180 115.0420476 119.2191224
  81.6836303 115.5417859 118.2611723  80.5128938 102.2353910 128.1003935
  79.5951499 102.4568857 127.9425624  80.9289081 102.3100221 127.2415643
  81.2963985 103.6345326 123.2306616  82.0435804 104.1466723 122.9213738
  81.5655575 103.3129379 124.0911009  79.5690635 106.1303867 120.2133570
  78.6601855 105.8462899 120.3106040  79.5985719 106.5502945 119.3536877
  84.8009903 109.7410456 123.9824738  84.3472230 108.9001366 124.0389928
  84.1703870 110.3771854 124.3199518  83.7442822 100.6702442 125.2125405
  83.0065579 100.1579828 125.5435648  83.9969596 100.2302824 124.4008682
  83.2442842 111.5786953 124.9174556  83.5365817 112.1392010 124.1986921
  83.7541463 111.8715514 125.6727715  83.8454450  93.4478694 125.8067174
  84.1513327  92.5876058 125.5193089  84.5707055  94.0396314 125.6066168
  70.1378806 103.8509381 124.1948772  69.9403206 103.2578741 123.4699839
  69.5825470 103.5461591 124.9124711  78.1175530 103.7432487 126.3143365
  78.1724139 102.7906324 126.2385842  77.3066732 103.8991926 126.7984664
  76.0567889 102.3609547 124.0733744  75.2435755 102.6603717 124.4798936
  76.5526884 101.9665236 124.7908227  78.2076467 112.3567304 126.0068009
  78.1652646 112.5828150 125.0776541  79.1239166 112.1230678 126.1553810
  81.6542101 102.8251371 132.9048638  82.0091489 103.0522845 133.7643104
  82.3014232 103.1569748 132.2825893  87.3839838 105.9469807 123.6097967
  87.2457737 106.1371403 122.6819156  87.0276057 106.7089190 124.0666018
  75.5481964  99.9327902 129.6894979  76.1881344  99.7916662 128.9917943
  74.7159495  99.6462416 129.3133581  87.4109218 108.0146334 128.6209239
  87.8445724 107.9221623 129.4692293  88.1240798 107.9903835 127.9829255
  76.3242268 109.2330333 125.8029972  77.1182867 108.7380653 125.6012547
  75.6133960 108.7048196 125.4397677  81.1437113 111.6148428 130.1542339
  81.1974135 112.1839365 130.9220055  80.2751894 111.7850313 129.7896376
  72.6325032 103.3773415 121.8789724  71.7022620 103.3157870 122.0959686
  72.7282504 102.8549367 121.0826366  72.5510581  99.9028227 124.4667966
  72.8117398 100.8173561 124.3577126  73.3727753  99.4352670 124.6164579
  74.0235506 101.3165985 131.6366791  74.6958559 101.1083347 130.9879439
  73.1965292 101.1188071 131.1972023  88.2724767 108.0570035 131.1542124
  88.4660657 108.9615845 131.4001399  88.1725385 107.5977454 131.9880709
  79.9261078  97.9427926 133.6532451  79.2788993  98.6417875 133.5596928
  80.6962093  98.3764069 134.0208700  83.3339876 108.2076778 136.7283005
  83.1825382 107.9787329 135.8113088  83.3244555 109.1647379 136.7414350
  80.1025212 105.7808690 131.7129271  81.0317272 105.9319850 131.5398238
  79.6816242 105.8692711 130.8577918  78.9013544 109.8059355 129.4827809
  78.7624630 109.4378139 130.3553747  78.1128140 110.3206994 129.3111767
  79.4961696 114.9068451 120.8253345  79.6713452 114.4356495 121.6398968
  78.8094484 115.5334218 121.0534606  80.4518759 109.1840958 126.8716647
  80.1168592 109.1441728 127.7674296  79.9522705 108.5185673 126.3987057
  74.4263003 104.5908588 132.3969228  74.2882801 103.8588826 132.9980767
  75.3367927 104.5017488 132.1153415  83.3877951 106.5296992 117.1453706
  82.7707122 105.8043820 117.0486759  82.9194439 107.2906352 116.8020780
  77.0545304 104.3028547 131.8852907  77.7644922 103.6621739 131.8439526
  77.0114612 104.5541442 132.8079088  85.0432083 111.2395900 134.8059487
  84.9844629 110.5555120 134.1390070  85.4451601 111.9814890 134.3540113
  75.7674238 101.2893765 133.7048547  75.2311595 100.8384503 134.3570143
  75.1790946 101.4239674 132.9619011  74.0622781 118.0557814 127.5993205
  74.3019380 118.6876338 128.2772224  73.2191978 117.7045854 127.8858565
  75.1776497 100.7482416 116.2675010  74.3005963 100.6271217 115.9037257
  75.6534250  99.9568494 116.0153899  85.0449490 109.2035484 133.0373466
  84.1576269 108.8661406 133.1599865  85.6148041 108.4718515 133.2742232
  66.6978637 105.5359576 126.3616518  67.3849677 105.2221306 125.7737533
  66.5426766 106.4400941 126.0883769  71.5013359 100.4249772 130.7901541
  71.4171548  99.8175442 130.0551951  70.6796065 100.9158791 130.7911038
  78.5750643 113.8636937 130.0034709  78.5020815 114.6691908 130.5154014
  78.1328036 114.0628902 129.1782731  78.3640423 113.1008707 123.5137531
  77.5807945 113.6430387 123.6075756  79.0633168 113.6182686 123.9131772
  81.6737073  98.9103336 126.1571736  82.1705772  98.1573298 125.8372807
  80.9024054  98.9467653 125.5914946  89.5266830 104.6143702 127.7990028
  89.5156707 105.4968417 127.4283961  88.6584210 104.2615252 127.6044565
  81.0349327 113.7623771 132.1592868  81.7477299 114.3971235 132.0868770
  80.5439355 113.8587637 131.3432870  82.7566854 107.6675023 123.7310160
  81.8223132 107.7876486 123.5614864  82.9343522 106.7647490 123.4670170
  78.2572042 101.0520719 125.8843421  77.8869829 100.4991759 126.5724327
  78.7531134 100.4478852 125.3318421  86.1439405 103.5092343 124.2660194
  86.6099857 104.3420334 124.1920497  86.5946905 103.0437324 124.9705452
  76.0861240 111.5118214 132.9798439  76.7870700 112.1454697 133.1327833
  75.6156355 111.8532946 132.2194078  84.2115636 109.8536164 121.2646346
  84.4875480 109.7392758 122.1740220  83.3420135 109.4553649 121.2258519
  84.1156068  95.8772930 128.3051095  83.2019148  96.1077156 128.4733302
  84.5449169  95.9611374 129.1565128  83.8862526 104.0662821 130.8050989
  83.2333976 104.3138729 130.1503442  84.2642906 103.2526960 130.4713467
  80.8469700 114.1022515 124.9079160  81.0292095 113.2844171 125.3706912
  81.6702686 114.3190207 124.4704050  81.1811866 113.0290700 122.1694208
  81.7099632 112.5183154 121.5564370  81.4440085 112.7133230 123.0339741
  79.9350099 104.8082633 137.2917026  79.2590736 104.7076762 137.9619402
  80.7577733 104.6521846 137.7553024  71.6828958 111.0454569 129.9129542
  72.2682395 110.2998257 130.0457446  71.4853797 111.3558526 130.7966206
  74.5367614 114.0805816 124.9291984  73.8677989 114.5651944 124.4456024
  74.3980483 114.3275037 125.8435363  66.2746613 103.6160169 128.6333985
  66.3130713 103.0823760 129.4271103  65.7686906 103.0895375 128.0144962
  78.6772882 116.1149560 131.5274642  79.2291190 116.2781181 132.2923728
  79.0179076 116.7053998 130.8554667  73.6537375  98.4624710 132.1296527
  73.7178702  99.3239541 131.7173925  73.5904496  97.8498711 131.3968886
  73.1289648 100.5347842 135.7769561  73.7561687 100.1524920 136.3907086
  72.2717567 100.3162044 136.1425254  83.5283756 110.9410817 137.3823297
  84.0723660 111.5540776 136.8878252  82.9470601 111.4990396 137.8990310
  69.9055191 102.3424271 121.7087916  70.2008632 101.4334950 121.6554970
  69.0043226 102.3212011 121.3868918  81.8141269 114.0631536 128.5138325
  81.6892409 113.2621275 128.0049270  82.4720361 114.5577729 128.0252294
  73.4349438 100.4180268 127.6915465  72.7136023 101.0316236 127.5522938
  74.2242693 100.9538033 127.6132111  83.8776178 111.8640556 130.1417875
  82.9306513 111.7445907 130.0696201  84.2258951 110.9763054 130.2244136
  76.2375751  97.7534695 133.9656117  76.7610153  97.9996991 134.7282426
  76.0188084  98.5854729 133.5459254  71.6343032 100.0238369 121.8327241
  71.3055738  99.1435748 121.6502347  71.9882403  99.9686038 122.7203631
  80.8822611 111.6593272 126.3422227  80.7347574 110.7309979 126.5229797
  81.7076105 111.6813363 125.8579302  74.7484855 100.3111339 122.2002719
  75.0880928 100.8397260 121.4781327  75.1956976 100.6491745 122.9761286
  84.4856733 112.4821831 127.4287100  85.4103280 112.2764692 127.2911551
  84.3172036 112.2338232 128.3376441  77.4428296  98.6948390 131.6505787
  77.1025117  97.8956203 132.0526467  76.7367302  98.9950100 131.0782620
  78.0944768  95.7797702 130.1033110  78.9170837  95.3058180 129.9812000
  78.3382832  96.5588186 130.6031796  76.7353003  98.8085960 120.3996012
  77.4561365  99.1867213 119.8959729  76.1118307  99.5274837 120.5030990
  80.8784125  99.5131109 121.3354344  81.0947740 100.3955747 121.0343172
  80.3978193  99.1217323 120.6059986  75.6183347 102.4716823 127.9125089
  75.4727928 102.7857126 128.8049370  75.1408550 103.0901723 127.3595987
  77.4779730  99.4619371 127.9605978  77.4641298  98.5660464 127.6238276
  78.1952158  99.4690034 128.5944264  79.3305860  99.8956711 130.0059106
  79.0723638 100.8173782 130.0043436  78.7990901  99.4987145 130.6959570
  84.2752049 113.0007498 122.7849191  84.4488927 112.4353920 122.0323044
  84.7680940 113.8008393 122.6028681  70.0929009 105.0122167 130.8512750
  69.5482477 105.7881975 130.9833024  70.9708359 105.3592972 130.6931871
  76.8816626  98.3433751 123.2293548  77.0032537  97.4150397 123.4284436
  76.5918668  98.3572437 122.3171864  79.7507816  96.0288661 126.3660268
  79.7729513  96.0927994 125.4112248  80.1675875  95.1893170 126.5600774
  90.1291440 105.7643921 124.4039491  90.5722586 105.0151246 124.0058614
  89.2517951 105.7554057 124.0213223  85.2627222 112.3174262 119.8846089
  85.9578126 112.9380955 120.1033404  85.6050372 111.4669614 120.1598467
  70.8795031 104.1392063 133.7442907  70.1376767 104.2874699 134.3307537
  70.5587775 104.4000329 132.8809656  87.1618645 109.7673968 121.4133420
  87.6869969 110.1061241 120.6882740  87.0740997 108.8320983 121.2296555
  78.8238693 113.6808042 133.5423297  79.1325820 113.4357188 134.4145996
  79.6214175 113.8854680 133.0542167  78.8459306 115.8345951 125.7728673
  78.4064296 115.3422330 126.4661530  79.5967422 115.2918919 125.5320749
  71.3251644 112.0257492 125.7753301  72.1509664 111.7261264 125.3951945
  70.9745696 111.2565115 126.2243090  76.2933178 111.3783960 127.8450975
  75.6713187 110.7154665 127.5453203  76.9638045 111.4045092 127.1624623
  69.5260250 109.9443819 126.7342235  68.6892158 109.5165993 126.5526236
  69.4983895 110.1376262 127.6713026  76.3657705  99.8565748 137.4383481
  76.4145861 100.7327871 137.0561251  76.9080219  99.3143141 136.8655124
  86.8512551 110.4006872 136.7184618  86.0608095 110.3831010 136.1789117
  86.6145905 110.9395165 137.4733655  86.9710426 107.2499338 134.0317347
  87.0208431 107.0849345 134.9732869  86.8624349 106.3826597 133.6415227
  75.8546685 109.9287884 121.3209435  76.0034805 110.6123348 120.6676108
  76.6613128 109.9092974 121.8358891  84.2614188 103.2330266 135.3476653
  85.1624051 103.0936731 135.0560651  84.3362163 103.3984721 136.2874831
  78.5956994 100.6097121 134.1929840  77.7260303 100.9030687 133.9212428
  78.8316474 101.1937566 134.9137103  88.4728623 109.6696279 134.2759368
  88.1813431 110.0326260 135.1122829  87.8600754 108.9563288 134.0972700
  89.6724305 107.2349159 126.7961938  90.5071196 107.6738963 126.9599499
  89.8083434 106.7587812 125.9770184  86.7215811 104.7928894 132.7439426
  87.1969933 104.9856540 131.9358277  85.7981376 104.8488080 132.4982810
  73.6099318 105.9553061 122.3270504  73.3645359 105.0515391 122.5250715
  73.7795232 105.9570212 121.3849982  81.2996027  96.8276738 131.7095260
  81.8177971  97.5637765 131.3841749  80.9451160  97.1340731 132.5442019
  72.8794965 101.6881419 119.8256666  72.1864210 101.7625774 119.1696702
  72.6346717 100.9241762 120.3478183  81.5508622  93.2477020 127.2296157
  81.8310375  92.5800209 127.8556583  82.3359229  93.4406116 126.7170820
  79.3542090 112.4236014 118.7921183  78.7816057 113.0426201 118.3391655
  79.9274884 112.9735376 119.3261105  85.4217480 101.6694654 130.9767732
  86.3734903 101.7692752 130.9979956  85.2520930 100.8772923 131.4865816
  83.4431859  98.7550237 131.1627133  82.8481792  99.0355250 130.4673621
  83.1581556  99.2444138 131.9343874  82.5739350 112.7073164 119.9229765
  83.5070023 112.6418726 120.1262641  82.4862563 113.5429431 119.4644298
  85.2027367 112.0239035 116.8833713  85.1240998 111.6898898 117.7769471
  86.0237033 112.5160802 116.8825185  87.9005558 104.8900774 130.0910031
  87.8681878 103.9516775 130.2769715  88.5106181 104.9684811 129.3575856
  88.0500046 101.6811817 130.1368315  87.5339095 100.8970274 129.9498243
  88.9339995 101.3530534 130.3014834  85.7110773  95.4252833 126.0964127
  85.5135594  95.1167921 126.9807459  86.3210479  96.1514472 126.2262057
  93.7182108 105.9516781 129.2316068  94.4485496 105.6902069 129.7923771
  93.1089053 105.2145503 129.2718136  91.7997405 104.0924643 129.8290519
  91.0730568 103.9580608 129.2207011  91.3844692 104.4001472 130.6347237
  79.6227581 107.8114573 137.5937892  80.5430591 107.9893172 137.7877939
  79.5877164 106.8670618 137.4417592  77.9231806 101.6846803 116.0692121
  77.0163261 101.3879916 116.1454834  78.2007787 101.3876621 115.2026407
  68.8409746 103.0053167 126.5191167  68.5212530 102.1518475 126.2265541
  68.2943174 103.2201745 127.2749134  72.6189654 105.7215608 130.2360674
  72.8375663 106.6532715 130.2548707  73.0315428 105.3623582 131.0215477
  79.5393871  96.2283693 122.2236362  78.7294600  95.8830778 122.5991608
  80.2278288  95.9191237 122.8123973  81.4684420  95.3061740 123.8460659
  82.0215458  95.7257193 124.5050682  81.7054506  94.3797488 123.8883615
  77.4917519 101.2948813 139.6263422  77.3914246 102.2443170 139.5575514
  77.2739061 100.9667052 138.7539493  76.6930590  98.5433738 116.2104100
  77.5549754  98.8688637 116.4699917  76.8780935  97.7565234 115.6977166
  68.7098006 106.6256078 128.4884289  68.0161478 106.2110031 127.9754243
  69.4570997 106.6676615 127.8917708  84.8463227  97.4162265 123.3539323
  84.2661896  98.0747069 122.9717375  84.5799160  96.5939609 122.9426740
  83.2966793  96.8167323 125.5560643  83.7966572  96.9283857 124.7474962
  83.9402401  96.5128375 126.1961452  77.3548789 104.7245952 138.4428484
  76.8715871 105.5246312 138.6492373  77.4409728 104.7353897 137.4895928
  70.6234749 106.5574332 126.3650303  70.6005437 106.6562019 125.4132187
  70.9335385 107.4039483 126.6867470  73.2822127 108.6150487 130.4796918
  74.2365380 108.5834429 130.4126849  73.0834650 108.1541111 131.2947144
  73.8721509 107.1851603 133.0467716  74.6914398 107.6795682 133.0702553
  74.1458316 106.2683571 133.0185283  83.6288105  99.5762355 122.4095671
  82.7413960  99.8612006 122.1915866  84.0442094  99.4156119 121.5622948
  86.9802641  99.6008876 126.1250010  87.7563031 100.0905329 126.3974627
  86.2550775 100.0266930 126.5821880  89.4175200 100.3136495 127.1823951
  90.0119690 100.0732231 126.4717259  89.4901783  99.5943626 127.8097487
  71.6372355 114.1570106 127.4967116  71.5026823 113.3970507 126.9305114
  71.2204418 114.8811006 127.0295905  82.7731318 109.3407030 116.5043691
  83.4767168 109.5457032 117.1201347  82.0493967 109.9083792 116.7692775
  83.6029129 105.0916891 122.6245961  83.5464330 105.5485443 121.7853594
  84.1557471 104.3307576 122.4468804  87.4133935 100.8806623 123.4496081
  87.1570869 100.4803259 124.2804288  86.7886803 101.5950417 123.3246220
  91.7246272 103.6202696 125.9567372  91.1645830 103.6895886 126.7298934
  91.1189776 103.4443681 125.2366868  74.7941481 115.0539423 127.7085558
  74.6773865 115.9984856 127.6064249  73.9733927 114.7512985 128.0971358
  84.6818016 109.7789559 118.5542151  85.5163620 109.3470758 118.3719626
  84.5202359 109.6071573 119.4819046  84.3363908 106.2821672 119.9198490
  84.2812712 106.1165944 118.9786935  83.7109963 106.9897705 120.0760680
  69.1256423 101.5189737 133.7459913  69.7715287 101.0088691 134.2347138
  68.9173574 102.2558418 134.3203338  81.6509815 108.5870584 139.2452053
  82.5200975 108.7611237 138.8838688  81.1716567 109.4065001 139.1227783
  77.6460033  95.7829781 119.4983809  77.6338703  96.7271621 119.6552080
  78.5383455  95.5999927 119.2043270  75.8195995 115.7067685 130.9241487
  76.7223242 115.7391296 131.2407982  75.5933365 114.7768136 130.9387823
  77.5749597 114.4598672 127.5851565  76.6245228 114.4600533 127.4715938
  77.8782083 113.7131406 127.0687600  81.4612153  92.3772558 123.7529746
  80.6944549  91.8231045 123.8986428  81.8722858  92.4494427 124.6143897
  73.4653914  98.6657354 137.8434927  74.3285375  98.3094159 138.0538251
  72.8919325  98.3271249 138.5310331  93.3102291 120.2959210 128.6497328
  93.9480701 120.1765958 127.9460668  93.1923134 121.2440054 128.7085280
  90.1191997 120.2486638 128.5858853  89.7810509 120.1327703 127.6979387
  90.9881765 119.8477803 128.5659859  85.9778813 122.1022115 124.5755744
  85.4143678 122.0112052 123.8072031  85.8631208 121.2822019 125.0558236
  83.5243245 123.5973306 127.4139964  84.3164537 123.2564131 126.9986263
  83.7639895 123.7068281 128.3342117  91.5578372 125.7693082 119.8870208
  90.9066351 126.3547163 119.5004222  92.3522734 126.2999277 119.9465246
  85.4833999 122.8582220 120.2857343  86.2564875 122.3111207 120.1470219
  85.8359398 123.7226469 120.4971804  88.2475248 121.5635450 130.0825602
  88.8438820 121.3391473 129.3682565  88.3050220 120.8220196 130.6851050
  87.8200277 119.0174886 117.9175793  88.0725797 118.4956407 117.1559256
  86.8824836 118.8541031 118.0202476  92.8643559 118.0210664 125.7250536
  93.6506649 117.6030087 125.3740953  93.1282264 118.9256756 125.8932184
  93.0353637 123.4583514 120.4239193  92.3999470 123.5318141 121.1360097
  92.7051043 124.0477113 119.7458272  98.2651986 117.9585897 126.6283514
  98.9977158 117.3885114 126.8621344  97.5091342 117.5707498 127.0690020
  87.5396565 120.9202992 120.1200168  87.4232823 120.2447895 120.7881252
  87.6498825 120.4335366 119.3032321  89.8828106 120.3813139 123.8246857
  89.5186313 119.8543760 124.5359778  90.7395222 119.9911608 123.6513342
  95.7877407 111.6707471 131.0878123  95.4560732 112.5402882 130.8639338
  95.1923020 111.3543755 131.7672153  89.5233593 115.4103039 118.8208205
  89.6907996 116.2783275 119.1878676  89.3330762 115.5730320 117.8969495
  85.7321408 120.3233814 126.5210740  84.8071904 120.1910028 126.7288432
  85.9805821 121.1028034 127.0180683  95.6806070 116.3902558 128.1671473
  94.7722947 116.3217966 127.8730234  95.6293666 116.8674503 128.9953299
  89.5022814 117.8660696 119.8054872  89.3822439 118.3117747 120.6440353
  88.8075402 118.2146014 119.2468410  83.0930219 119.9667088 127.3554529
  83.2222600 120.2201567 128.2693941  82.4127670 120.5594796 127.0359184
  87.2629706 130.6364338 123.4545003  87.1853736 131.5872163 123.5333484
  86.6591350 130.2910210 124.1119930  97.5467717 114.5918996 129.9449347
  96.9042097 114.8851529 129.2989142  97.0422645 114.4771916 130.7502544
  95.2007880 118.3382169 120.6335206  96.1125736 118.5709556 120.4582904
  94.6917527 118.9219213 120.0710285  89.8379718 117.6979404 131.6430056
  90.6840913 118.1218817 131.7864705  89.7778356 117.0413028 132.3368619
  92.5443855 114.5140205 128.8825067  91.6828334 114.8121459 129.1741805
  92.5706290 114.7310604 127.9506100  89.3605424 123.0582396 125.2898873
  89.8243770 123.3370099 124.5003495  89.0962222 122.1565840 125.1071964
  86.2529505 122.6053877 128.2278636  86.8230862 123.0341146 127.5896121
  86.8437617 122.3236462 128.9262822  88.2974310 119.1805548 122.0988438
  88.9998354 119.6326592 122.5662364  87.9654939 118.5389367 122.7268331
  82.0399644 117.4389101 127.4005572  81.2498698 117.6946629 126.9245682
  82.5310892 118.2537439 127.5057612  83.9914390 117.8033680 124.3589048
  83.1945553 117.9152374 124.8772544  83.7639982 118.1420332 123.4929939
  80.3237347 117.6919591 129.8320562  80.5745386 118.5766601 130.0978138
  80.8596896 117.5124193 129.0595654  89.5368075 125.9946491 122.1750543
  89.4013750 126.8398026 122.6035391  90.0777888 126.1965768 121.4116477
  82.9897472 123.5121929 122.7478468  83.5021993 124.3065179 122.8984033
  83.6420185 122.8148219 122.6812070  84.7992357 126.6287685 124.8301221
  84.9758985 127.5505650 124.6422205  85.5949191 126.3146104 125.2595601
  84.0844714 118.6752317 134.7063385  83.9698229 117.7737574 135.0070484
  83.2289231 118.9216014 134.3548201  92.8860539 109.5177053 130.7049437
  92.5424808 110.4078694 130.6288547  93.2539501 109.3278710 129.8419022
  80.9546389 121.8410583 123.5238039  81.7921611 122.2507591 123.3071747
  81.1324657 120.9010025 123.4938233  92.8510821 119.5085664 119.2121872
  92.3357445 120.2790268 119.4510259  92.5788130 118.8350800 119.8354933
  90.4357932 114.3535364 124.2707110  89.5799529 113.9642215 124.0912749
  90.8484884 114.4327325 123.4106896  91.9657079 111.8881708 128.6698670
  91.4621875 111.8511843 127.8566475  92.2587686 112.7974450 128.7295327
  88.2099965 111.9720437 127.6764852  89.0752962 111.7763246 127.3170741
  88.2777474 111.7430789 128.6034208  97.8245095 122.2618018 121.1475045
  97.0474538 121.9229178 120.7030207  98.5036576 122.2670642 120.4730010
  92.6397125 117.3812756 121.0381653  92.3347260 117.6958905 121.8891796
  93.5927567 117.4594176 121.0808986  91.0843556 123.5402979 122.6874607
  90.5564918 122.8055739 122.3747844  90.5831059 124.3177655 122.4414575
  85.8162284 114.2022645 125.0481218  86.3906036 113.9797827 124.3154411
  86.4033266 114.2711340 125.8009820  94.8741861 120.0896372 125.8545595
  95.3873743 120.7226364 126.3567305  95.5243085 119.4897568 125.4888955
  86.1431871 116.2327106 119.0677104  85.3069183 116.5701793 119.3886378
  86.0036641 116.0976086 118.1304241  88.1184952 111.0763894 123.7756288
  87.4649364 110.7612911 123.1512903  88.0765426 110.4539635 124.5016111
  89.2296157 121.3583189 115.6909580  88.3223218 121.1272443 115.8900729
  89.7267189 120.5620809 115.8783562  92.1364235 130.0680697 118.6106266
  91.4625934 130.3712393 119.2191224  92.5230057 130.8709777 118.2611723
  91.3522692 117.5645828 128.1003935  90.4345253 117.7860775 127.9425624
  91.7682836 117.6392138 127.2415643  92.1357740 118.9637244 123.2306616
  92.8829559 119.4758641 122.9213738  92.4049329 118.6421296 124.0911009
  90.4084390 121.4595784 120.2133570  89.4995609 121.1754817 120.3106040
  90.4379474 121.8794863 119.3536877  95.6403657 125.0702374 123.9824738
  95.1865984 124.2293284 124.0389928  95.0097624 125.7063772 124.3199518
  94.5836577 115.9994360 125.2125405  93.8459334 115.4871746 125.5435648
  94.8363350 115.5594741 124.4008682  94.0836597 126.9078870 124.9174556
  94.3759571 127.4683928 124.1986921  94.5935217 127.2007431 125.6727715
  94.6848204 108.7770612 125.8067174  94.9907081 107.9167975 125.5193089
  95.4100809 109.3688232 125.6066168  80.9772560 119.1801298 124.1948772
  80.7796960 118.5870659 123.4699839  80.4219224 118.8753509 124.9124711
  88.9569284 119.0724405 126.3143365  89.0117894 118.1198241 126.2385842
  88.1460486 119.2283844 126.7984664  90.1060478 123.0004528 117.5521649
  89.6679908 122.2840387 117.0927286  90.8470919 123.2280643 116.9906740
  86.8961644 117.6901465 124.0733744  86.0829509 117.9895635 124.4798936
  87.3920638 117.2957153 124.7908227  89.0470222 127.6859222 126.0068009
  89.0046401 127.9120068 125.0776541  89.9632921 127.4522596 126.1553810
  98.2233593 121.2761725 123.6097967  98.0851491 121.4663321 122.6819156
  97.8669811 122.0381108 124.0666018  86.3875719 115.2619820 129.6894979
  87.0275098 115.1208579 128.9917943  85.5553249 114.9754334 129.3133581
  87.1636023 124.5622251 125.8029972  87.9576621 124.0672571 125.6012547
  86.4527715 124.0340114 125.4397677  83.4718786 118.7065332 121.8789724
  82.5416374 118.6449788 122.0959686  83.5676258 118.1841285 121.0826366
  83.3904335 115.2320145 124.4667966  83.6511152 116.1465478 124.3577126
  84.2121507 114.7644588 124.6164579  84.8629260 116.6457902 131.6366791
  85.5352314 116.4375264 130.9879439  84.0359047 116.4479988 131.1972023
  90.7654832 113.2719843 133.6532451  90.1182747 113.9709793 133.5596928
  91.5355848 113.7055987 134.0208700  90.3355451 130.2360369 120.8253345
  90.5107206 129.7648412 121.6398968  89.6488239 130.8626135 121.0534606
  91.2912514 124.5132875 126.8716647  90.9562346 124.4733645 127.7674296
  90.7916459 123.8477591 126.3987057  85.2656758 119.9200505 132.3969228
  85.1276556 119.1880744 132.9980767  86.1761681 119.8309405 132.1153415
  94.2271705 121.8588910 117.1453706  93.6100876 121.1335738 117.0486759
  93.7588194 122.6198270 116.8020780  86.6067992 116.6185682 133.7048547
  86.0705349 116.1676421 134.3570143  86.0184701 116.7531591 132.9619011
  86.0170251 116.0774334 116.2675010  85.1399718 115.9563135 115.9037257
  86.4928004 115.2860412 116.0153899  77.5372391 120.8651494 126.3616518
  78.2243431 120.5513224 125.7737533  77.3820520 121.7692858 126.0883769
  82.3407114 115.7541690 130.7901541  82.2565302 115.1467360 130.0551951
  81.5189820 116.2450708 130.7911038  89.2034177 128.4300624 123.5137531
  88.4201699 128.9722304 123.6075756  89.9026923 128.9474604 123.9131772
  92.5130827 114.2395254 126.1571736  93.0099527 113.4865216 125.8372807
  91.7417809 114.2759570 125.5914946  93.5960608 122.9966941 123.7310160
  92.6616887 123.1168403 123.5614864  93.7737277 122.0939408 123.4670170
  89.0965796 116.3812637 125.8843421  88.7263584 115.8283677 126.5724327
  89.5924889 115.7770770 125.3318421  96.9833159 118.8384260 124.2660194
  97.4493612 119.6712252 124.1920497  97.4340660 118.3729242 124.9705452
  95.0509391 125.1828081 121.2646346  95.3269234 125.0684676 122.1740220
  94.1813889 124.7845566 121.2258519  94.9549822 111.2064847 128.3051095
  94.0412902 111.4369074 128.4733302  95.3842924 111.2903291 129.1565128
  91.6863455 129.4314432 124.9079160  91.8685849 128.6136088 125.3706912
  92.5096441 129.6482125 124.4704050  92.0205620 128.3582617 122.1694208
  92.5493387 127.8475072 121.5564370  92.2833840 128.0425148 123.0339741
  82.5222713 126.3746487 129.9129542  83.1076150 125.6290175 130.0457446
  82.3247551 126.6850443 130.7966206  85.3761368 129.4097734 124.9291984
  84.7071743 129.8943862 124.4456024  85.2374238 129.6566955 125.8435363
  77.1140368 118.9452087 128.6333985  77.1524467 118.4115678 129.4271103
  76.6080660 118.4187292 128.0144962  84.4931130 113.7916627 132.1296527
  84.5572456 114.6531458 131.7173925  84.4298250 113.1790629 131.3968886
  83.9683402 115.8639760 135.7769561  84.5955441 115.4816837 136.3907086
  83.1111321 115.6453962 136.1425254  80.7448945 117.6716189 121.7087916
  81.0402386 116.7626868 121.6554970  79.8436981 117.6503929 121.3868918
  84.2743192 115.7472186 127.6915465  83.5529778 116.3608153 127.5522938
  85.0636448 116.2829951 127.6132111  87.0769506 113.0826612 133.9656117
  87.6003907 113.3288909 134.7282426  86.8581839 113.9146647 133.5459254
  82.4736787 115.3530287 121.8327241  82.1449493 114.4727666 121.6502347
  82.8276157 115.2977955 122.7203631  91.7216366 126.9885189 126.3422227
  91.5741328 126.0601897 126.5229797  92.5469859 127.0105280 125.8579302
  85.5878610 115.6403257 122.2002719  85.9274682 116.1689178 121.4781327
  86.0350730 115.9783663 122.9761286  88.2822051 114.0240307 131.6505787
  87.9418871 113.2248120 132.0526467  87.5761057 114.3242018 131.0782620
  88.9338523 111.1089620 130.1033110  89.7564592 110.6350098 129.9812000
  89.1776586 111.8880103 130.6031796  87.5746757 114.1377878 120.3996012
  88.2955120 114.5159131 119.8959729  86.9512061 114.8566755 120.5030990
  91.7177880 114.8423027 121.3354344  91.9341494 115.7247665 121.0343172
  91.2371947 114.4509241 120.6059986  86.4577101 117.8008740 127.9125089
  86.3121682 118.1149043 128.8049370  85.9802305 118.4193641 127.3595987
  88.3173484 114.7911288 127.9605978  88.3035053 113.8952382 127.6238276
  89.0345912 114.7981952 128.5944264  90.1699615 115.2248629 130.0059106
  89.9117393 116.1465699 130.0043436  89.6384655 114.8279063 130.6959570
  95.1145804 128.3299416 122.7849191  95.2882681 127.7645838 122.0323044
  95.6074695 129.1300311 122.6028681  80.9322763 120.3414085 130.8512750
  80.3876232 121.1173893 130.9833024  81.8102113 120.6884889 130.6931871
  87.7210380 113.6725669 123.2293548  87.8426291 112.7442315 123.4284436
  87.4312422 113.6864355 122.3171864  90.5901570 111.3580579 126.3660268
  90.6123267 111.4219912 125.4112248  91.0069629 110.5185088 126.5600774
 100.9685195 121.0935839 124.4039491 101.4116341 120.3443164 124.0058614
 100.0911705 121.0845975 124.0213223  96.1020976 127.6466180 119.8846089
  96.7971881 128.2672873 120.1033404  96.4444126 126.7961531 120.1598467
  81.7188785 119.4683981 133.7442907  80.9770521 119.6166616 134.3307537
  81.3981530 119.7292247 132.8809656  98.0012399 125.0965886 121.4133420
  98.5263723 125.4353158 120.6882740  97.9134752 124.1612901 121.2296555
  82.1645399 127.3549410 125.7753301  82.9903419 127.0553182 125.3951945
  81.8139451 126.5857032 126.2243090  87.1326932 126.7075878 127.8450975
  86.5106941 126.0446583 127.5453203  87.8031799 126.7337010 127.1624623
  80.3654004 125.2735736 126.7342235  79.5285912 124.8457911 126.5526236
  80.3377649 125.4668180 127.6713026  86.6940439 125.2579801 121.3209435
  86.8428559 125.9415266 120.6676108  87.5006883 125.2384891 121.8358891
  84.4493072 121.2844979 122.3270504  84.2039114 120.3807309 122.5250715
  84.6188987 121.2862129 121.3849982  92.1389782 112.1568655 131.7095260
  92.6571726 112.8929682 131.3841749  91.7844915 112.4632649 132.5442019
  83.7188720 117.0173337 119.8256666  83.0257965 117.0917692 119.1696702
  83.4740471 116.2533680 120.3478183  92.3902376 108.5768938 127.2296157
  92.6704130 107.9092127 127.8556583  93.1752983 108.7698033 126.7170820
  90.1935845 127.7527932 118.7921183  89.6209812 128.3718119 118.3391655
  90.7668638 128.3027293 119.3261105  94.2825614 114.0842155 131.1627133
  93.6875546 114.3647168 130.4673621  93.9975311 114.5736056 131.9343874
  93.4133104 128.0365082 119.9229765  94.3463778 127.9710644 120.1262641
  93.3256317 128.8721349 119.4644298  96.0421121 127.3530952 116.8833713
  95.9634753 127.0190816 117.7769471  96.8630788 127.8452720 116.8825185
  90.5782643 119.0888745 116.1337235  91.5241748 118.9594953 116.2025653
  90.1996888 118.3503406 116.6106664  96.5504528 110.7544751 126.0964127
  96.3529349 110.4459839 126.9807459  97.1604233 111.4806389 126.2262057
  88.7625560 117.0138721 116.0692121  87.8557016 116.7171834 116.1454834
  89.0401541 116.7168539 115.2026407  79.6803501 118.3345084 126.5191167
  79.3606285 117.4810393 126.2265541  79.1336929 118.5493662 127.2749134
  83.4583408 121.0507525 130.2360674  83.6769418 121.9824633 130.2548707
  83.8709182 120.6915500 131.0215477  90.3787626 111.5575611 122.2236362
  89.5688354 111.2122696 122.5991608  91.0672043 111.2483154 122.8123973
  92.3078174 110.6353657 123.8460659  92.8609213 111.0549111 124.5050682
  92.5448261 109.7089406 123.8883615  87.5324345 113.8725656 116.2104100
  88.3943509 114.1980554 116.4699917  87.7174689 113.0857152 115.6977166
  79.5491761 121.9547996 128.4884289  78.8555232 121.5401949 127.9754243
  80.2964752 121.9968532 127.8917708  95.6856981 112.7454183 123.3539323
  95.1055650 113.4038987 122.9717375  95.4192914 111.9231527 122.9426740
  94.1360548 112.1459240 125.5560643  94.6360326 112.2575775 124.7474962
  94.7796156 111.8420293 126.1961452  81.4628503 121.8866250 126.3650303
  81.4399191 121.9853937 125.4132187  81.7729140 122.7331400 126.6867470
  84.1215881 123.9442405 130.4796918  85.0759135 123.9126347 130.4126849
  83.9228405 123.4833028 131.2947144  94.4681859 114.9054273 122.4095671
  93.5807714 115.1903924 122.1915866  94.8835848 114.7448036 121.5622948
  97.8196396 114.9300794 126.1250010  98.5956786 115.4197246 126.3974627
  97.0944530 115.3558848 126.5821880 100.2568954 115.6428413 127.1823951
 100.8513445 115.4024149 126.4717259 100.3295538 114.9235544 127.8097487
  82.4766110 129.4862024 127.4967116  82.3420578 128.7262425 126.9305114
  82.0598172 130.2102924 127.0295905  93.6125073 124.6698948 116.5043691
  94.3160923 124.8748950 117.1201347  92.8887722 125.2375710 116.7692775
  94.4422883 120.4208809 122.6245961  94.3858085 120.8777360 121.7853594
  94.9951226 119.6599493 122.4468804  98.2527689 116.2098541 123.4496081
  97.9964623 115.8095176 124.2804288  97.6280557 116.9242335 123.3246220
 102.5640027 118.9494614 125.9567372 102.0039585 119.0187803 126.7298934
 101.9583530 118.7735599 125.2366868  95.5211770 125.1081477 118.5542151
  96.3557374 124.6762675 118.3719626  95.3596113 124.9363491 119.4819046
  95.1757662 121.6113590 119.9198490  95.1206466 121.4457862 118.9786935
  94.5503718 122.3189623 120.0760680  79.9650177 116.8481655 133.7459913
  80.6109041 116.3380608 134.2347138  79.7567329 117.5850336 134.3203338
  88.4853788 111.1121699 119.4983809  88.4732458 112.0563539 119.6552080
  89.3777210 110.9291845 119.2043270  92.3005907 107.7064476 123.7529746
  91.5338303 107.1522962 123.8986428  92.7116612 107.7786345 124.6143897
  98.6594031 134.3466803 117.9175793  98.9119552 133.8248325 117.1559256
  97.7218590 134.1832949 118.0202476 100.3627348 130.7394956 118.8208205
 100.5301750 131.6075193 119.1878676 100.1724517 130.9022238 117.8969495
  96.9825626 131.5619024 119.0677104  96.1462938 131.8993711 119.3886378
  96.8430395 131.4268004 118.1304241  98.9578706 126.4055812 123.7756288
  98.3043119 126.0904829 123.1512903  98.9159180 125.7831552 124.5016111
 100.0689911 136.6875107 115.6909580  99.1616973 136.4564361 115.8900729
 100.5660943 135.8912726 115.8783562  96.8564006 131.4066252 116.2675010
  95.9793472 131.2855052 115.9037257  97.3321759 130.6152330 116.0153899
  91.5842700 133.0008107 121.7087916  91.8796141 132.0918785 121.6554970
  90.6830735 132.9795846 121.3868918  93.3130541 130.6822204 121.8327241
  92.9843247 129.8019583 121.6502347  93.6669912 130.6269873 122.7203631
  98.4140512 129.4669796 120.3996012  99.1348874 129.8451049 119.8959729
  97.7905816 130.1858673 120.5030990  94.5582474 132.3465254 119.8256666
  93.8651719 132.4209609 119.1696702  94.3134226 131.5825598 120.3478183
 101.4176398 134.4180662 116.1337235 102.3635502 134.2886870 116.2025653
 101.0390643 133.6795324 116.6106664  99.6019315 132.3430639 116.0692121
  98.6950770 132.0463751 116.1454834  99.8795296 132.0460457 115.2026407
 101.2181380 126.8867528 122.2236362 100.4082109 126.5414613 122.5991608
 101.9065797 126.5775072 122.8123973  98.3718099 129.2017574 116.2104100
  99.2337263 129.5272472 116.4699917  98.5568444 128.4149070 115.6977166
  99.3247542 126.4413617 119.4983809  99.3126212 127.3855457 119.6552080
 100.2170964 126.2583762 119.2043270  26.5215846  10.8003699 106.6115515
  25.8703826  11.3857779 106.2249529  27.3160209  11.3309894 106.6710553
  32.7882570   7.2928635 107.8720352  32.0112013   6.9539794 107.4275514
  33.4674051   7.2981258 107.1975317  24.1933631   6.3893806 102.4154887
  23.2860693   6.1583059 102.6146036  24.6904663   5.5931425 102.6028868
  27.1001710  15.0991313 105.3351573  26.4263408  15.4023010 105.9436531
  27.4867532  15.9020393 104.9857030  25.0697952   8.0315144 104.2766955
  24.6317382   7.3151003 103.8172593  25.8108393   8.2591259 103.7152047
  25.2992925  15.2670986 107.5498652  25.4744681  14.7959029 108.3644275
  24.6125713  15.8936752 107.7779913  29.1909180   6.8899526 103.8699013
  28.5738350   6.1646354 103.7732066  28.7225668   7.6508886 103.5266087
  30.0146865  10.2138698 107.9891653  30.2906709  10.0995293 108.8985527
  29.1451364   9.8156183 107.9503826  26.9843094  13.3893234 108.8939515
  27.5130861  12.8785689 108.2809677  27.2471314  13.0735764 109.7585048
  30.0783278  13.3610032 109.5094498  30.2520155  12.7956455 108.7568350
  30.5712169  14.1610927 109.3273988  31.0658450  12.6776797 106.6091396
  31.7609355  13.2983489 106.8278711  31.4081601  11.8272148 106.8843774
  32.9649874  10.1276502 108.1378727  33.4901198  10.4663775 107.4128047
  32.8772226   9.1923517 107.9541861  25.1573319  12.7838548 105.5166490
  24.5847286  13.4028735 105.0636961  25.7306113  13.3337910 106.0506411
  28.3770579  13.0675698 106.6475072  29.3101252  13.0021260 106.8507947
  28.2893792  13.9031965 106.1889604  31.0058595  12.3841569 103.6079019
  30.9272227  12.0501432 104.5014777  31.8268262  12.8763337 103.6070492
  28.5762547   9.7009564 103.2288998  29.2798397   9.9059567 103.8446653
  27.8525196  10.2686326 103.4938081  30.4849245  10.1392093 105.2787458
  31.3194848   9.7073292 105.0964933  30.3233587   9.9674107 106.2064352
  30.1395137   6.6424207 106.6443797  30.0843941   6.4768478 105.7032241
  29.5141192   7.3500240 106.8005987  39.1133520  20.6561744 115.3742635
  39.7511930  20.5368492 114.6705975  38.9954363  21.6042588 115.4330587
  35.9223226  20.6089173 115.3104159  35.5841737  20.4930237 114.4224694
  36.7912994  20.2080338 115.2905165  31.7810042  22.4624649 111.3001050
  31.2174907  22.3714586 110.5317338  31.6662437  21.6424553 111.7803543
  29.3274474  23.9575841 114.1385271  30.1195765  23.6166665 113.7231570
  29.5671124  24.0670816 115.0587424  37.3609600  26.1295617 106.6115515
  36.7097580  26.7149697 106.2249529  38.1553963  26.6601812 106.6710553
  31.2865227  23.2184754 107.0102649  32.0596103  22.6713741 106.8715525
  31.6390626  24.0829003 107.2217111  34.0506477  21.9237985 116.8070908
  34.6470049  21.6994007 116.0927871  34.1081448  21.1822730 117.4096356
  33.6231505  19.3777420 104.6421099  33.8757026  18.8558941 103.8804562
  32.6856064  19.2143565 104.7447783  38.6674788  18.3813198 112.4495843
  39.4537877  17.9632622 112.0986260  38.9313492  19.2859291 112.6177491
  38.8384865  23.8186049 107.1484499  38.2030698  23.8920675 107.8605404
  38.5082272  24.4079647 106.4703579  44.0683215  18.3188432 113.3528821
  44.8008387  17.7487648 113.5866651  43.3122571  17.9310032 113.7935327
  33.3427794  21.2805526 106.8445474  33.2264052  20.6050429 107.5126559
  33.4530054  20.7937900 106.0277627  35.6859335  20.7415673 110.5492164
  35.3217542  20.2146294 111.2605085  36.5426451  20.3514142 110.3758649
  35.3264822  15.7705573 105.5453512  35.4939224  16.6385809 105.9123983
  35.1361991  15.9332854 104.6214801  38.0840155  24.2322552 117.2119342
  37.7840878  25.1347590 117.1035150  37.7391215  23.9654735 118.0640495
  31.5352637  20.6836348 113.2456047  30.6103133  20.5512563 113.4533739
  31.7837050  21.4630568 113.7425989  41.4837299  16.7505092 114.8916780
  40.5754176  16.6820500 114.5975541  41.4324895  17.2277037 115.7198605
  35.3054043  18.2263230 106.5300179  35.1853668  18.6720281 107.3685659
  34.6106631  18.5748548 105.9713717  28.8961448  20.3269622 114.0799836
  29.0253829  20.5804101 114.9939248  28.2158899  20.9197330 113.7604491
  33.0660935  30.9966872 110.1790310  32.9884965  31.9474697 110.2578791
  32.4622579  30.6512744 110.8365236  41.0039109  18.6984703 107.3580513
  41.9156965  18.9312090 107.1828210  40.4948756  19.2821748 106.7955592
  39.6108691  23.6810522 114.7494094  38.9817554  23.8456236 114.0470162
  39.2234353  24.0952131 115.5205058  43.4897923  24.6164960 112.1038458
  42.8048961  24.9963861 111.5535491  43.5741773  25.2260286 112.8370406
  40.7448855  22.2624919 118.7033802  40.9565750  22.9056679 118.0268183
  40.6978603  21.4287235 118.2355732  35.1636653  23.4184930 112.0144179
  35.6274999  23.6972633 111.2248802  34.8993451  22.5168375 111.8317270
  32.0560734  22.9656411 114.9523943  32.6262091  23.3943680 114.3141427
  32.6468846  22.6838996 115.6508128  34.1005539  19.5408082 108.8233745
  34.8029583  19.9929126 109.2907671  33.7686168  18.8991901 109.4513638
  41.8594683  25.1396874 116.8756159  42.6812126  24.7377061 116.5938841
  41.8557086  25.0365108 117.8272275  29.7945619  18.1636214 111.0834355
  28.9976782  18.2754908 111.6017851  29.5671211  18.5022866 110.2175245
  35.6251286  24.6880917 119.0316869  35.6895719  25.1501325 119.8675041
  34.9162210  24.0578282 119.1599179  49.9500676  21.4835623 113.2241130
  49.1964384  20.9143021 113.0685135  50.0848217  21.4498287 114.1711765
  35.3399304  26.3549025 108.8995850  35.2044979  27.2000561 109.3280698
  35.8809116  26.5568303 108.1361784  28.7928701  23.8724463 109.4723775
  29.3053222  24.6667713 109.6229340  29.4451414  23.1750753 109.4057376
  30.6023586  26.9890219 111.5546528  30.7790214  27.9108184 111.3667512
  31.3980419  26.6748638 111.9840908  31.7254901  28.5068393 117.5556870
  32.2762327  28.3785456 116.7833864  30.8866377  28.8063282 117.2051763
  39.0649018  27.2575391 121.0577593  39.0467494  28.0784272 120.5657862
  39.9868938  27.1329467 121.2827734  26.7577618  22.2013117 110.2483345
  27.5952840  22.6110126 110.0317053  26.9355886  21.2612559 110.2183539
  38.6542050  19.8688198 105.9367178  38.1388674  20.6392803 106.1755566
  38.3819359  19.1953334 106.5600240  36.2389161  14.7137899 110.9952417
  35.3830758  14.3244749 110.8158055  36.6516113  14.7929860 110.1352202
  43.6276324  22.6220553 107.8720352  42.8505767  22.2831712 107.4275514
  44.3067805  22.6273176 107.1975317  38.4428353  17.7415290 107.7626960
  38.1378489  18.0561439 108.6137103  39.3958795  17.8196710 107.8054293
  36.8874785  23.9005513 109.4119914  36.3596147  23.1658273 109.0993151
  36.3862288  24.6780190 109.1659882  41.8667631  22.0954534 114.5286960
  41.2091306  22.7853795 114.6167088  42.6708030  22.4850966 114.8720946
  31.6193513  14.5625180 111.7726525  32.1937265  14.3400361 111.0399718
  32.2064495  14.6313874 112.5255126  40.6773090  20.4498907 112.5790902
  41.1904972  21.0828898 113.0812611  41.3274314  19.8500102 112.2134262
  31.9463100  16.5929641 105.7922410  31.1100412  16.9304327 106.1131685
  31.8067870  16.4578620 104.8549547  33.9216180  11.4366429 110.5001595
  33.2680593  11.1215446 109.8758209  33.8796655  10.8142169 111.2261417
  35.0327385  21.7185724 102.4154887  34.1254447  21.4874977 102.6146036
  35.5298417  20.9223343 102.6028868  37.9395464  30.4283231 105.3351573
  37.2657163  30.7314928 105.9436531  38.3261286  31.2312311 104.9857030
  37.1553921  17.9248362 114.8249242  36.2376482  18.1463309 114.6670930
  37.5714064  17.9994673 113.9660949  37.9388969  19.3239778 109.9551922
  38.6860788  19.8361175 109.6459044  38.2080558  19.0023830 110.8156316
  36.2115619  21.8198318 106.9378877  35.3026838  21.5357351 107.0351346
  36.2410703  22.2397397 106.0782184  41.4434886  25.4304908 110.7070044
  40.9897213  24.5895818 110.7635235  40.8128853  26.0666306 111.0444824
  40.3867806  16.3596894 111.9370712  39.6490563  15.8474280 112.2680954
  40.6394579  15.9197276 111.1253989  39.8867825  27.2681405 111.6419862
  40.1790800  27.8286462 110.9232228  40.3966446  27.5609966 112.3973021
  40.4879433   9.1373146 112.5312481  40.7938310   8.2770509 112.2438396
  41.2132038   9.7290766 112.3311475  26.7803789  19.5403833 110.9194079
  26.5828189  18.9473193 110.1945145  26.2250453  19.2356043 111.6370018
  34.7600513  19.4326939 113.0388672  34.8149123  18.4800775 112.9631149
  33.9491715  19.5886378 113.5229970  35.9091707  23.3607062 104.2766955
  35.4711137  22.6442921 103.8172593  36.6502147  23.5883177 103.7152047
  32.6992873  18.0503999 110.7979051  31.8860738  18.3498169 111.2044243
  33.1951867  17.6559688 111.5153533  34.8501451  28.0461756 112.7313316
  34.8077629  28.2722602 111.8021848  35.7664149  27.8125130 112.8799117
  44.0264821  21.6364259 110.3343274  43.8882720  21.8265855 109.4064463
  43.6701040  22.3983642 110.7911325  44.0534201  23.7040786 115.3454545
  44.4870708  23.6116075 116.1937599  44.7665782  23.6798287 114.7074561
  32.9667251  24.9224785 112.5275278  33.7607850  24.4275105 112.3257853
  32.2558944  24.3942648 112.1642984  37.7862096  27.3042880 116.8787646
  37.8399118  27.8733817 117.6465362  36.9176877  27.4744765 116.5141683
  29.2750015  19.0667866 108.6035031  28.3447603  19.0052322 108.8204993
  29.3707487  18.5443819 107.8071672  29.1935564  15.5922679 111.1913273
  29.4542381  16.5068013 111.0822433  30.0152736  15.1247122 111.3409885
  44.9149751  23.7464487 117.8787431  45.1085641  24.6510297 118.1246706
  44.8150369  23.2871906 118.7126016  36.7450196  21.4703142 118.4374578
  37.6742256  21.6214302 118.2643545  36.3241226  21.5587163 117.5823224
  35.5438527  25.4953807 116.2073115  35.4049613  25.1272591 117.0799054
  34.7553124  26.0101446 116.0357073  36.1386679  30.5962903 107.5498652
  36.3138435  30.1250946 108.3644275  35.4519467  31.2228669 107.7779913
  37.0943743  24.8735409 113.5961953  36.7593575  24.8336179 114.4919603
  36.5947688  24.2080125 113.1232363  40.0302934  22.2191444 103.8699013
  39.4132105  21.4938272 103.7732066  39.5619423  22.9800804 103.5266087
  41.6857066  26.9290352 121.5304793  41.6269612  26.2449572 120.8635376
  42.0876584  27.6709342 121.0785419  30.7047765  33.7452266 114.3238512
  30.9444363  34.3770790 115.0017531  29.8616961  33.3940306 114.6103871
  31.8201480  16.4376868 102.9920317  30.9430946  16.3165669 102.6282564
  32.2959233  15.6462946 102.7399206  41.6874473  24.8929936 119.7618773
  40.8001252  24.5555858 119.8845172  42.2573024  24.1612967 119.9987538
  35.2175627  29.5531388 116.7280016  35.1445798  30.3586360 117.2399321
  34.7753020  29.7523354 115.9028037  35.0065406  28.7903158 110.2382838
  34.2232928  29.3324839 110.3321062  35.7058151  29.3077138 110.6377079
  38.3162056  14.5997788 112.8817043  38.8130756  13.8467750 112.5618113
  37.5449038  14.6362105 112.3160252  46.1691814  20.3038153 114.5235335
  46.1581690  21.1862869 114.1529268  45.3009193  19.9509704 114.3289872
  37.6774310  29.4518222 118.8838175  38.3902282  30.0865687 118.8114076
  37.1864339  29.5482088 118.0678177  39.3991837  23.3569475 110.4555466
  38.4648116  23.4770938 110.2860171  39.5768505  22.4541942 110.1915476
  34.8997025  16.7415171 112.6088728  34.5294813  16.1886211 113.2969633
  35.3956117  16.1373304 112.0563728  42.7864388  19.1986794 110.9905501
  43.2524841  20.0314786 110.9165803  43.2371889  18.7331776 111.6950759
  32.7286224  27.2012666 119.7043746  33.4295683  27.8349149 119.8573140
  32.2581339  27.5427397 118.9439385  40.8540619  25.5430616 107.9891653
  41.1300463  25.4287210 108.8985527  39.9845118  25.1448101 107.9503826
  40.5287510  19.7557273 117.5296296  39.8758960  20.0033181 116.8748749
  40.9067889  18.9421412 117.1958773  37.4894683  29.7916967 111.6324466
  37.6717078  28.9738622 112.0952219  38.3127669  30.0084659 111.1949356
  37.8236849  28.7185152 108.8939515  38.3524615  28.2077606 108.2809677
  38.0865069  28.4027682 109.7585048  28.3253942  26.7349021 116.6374848
  28.9107378  25.9892709 116.7702752  28.1278780  27.0452978 117.5211512
  31.1792597  29.7700268 111.6537291  30.5102972  30.2546396 111.1701331
  31.0405467  30.0169489 112.5680669  35.3197865  31.8044012 118.2519949
  35.8716173  31.9675633 119.0169034  35.6604059  32.3948450 117.5799974
  26.5480174  18.0318723 108.4333223  26.8433615  17.1229402 108.3800276
  25.6468210  18.0106463 108.1114225  38.4566253  29.7525987 115.2383631
  38.3317392  28.9515727 114.7294577  39.1145344  30.2472181 114.7497601
  40.5201161  27.5535007 116.8663181  39.5731497  27.4340359 116.7941508
  40.8683934  26.6657506 116.9489443  28.2768016  15.7132821 108.5572548
  27.9480722  14.8330200 108.3747654  28.6307386  15.6580490 109.4448937
  37.5247594  27.3487724 113.0667533  37.3772557  26.4204431 113.2475104
  38.3501088  27.3707814 112.5824609  31.3909839  16.0005791 108.9248026
  31.7305911  16.5291712 108.2026634  31.8381959  16.3386197 109.7006592
  41.1281716  28.1716282 114.1532406  42.0528264  27.9659144 114.0156857
  40.9597020  27.9232684 115.0621748  33.3777986  14.4980412 107.1241318
  34.0986348  14.8761665 106.6205035  32.7543290  15.2169289 107.2276296
  37.5209109  15.2025561 108.0599651  37.7372723  16.0850199 107.7588479
  37.0403176  14.8111775 107.3305293  40.9177032  28.6901950 109.5094498
  41.0913910  28.1248372 108.7568350  41.4105924  29.4902845 109.3273988
  33.5241609  14.0328203 109.9538855  33.6457520  13.1044849 110.1529742
  33.2343651  14.0466889 109.0417170  46.7716424  21.4538373 111.1284797
  47.2147570  20.7045698 110.7303921  45.8942934  21.4448509 110.7458529
  41.9052205  28.0068714 106.6091396  42.6003110  28.6275407 106.8278711
  42.2475355  27.1564066 106.8843774  43.8043628  25.4568420 108.1378727
  44.3294952  25.7955693 107.4128047  43.7165981  24.5215435 107.9541861
  35.4663677  29.3702493 120.2668603  35.7750803  29.1251640 121.1391303
  36.2639159  29.5749132 119.7787474  35.4884289  31.5240403 112.4973980
  35.0489279  31.0316782 113.1906837  36.2392406  30.9813371 112.2566055
  27.9676628  27.7151944 112.4998608  28.7934648  27.4155716 112.1197252
  27.6170680  26.9459566 112.9488397  32.9358161  27.0678412 114.5696282
  32.3138170  26.4049117 114.2698509  33.6063028  27.0939544 113.8869929
  26.1685233  25.6338270 113.4587542  25.3317141  25.2060445 113.2771543
  26.1408878  25.8270714 114.3958333  43.4937534  26.0901323 123.4429925
  42.7033078  26.0725462 122.9034424  43.2570889  26.6289617 124.1978961
  43.6135409  22.9393790 120.7562653  43.6633414  22.7743797 121.6978176
  43.5049333  22.0721049 120.3660534  32.4971668  25.6182336 108.0454742
  32.6459788  26.3017800 107.3921415  33.3038111  25.5987426 108.5604198
  45.1153606  25.3590731 121.0004675  44.8238414  25.7220712 121.8368136
  44.5025737  24.6457740 120.8218007  46.3149288  22.9243611 113.5207245
  47.1496180  23.3633415 113.6844805  46.4508417  22.4482264 112.7015491
  43.3640794  20.4823346 119.4684733  43.8394916  20.6750992 118.6603584
  42.4406360  20.5382532 119.2228116  30.2524301  21.6447513 109.0515811
  30.0070343  20.7409843 109.2496021  30.4220215  21.6464664 108.1095289
  29.5219948  17.3775871 106.5501972  28.8289193  17.4520226 105.8942008
  29.2771700  16.6136214 107.0723489  35.9967073  28.1130466 105.5166490
  35.4241040  28.7320653 105.0636961  36.5699867  28.6629828 106.0506411
  39.2164333  28.3967616 106.6475072  40.1495006  28.3313178 106.8507947
  39.1287546  29.2323883 106.1889604  41.8452350  27.7133486 103.6079019
  41.7665981  27.3793350 104.5014777  42.6662017  28.2055254 103.6070492
  44.5430541  20.5795226 116.8155338  44.5106861  19.6411226 117.0015022
  45.1531165  20.6579262 116.0821163  36.3813872  19.4491279 102.8582542
  37.3272977  19.3197487 102.9270960  36.0028117  18.7105941 103.3351970
  44.6925030  17.3706269 116.8613621  44.1764078  16.5864726 116.6743550
  45.5764978  17.0424986 117.0260141  42.3535756  11.1147285 112.8209434
  42.1560578  10.8062373 113.7052766  42.9635462  11.8408924 112.9507364
  50.3607091  21.6411233 115.9561375  51.0910479  21.3796521 116.5169078
  49.7514036  20.9039955 115.9963443  48.4422388  19.7819095 116.5535826
  47.7155552  19.6475060 115.9452318  48.0269675  20.0895924 117.3592544
  34.5656789  17.3741255 102.7937427  33.6588244  17.0774368 102.8700141
  34.8432770  17.0771073 101.9271714  36.1818855  11.9178145 108.9481669
  35.3719583  11.5725230 109.3236915  36.8703272  11.6085689 109.5369280
  38.1109403  10.9956192 110.5705965  38.6640442  11.4151645 111.2295988
  38.3479489  10.0691940 110.6128921  33.3355574  14.2328190 102.9349406
  34.1974738  14.5583089 103.1945224  33.5205918  13.4459686 102.4222472
  41.4888210  13.1056717 110.0784629  40.9086879  13.7641521 109.6962682
  41.2224143  12.2834061 109.6672047  39.9391777  12.5061775 112.2805950
  40.4391555  12.6178309 111.4720269  40.5827384  12.2022827 112.9206758
  27.2659732  22.2468784 113.0895610  27.2430420  22.3456471 112.1377493
  27.5760368  23.0933935 113.4112776  40.2713088  15.2656807 109.1340978
  39.3838943  15.5506458 108.9161172  40.6867077  15.1050571 108.2868255
  43.6227624  15.2903328 112.8495317  44.3988014  15.7799781 113.1219934
  42.8975758  15.7161382 113.3067186  46.0600183  16.0030947 113.9069258
  46.6544674  15.7626683 113.1962566  46.1326767  15.2838078 114.5342794
  28.2797339  29.8464558 114.2212422  28.1451807  29.0864959 113.6550420
  27.8629401  30.5705458 113.7541211  39.4156302  25.0301482 103.2288998
  40.1192152  25.2351484 103.8446653  38.6918950  25.5978244 103.4938081
  40.2454112  20.7811343 109.3491268  40.1889313  21.2379895 108.5098900
  40.7982454  20.0202028 109.1714111  44.0558918  16.5701075 110.1741387
  43.7995852  16.1697711 111.0049595  43.4311786  17.2844869 110.0491527
  48.3671256  19.3097148 112.6812679  47.8070814  19.3790338 113.4544241
  47.7614759  19.1338133 111.9612175  31.4366464  30.7433875 114.4330865
  31.3198849  31.6879308 114.3309555  30.6158911  30.4407437 114.8216664
  41.3242999  25.4684011 105.2787458  42.1588603  25.0365210 105.0964933
  41.1627342  25.2966025 106.2064352  40.9788891  21.9716124 106.6443797
  40.9237695  21.8060396 105.7032241  40.3534946  22.6792157 106.8005987
  34.2885017  11.4724233 106.2229115  34.2763687  12.4166073 106.3797386
  35.1808439  11.2894379 105.9288577  32.4620979  31.3962137 117.6486793
  33.3648225  31.4285747 117.9653288  32.2358349  30.4662588 117.6633129
  34.2174581  30.1493124 114.3096872  33.2670212  30.1494985 114.1961244
  34.5207067  29.4025858 113.7932907  38.1037136   8.0667010 110.4775052
  37.3369532   7.5125497 110.6231735  38.5147841   8.1388879 111.3389204
  49.9527274  35.9853662 115.3742635  50.5905684  35.8660410 114.6705975
  49.8348117  36.9334506 115.4330587  46.7616980  35.9381090 115.3104159
  46.4235492  35.8222155 114.4224694  47.6306749  35.5372255 115.2905165
  42.6203796  37.7916567 111.3001050  42.0568661  37.7006504 110.5317338
  42.5056191  36.9716471 111.7803543  47.2436763  37.0915942 121.2690365
  47.2325404  36.6968740 120.3970868  47.4057403  36.3582015 121.8624136
  40.1668228  39.2867758 114.1385271  40.9589520  38.9458583 113.7231570
  40.4064878  39.3962733 115.0587424  48.2003355  41.4587534 106.6115515
  47.5491335  42.0441615 106.2249529  48.9947718  41.9893729 106.6710553
  42.1258982  38.5476672 107.0102649  42.8989858  38.0005659 106.8715525
  42.4784381  39.4120921 107.2217111  43.9644025  39.8753054 120.2169549
  43.6733891  40.7798685 120.1016215  44.6001009  39.9169581 120.9313618
  44.8900231  37.2529902 116.8070908  45.4863804  37.0285925 116.0927871
  44.9475203  36.5114648 117.4096356  44.4625260  34.7069338 104.6421099
  44.7150780  34.1850859 103.8804562  43.5249819  34.5435483 104.7447783
  49.5068543  33.7105116 112.4495843  50.2931632  33.2924539 112.0986260
  49.7707247  34.6151208 112.6177491  49.6778620  39.1477966 107.1484499
  49.0424453  39.2212593 107.8605404  49.3476026  39.7371565 106.4703579
  54.9076970  33.6480349 113.3528821  55.6402142  33.0779566 113.5866651
  54.1516325  33.2601950 113.7935327  44.1821549  36.6097444 106.8445474
  44.0657807  35.9342347 107.5126559  44.2923808  36.1229818 106.0277627
  46.5253089  36.0707591 110.5492164  46.1611297  35.5438212 111.2605085
  47.3820205  35.6806060 110.3758649  52.4302390  27.3601923 117.8123430
  52.0985715  28.2297334 117.5884645  51.8348003  27.0438207 118.4917460
  46.1658576  31.0997490 105.5453512  46.3332979  31.9677727 105.9123983
  45.9755746  31.2624772 104.6214801  48.9233910  39.5614469 117.2119342
  48.6234633  40.4639508 117.1035150  48.5784969  39.2946653 118.0640495
  42.3746391  36.0128266 113.2456047  41.4496888  35.8804480 113.4533739
  42.6230804  36.7922485 113.7425989  52.3231053  32.0797010 114.8916780
  51.4147931  32.0112418 114.5975541  52.2718649  32.5568954 115.7198605
  46.1447797  33.5555148 106.5300179  46.0247423  34.0012199 107.3685659
  45.4500386  33.9040466 105.9713717  39.7355202  35.6561540 114.0799836
  39.8647583  35.9096019 114.9939248  39.0552653  36.2489248 113.7604491
  43.9054689  46.3258790 110.1790310  43.8278719  47.2766615 110.2578791
  43.3016333  45.9804662 110.8365236  46.3971919  33.4986655 122.8351677
  45.6205253  34.0580575 122.8254542  47.0362482  33.9843438 123.3566547
  54.1892700  30.2813448 116.6694654  53.5467080  30.5745981 116.0234448
  53.6847628  30.1666368 117.4747850  51.8432863  34.0276621 107.3580513
  52.7550720  34.2604008 107.1828210  51.3342511  34.6113665 106.7955592
  44.6518292  36.3072108 122.3969644  45.3932976  36.8457152 122.1204468
  43.9455277  36.9338397 122.5541196  50.1273631  38.4501249 120.9941805
  50.5356987  38.0083659 120.2496438  49.4050893  37.8753876 121.2475998
  46.4804701  33.3873856 118.3675362  47.3265896  33.8113269 118.5110011
  46.4203339  32.7307480 119.0613926  50.4502446  39.0102440 114.7494094
  49.8211308  39.1748154 114.0470162  50.0628108  39.4244049 115.5205058
  54.3291678  39.9456877 112.1038458  53.6442716  40.3255779 111.5535491
  54.4135527  40.5552204 112.8370406  49.6304147  31.0478224 120.0256536
  49.3865078  31.8020285 119.4890812  49.9064077  31.4263572 120.8603783
  51.5842609  37.5916836 118.7033802  51.7959505  38.2348596 118.0268183
  51.5372358  36.7579153 118.2355732  49.1868838  30.2034657 115.6070374
  48.3253317  30.5015911 115.8987111  49.2131273  30.4205056 114.6751406
  46.0030408  38.7476848 112.0144179  46.4668753  39.0264551 111.2248802
  45.7387206  37.8460292 111.8317270  42.8954489  38.2948329 114.9523943
  43.4655846  38.7235598 114.3141427  43.4862601  38.0130914 115.6508128
  44.9399294  34.8700000 108.8233745  45.6423337  35.3221044 109.2907671
  44.6079922  34.2283819 109.4513638  43.3879655  33.4611757 123.1984954
  42.7578316  34.1428037 123.4320351  43.2815743  33.3494838 122.2538092
  38.6824628  33.1283553 114.1250878  37.8923682  33.3841081 113.6490989
  39.1735875  33.9431891 114.2302919  52.6988437  40.4688792 116.8756159
  53.5205881  40.0668979 116.5938841  52.6950840  40.3657026 117.8272275
  40.6339373  33.4928132 111.0834355  39.8370536  33.6046826 111.6017851
  40.4064965  33.8314784 110.2175245  46.4645041  40.0172835 119.0316869
  46.5289473  40.4793242 119.8675041  45.7555965  39.3870200 119.1599179
  36.9662331  33.3814043 116.5565869  37.2170369  34.2661053 116.8223445
  37.5021879  33.2018645 115.7840961  60.7894430  36.8127540 113.2241130
  60.0358139  36.2434938 113.0685135  60.9241972  36.7790205 114.1711765
  46.1793058  41.6840943 108.8995850  46.0438733  42.5292478 109.3280698
  46.7202871  41.8860220 108.1361784  39.6322456  39.2016381 109.4723775
  40.1446976  39.9959631 109.6229340  40.2845169  38.5042671 109.4057376
  41.4417340  42.3182137 111.5546528  41.6183969  43.2400102 111.3667512
  42.2374174  42.0040556 111.9840908  45.5828359  29.1790402 123.1530462
  46.3238072  29.7797555 123.0734924  45.8146282  28.4368039 122.5948504
  40.7269697  34.3646769 121.4308691  40.6123212  33.4632026 121.7315790
  39.8714215  34.6110466 121.0793508  47.8061535  42.3064509 123.0296192
  47.3625389  41.5200888 122.7117096  48.4678748  42.4943660 122.3640083
  42.5648656  43.8360311 117.5556870  43.1156081  43.7077374 116.7833864
  41.7260132  44.1355200 117.2051763  49.9042773  42.5867309 121.0577593
  49.8861248  43.4076190 120.5657862  50.8262693  42.4621384 121.2827734
  46.3615827  40.1011439 121.9001102  46.8944164  39.3399727 121.6700410
  45.8329908  39.8085090 122.6425256  49.5285522  25.2071504 117.4294743
  49.1849791  26.0973146 117.3533854  49.8964485  25.0173162 116.5664328
  37.5971373  37.5305035 110.2483345  38.4346595  37.9402043 110.0317053
  37.7749640  36.5904477 110.2183539  49.4935805  35.1980116 105.9367178
  48.9782428  35.9684720 106.1755566  49.2213113  34.5245252 106.5600240
  47.0782916  30.0429816 110.9952417  46.2224512  29.6536667 110.8158055
  47.4909867  30.1221777 110.1352202  48.6082062  27.5776160 115.3943977
  48.1046858  27.5406295 114.5811782  48.9012669  28.4868902 115.4540633
  44.8524948  27.6614889 114.4010158  45.7177945  27.4657698 114.0416048
  44.9202457  27.4325241 115.3279515  54.4670079  37.9512470 107.8720352
  53.6899522  37.6123630 107.4275514  55.1461560  37.9565093 107.1975317
  49.2822108  33.0707208 107.7626960  48.9772243  33.3853357 108.6137103
  50.2352550  33.1488628 107.8054293  47.7268540  39.2297431 109.4119914
  47.1989901  38.4950191 109.0993151  47.2256042  40.0072107 109.1659882
  52.7061386  37.4246452 114.5286960  52.0485060  38.1145713 114.6167088
  53.5101785  37.8142883 114.8720946  42.4587267  29.8917097 111.7726525
  43.0331019  29.6692279 111.0399718  43.0458250  29.9605792 112.5255126
  51.5166844  35.7790824 112.5790902  52.0298726  36.4120816 113.0812611
  52.1668068  35.1792020 112.2134262  42.7856854  31.9221558 105.7922410
  41.9494167  32.2596245 106.1131685  42.6461624  31.7870538 104.8549547
  44.7609935  26.7658346 110.5001595  44.1074347  26.4507363 109.8758209
  44.7190409  26.1434087 111.2261417  45.8721140  37.0477641 102.4154887
  44.9648202  36.8166895 102.6146036  46.3692172  36.2515261 102.6028868
  48.7789219  45.7575148 105.3351573  48.1050917  46.0606845 105.9436531
  49.1655041  46.5604229 104.9857030  47.9947675  33.2540280 114.8249242
  47.0770237  33.4755227 114.6670930  48.4107819  33.3286590 113.9660949
  48.7782723  34.6531695 109.9551922  49.5254542  35.1653093 109.6459044
  49.0474313  34.3315748 110.8156316  47.0509373  37.1490236 106.9378877
  46.1420593  36.8649269 107.0351346  47.0804457  37.5689315 106.0782184
  52.2828641  40.7596826 110.7070044  51.8290968  39.9187736 110.7635235
  51.6522607  41.3958224 111.0444824  51.2261560  31.6888812 111.9370712
  50.4884317  31.1766198 112.2680954  51.4788334  31.2489193 111.1253989
  50.7261580  42.5973322 111.6419862  51.0184554  43.1578379 110.9232228
  51.2360200  42.8901883 112.3973021  51.3273188  24.4665064 112.5312481
  51.6332064  23.6062427 112.2438396  52.0525792  25.0582684 112.3311475
  37.6197544  34.8695750 110.9194079  37.4221943  34.2765111 110.1945145
  37.0644208  34.5647960 111.6370018  45.5994267  34.7618857 113.0388672
  45.6542877  33.8092693 112.9631149  44.7885469  34.9178296 113.5229970
  46.7485461  38.6898980 104.2766955  46.3104891  37.9734839 103.8172593
  47.4895902  38.9175095 103.7152047  43.5386627  33.3795916 110.7979051
  42.7254493  33.6790087 111.2044243  44.0345621  32.9851605 111.5153533
  45.6895205  43.3753673 112.7313316  45.6471384  43.6014520 111.8021848
  46.6057904  43.1417048 112.8799117  49.1360839  33.8437741 119.6293945
  49.4910227  34.0709214 120.4888411  49.7832970  34.1756118 119.0071200
  54.8658576  36.9656177 110.3343274  54.7276474  37.1557773 109.4064463
  54.5094795  37.7275560 110.7911325  43.0300702  30.9514272 116.4140286
  43.6700081  30.8103031 115.7163249  42.1978233  30.6648785 116.0378888
  54.8927955  39.0332704 115.3454545  55.3264462  38.9407993 116.1937599
  55.6059536  39.0090204 114.7074561  43.8061006  40.2516702 112.5275278
  44.6001604  39.7567023 112.3257853  43.0952698  39.7234566 112.1642984
  48.6255850  42.6334798 116.8787646  48.6792873  43.2025734 117.6465362
  47.7570632  42.8036683 116.5141683  40.1143769  34.3959784 108.6035031
  39.1841357  34.3344240 108.8204993  40.2101241  33.8735737 107.8071672
  40.0329318  30.9214597 111.1913273  40.2936136  31.8359930 111.0822433
  40.8546491  30.4539040 111.3409885  41.5054244  32.3352354 118.3612097
  42.1777297  32.1269716 117.7124746  40.6784030  32.1374440 117.9217329
  55.7543505  39.0756405 117.8787431  55.9479395  39.9802215 118.1246706
  55.6544123  38.6163824 118.7126016  47.4079816  28.9614295 120.3777758
  46.7607731  29.6604245 120.2842234  48.1780831  29.3950439 120.7454006
  50.8158614  39.2263147 123.4528311  50.6644120  38.9973699 122.5358395
  50.8063293  40.1833749 123.4659656  47.5843950  36.7995060 118.4374578
  48.5136010  36.9506220 118.2643545  47.1634980  36.8879081 117.5823224
  46.3832282  40.8245724 116.2073115  46.2443368  40.4564509 117.0799054
  45.5946878  41.3393364 116.0357073  46.9780434  45.9254821 107.5498652
  47.1532190  45.4542864 108.3644275  46.2913222  46.5520587 107.7779913
  47.9337497  40.2027327 113.5961953  47.5987330  40.1628097 114.4919603
  47.4341443  39.5372043 113.1232363  41.9081741  35.6094957 119.1214534
  41.7701539  34.8775196 119.7226073  42.8186664  35.5203857 118.8398722
  50.8696689  37.5483361 103.8699013  50.2525859  36.8230190 103.7732066
  50.4013177  38.3092722 103.5266087  44.5364042  35.3214916 118.6098214
  45.2463660  34.6808109 118.5684832  44.4933350  35.5727811 119.5324395
  52.5250820  42.2582270 121.5304793  52.4663367  41.5741490 120.8635376
  52.9270339  43.0001260 121.0785419  43.2492976  32.3080134 120.4293853
  42.7130333  31.8570873 121.0815450  42.6609684  32.4426043 119.6864318
  41.5441519  49.0744184 114.3238512  41.7838117  49.7062708 115.0017531
  40.7010716  48.7232224 114.6103871  42.6595235  31.7668786 102.9920317
  41.7824701  31.6457587 102.6282564  43.1352988  30.9754864 102.7399206
  52.5268228  40.2221854 119.7618773  51.6395006  39.8847776 119.8845172
  53.0966779  39.4904885 119.9987538  34.1797375  36.5545945 113.0861824
  34.8668415  36.2407676 112.4982840  34.0245503  37.4587310 112.8129076
  38.9832097  31.4436142 117.5146848  38.8990286  30.8361812 116.7797258
  38.1614803  31.9345160 117.5156344  46.0569381  44.8823306 116.7280016
  45.9839552  45.6878278 117.2399321  45.6146774  45.0815272 115.9028037
  45.8459161  44.1195076 110.2382838  45.0626683  44.6616756 110.3321062
  46.5451906  44.6369056 110.6377079  49.1555811  29.9289706 112.8817043
  49.6524510  29.1759668 112.5618113  48.3842792  29.9654022 112.3160252
  57.0085568  35.6330071 114.5235335  56.9975444  36.5154787 114.1529268
  56.1402948  35.2801622 114.3289872  48.5168065  44.7810140 118.8838175
  49.2296037  45.4157605 118.8114076  48.0258093  44.8774006 118.0678177
  50.2385591  38.6861393 110.4555466  49.3041870  38.8062855 110.2860171
  50.4162260  37.7833860 110.1915476  45.7390779  32.0707089 112.6088728
  45.3688567  31.5178129 113.2969633  46.2349872  31.4665222 112.0563728
  53.6258143  34.5278712 110.9905501  54.0918595  35.3606704 110.9165803
  54.0765643  34.0623694 111.6950759  43.5679978  42.5304584 119.7043746
  44.2689438  43.1641067 119.8573140  43.0975093  42.8719315 118.9439385
  51.6934374  40.8722533 107.9891653  51.9694218  40.7579128 108.8985527
  50.8238873  40.4740018 107.9503826  51.5974806  26.8959299 115.0296402
  50.6837885  27.1263526 115.1978609  52.0267907  26.9797743 115.8810434
  51.3681264  35.0849191 117.5296296  50.7152714  35.3325098 116.8748749
  51.7461644  34.2713329 117.1958773  48.3288438  45.1208884 111.6324466
  48.5110832  44.3030540 112.0952219  49.1521424  45.3376576 111.1949356
  48.6630603  44.0477069 108.8939515  49.1918370  43.5369524 108.2809677
  48.9258823  43.7319600 109.7585048  47.4168837  35.8269002 124.0162333
  46.7409474  35.7263131 124.6864708  48.2396471  35.6708216 124.4798330
  39.1647696  42.0640939 116.6374848  39.7501133  41.3184627 116.7702752
  38.9672535  42.3744895 117.5211512  42.0186351  45.0992186 111.6537291
  41.3496727  45.5838314 111.1701331  41.8799221  45.3461406 112.5680669
  33.7565351  34.6346539 115.3579291  33.7949450  34.1010130 116.1516409
  33.2505644  34.1081744 114.7390269  46.1591620  47.1335930 118.2519949
  46.7109928  47.2967551 119.0169034  46.4997813  47.7240367 117.5799974
  41.1356113  29.4811079 118.8541834  41.1997440  30.3425910 118.4419231
  41.0723233  28.8685081 118.1214192  40.6108386  31.5534212 122.5014868
  41.2380425  31.1711289 123.1152392  39.7536305  31.3348414 122.8670560
  51.0102494  41.9597187 124.1068603  51.5542398  42.5727145 123.6123558
  50.4289339  42.5176765 124.6235616  37.3873928  33.3610641 108.4333223
  37.6827370  32.4521319 108.3800276  36.4861964  33.3398380 108.1114225
  49.2960007  45.0817905 115.2383631  49.1711147  44.2807645 114.7294577
  49.9539098  45.5764098 114.7497601  40.9168175  31.4366638 114.4160771
  40.1954761  32.0502605 114.2768245  41.7061431  31.9724402 114.3377417
  51.3594916  42.8826925 116.8663181  50.4125251  42.7632276 116.7941508
  51.7077689  41.9949423 116.9489443  43.7194489  28.7721064 120.6901423
  44.2428891  29.0183361 121.4527732  43.5006822  29.6041099 120.2704560
  39.1161770  31.0424739 108.5572548  38.7874476  30.1622118 108.3747654
  39.4701141  30.9872407 109.4448937  48.3641349  42.6779641 113.0667533
  48.2166311  41.7496349 113.2475104  49.1894842  42.6999732 112.5824609
  42.2303593  31.3297708 108.9248026  42.5699666  31.8583630 108.2026634
  42.6775714  31.6678115 109.7006592  51.9675471  43.5008200 114.1532406
  52.8922018  43.2951061 114.0156857  51.7990774  43.2524601 115.0621748
  44.9247034  29.7134759 118.3751094  44.5843854  28.9142572 118.7771774
  44.2186040  30.0136470 117.8027927  45.5763506  26.7984072 116.8278417
  46.3989575  26.3244550 116.7057307  45.8201569  27.5774555 117.3277103
  44.2171740  29.8272330 107.1241318  44.9380103  30.2053583 106.6205035
  43.5937044  30.5461207 107.2276296  48.3602863  30.5317479 108.0599651
  48.5766478  31.4142117 107.7588479  47.8796930  30.1403692 107.3305293
  43.1002085  33.4903192 114.6370395  42.9546665  33.8043495 115.5294677
  42.6227288  34.1088093 114.0841294  44.9598467  30.4805740 114.6851285
  44.9460036  29.5846834 114.3483583  45.6770896  30.4876404 115.3189571
  46.8124598  30.9143080 116.7304412  46.5542376  31.8360151 116.7288743
  46.2809639  30.5173515 117.4204876  51.7570787  44.0193868 109.5094498
  51.9307664  43.4540290 108.7568350  52.2499678  44.8194762 109.3273988
  37.5747747  36.0308537 117.5758056  37.0301215  36.8068345 117.7078331
  38.4527097  36.3779341 117.4177178  44.3635363  29.3620121 109.9538855
  44.4851275  28.4336767 110.1529742  44.0737406  29.3758806 109.0417170
  47.2326554  27.0475031 113.0905575  47.2548251  27.1114364 112.1357554
  47.6494613  26.2079540 113.2846081  57.6110178  36.7830291 111.1284797
  58.0541324  36.0337616 110.7303921  56.7336688  36.7740427 110.7458529
  52.7445959  43.3360632 106.6091396  53.4396864  43.9567325 106.8278711
  53.0869110  42.4855983 106.8843774  38.3613769  35.1578433 120.4688213
  37.6195505  35.3061068 121.0552844  38.0406513  35.4186699 119.6054963
  54.6437383  40.7860337 108.1378727  55.1688707  41.1247610 107.4128047
  54.5559735  39.8507353 107.9541861  46.3057431  44.6994411 120.2668603
  46.6144558  44.4543558 121.1391303  47.1032913  44.9041050 119.7787474
  46.3278043  46.8532321 112.4973980  45.8883034  46.3608699 113.1906837
  47.0786160  46.3105288 112.2566055  38.8070382  43.0443862 112.4998608
  39.6328402  42.7447634 112.1197252  38.4564434  42.2751484 112.9488397
  43.7751915  42.3970330 114.5696282  43.1531925  41.7341035 114.2698509
  44.4456782  42.4231462 113.8869929  37.0078987  40.9630188 113.4587542
  36.1710896  40.5352362 113.2771543  36.9802633  41.1562631 114.3958333
  43.8476443  30.8752118 124.1628788  43.8964598  31.7514241 123.7806557
  44.3898957  30.3329511 123.5900431  54.3331289  41.4193241 123.4429925
  53.5426832  41.4017380 122.9034424  54.0964643  41.9581535 124.1978961
  54.4529164  38.2685708 120.7562653  54.5027169  38.1035715 121.6978176
  54.3443087  37.4012967 120.3660534  43.3365422  40.9474253 108.0454742
  43.4853543  41.6309718 107.3921415  44.1431866  40.9279343 108.5604198
  51.7432926  34.2516636 122.0721960  52.6442789  34.1123100 121.7805958
  51.8180901  34.4171090 123.0120137  46.0775731  31.6283490 120.9175146
  45.2079041  31.9217056 120.6457735  46.3135212  32.2123935 121.6382410
  55.9547361  40.6882649 121.0004675  55.6632169  41.0512630 121.8368136
  55.3419492  39.9749657 120.8218007  57.1543043  38.2535529 113.5207245
  57.9889934  38.6925333 113.6844805  57.2902172  37.7774182 112.7015491
  54.2034549  35.8115264 119.4684733  54.6788670  36.0042910 118.6603584
  53.2800114  35.8674449 119.2228116  41.0918055  36.9739431 109.0515811
  40.8464097  36.0701761 109.2496021  41.2613970  36.9756581 108.1095289
  48.7814765  27.8463107 118.4340567  49.2996709  28.5824134 118.1087055
  48.4269898  28.1527101 119.2687326  40.3613703  32.7067788 106.5501972
  39.6682948  32.7812143 105.8942008  40.1165455  31.9428132 107.0723489
  49.0327359  24.2663390 113.9541463  49.3129113  23.5986579 114.5801890
  49.8177966  24.4592485 113.4416127  46.8360828  43.4422384 105.5166490
  46.2634795  44.0612571 105.0636961  47.4093622  43.9921745 106.0506411
  52.9036218  32.6881024 117.7013038  53.8553641  32.7879121 117.7225262
  52.7339668  31.8959292 118.2111123  50.9250597  29.7736607 117.8872439
  50.3300529  30.0541620 117.1918928  50.6400294  30.2630508 118.6589180
  50.0558088  43.7259534 106.6475072  50.9888761  43.6605095 106.8507947
  49.9681301  44.5615801 106.1889604  52.6846104  43.0425404 103.6079019
  52.6059736  42.7085268 104.5014777  53.5055771  43.5347172 103.6070492
  55.3824296  35.9087143 116.8155338  55.3500616  34.9703144 117.0015022
  55.9924919  35.9871180 116.0821163  47.2207626  34.7783196 102.8582542
  48.1666731  34.6489405 102.9270960  46.8421871  34.0397858 103.3351970
  55.5318784  32.6998187 116.8613621  55.0157833  31.9156643 116.6743550
  56.4158733  32.3716903 117.0260141  53.1929511  26.4439202 112.8209434
  52.9954332  26.1354291 113.7052766  53.8029217  27.1700841 112.9507364
  61.2000845  36.9703150 115.9561375  61.9304234  36.7088438 116.5169078
  60.5907791  36.2331872 115.9963443  59.2816143  35.1111013 116.5535826
  58.5549306  34.9766978 115.9452318  58.8663429  35.4187841 117.3592544
  47.1046319  38.8300943 124.3183199  48.0249328  39.0079542 124.5123246
  47.0695902  37.8856988 124.1662898  45.4050544  32.7033173 102.7937427
  44.4981999  32.4066286 102.8700141  45.6826525  32.4062991 101.9271714
  36.3228484  34.0239536 113.2436474  36.0031268  33.1704844 112.9510848
  35.7761912  34.2388114 113.9994441  40.1008391  36.7401977 116.9605980
  40.3194401  37.6719085 116.9794014  40.5134165  36.3809952 117.7460784
  47.0212609  27.2470063 108.9481669  46.2113338  26.9017147 109.3236915
  47.7097026  26.9377606 109.5369280  48.9503158  26.3248109 110.5705965
  49.5034196  26.7443563 111.2295988  49.1873244  25.3983857 110.6128921
  44.9736257  32.3135183 126.3508729  44.8732984  33.2629540 126.2820820
  44.7557799  31.9853422 125.4784799  44.1749328  29.5620108 102.9349406
  45.0368492  29.8875006 103.1945224  44.3599672  28.7751604 102.4222472
  36.1916744  37.6442448 115.2129595  35.4980215  37.2296400 114.6999550
  36.9389735  37.6862984 114.6163014  52.3281965  28.4348634 110.0784629
  51.7480634  29.0933439 109.6962682  52.0617897  27.6125979 109.6672047
  50.7785531  27.8353692 112.2805950  51.2785309  27.9470227 111.4720269
  51.4221139  27.5314745 112.9206758  44.8367527  35.7432322 125.1673791
  44.3534609  36.5432682 125.3737680  44.9228466  35.7540267 124.2141235
  38.1053486  37.5760701 113.0895610  38.0824175  37.6748389 112.1377493
  38.4154123  38.4225852 113.4112776  40.7640864  39.6336856 117.2042225
  41.7184118  39.6020799 117.1372156  40.5653388  39.1727480 118.0192450
  41.3540246  38.2037973 119.7713022  42.1733135  38.6982051 119.7947859
  41.6277054  37.2869941 119.7430590  51.1106843  30.5948725 109.1340978
  50.2232698  30.8798375 108.9161172  51.5260832  30.4342488 108.2868255
  54.4621379  30.6195246 112.8495317  55.2381769  31.1091698 113.1219934
  53.7369513  31.0453300 113.3067186  56.8993937  31.3322865 113.9069258
  57.4938428  31.0918601 113.1962566  56.9720521  30.6129996 114.5342794
  39.1191093  45.1756476 114.2212422  38.9845561  44.4156877 113.6550420
  38.7023155  45.8997376 113.7541211  50.2550056  40.3593400 103.2288998
  50.9585906  40.5643402 103.8446653  49.5312705  40.9270161 103.4938081
  51.0847866  36.1103261 109.3491268  51.0283068  36.5671812 108.5098900
  51.6376209  35.3493945 109.1714111  54.8952672  31.8992993 110.1741387
  54.6389607  31.4989628 111.0049595  54.2705540  32.6136787 110.0491527
  59.2065010  34.6389066 112.6812679  58.6464568  34.7082255 113.4544241
  58.6008514  34.4630051 111.9612175  42.2760219  46.0725793 114.4330865
  42.1592603  47.0171225 114.3309555  41.4552665  45.7699355 114.8216664
  52.1636754  40.7975929 105.2787458  52.9982357  40.3657127 105.0964933
  52.0021096  40.6257942 106.2064352  51.8182646  37.3008042 106.6443797
  51.7631450  37.1352313 105.7032241  51.1928701  38.0084075 106.8005987
  36.6075161  32.5376106 120.4705219  37.2534024  32.0275060 120.9592444
  36.3992312  33.2744788 121.0448645  49.1328553  39.6056954 125.9697360
  50.0019713  39.7797606 125.6083995  48.6535304  40.4251371 125.8473089
  45.1278771  26.8016151 106.2229115  45.1157441  27.7457991 106.3797386
  46.0202193  26.6186296 105.9288577  43.3014733  46.7254055 117.6486793
  44.2041980  46.7577665 117.9653288  43.0752103  45.7954506 117.6633129
  45.0568335  45.4785041 114.3096872  44.1063966  45.4786903 114.1961244
  45.3600821  44.7317776 113.7932907  48.9430891  23.3958928 110.4775052
  48.1763286  22.8417414 110.6231735  49.3541596  23.4680796 111.3389204
  60.7921029  51.3145580 115.3742635  61.4299439  51.1952327 114.6705975
  60.6741872  52.2626424 115.4330587  57.6010735  51.2673008 115.3104159
  57.2629246  51.1514073 114.4224694  58.4700503  50.8664173 115.2905165
  53.4597551  53.1208484 111.3001050  52.8962416  53.0298421 110.5317338
  53.3449946  52.3008389 111.7803543  58.0830518  52.4207860 121.2690365
  58.0719159  52.0260658 120.3970868  58.2451157  51.6873932 121.8624136
  51.0061983  54.6159676 114.1385271  51.7983274  54.2750501 113.7231570
  51.2458633  54.7254651 115.0587424  52.9652736  53.8768589 107.0102649
  53.7383612  53.3297576 106.8715525  53.3178135  54.7412839 107.2217111
  54.8037779  55.2044971 120.2169549  54.5127645  56.1090602 120.1016215
  55.4394763  55.2461499 120.9313618  55.7293986  52.5821820 116.8070908
  56.3257558  52.3577842 116.0927871  55.7868957  51.8406565 117.4096356
  60.3462297  49.0397034 112.4495843  61.1325386  48.6216457 112.0986260
  60.6101001  49.9443126 112.6177491  65.7470724  48.9772267 113.3528821
  66.4795896  48.4071484 113.5866651  64.9910080  48.5893867 113.7935327
  55.0215303  51.9389361 106.8445474  54.9051561  51.2634265 107.5126559
  55.1317563  51.4521735 106.0277627  57.3646844  51.3999508 110.5492164
  57.0005051  50.8730129 111.2605085  58.2213960  51.0097977 110.3758649
  63.2696145  42.6893841 117.8123430  62.9379469  43.5589252 117.5884645
  62.6741758  42.3730125 118.4917460  57.0052331  46.4289408 105.5453512
  57.1726733  47.2969644 105.9123983  56.8149500  46.5916690 104.6214801
  59.7627664  54.8906387 117.2119342  59.4628387  55.7931426 117.1035150
  59.4178724  54.6238570 118.0640495  53.2140146  51.3420184 113.2456047
  52.2890642  51.2096398 113.4533739  53.4624559  52.1214403 113.7425989
  63.1624808  47.4088927 114.8916780  62.2541685  47.3404336 114.5975541
  63.1112404  47.8860872 115.7198605  56.9841552  48.8847066 106.5300179
  56.8641177  49.3304116 107.3685659  56.2894140  49.2332383 105.9713717
  50.5748957  50.9853457 114.0799836  50.7041338  51.2387936 114.9939248
  49.8946408  51.5781165 113.7604491  57.2365674  48.8278573 122.8351677
  56.4599008  49.3872493 122.8254542  57.8756237  49.3135356 123.3566547
  65.0286454  45.6105366 116.6694654  64.3860835  45.9037899 116.0234448
  64.5241383  45.4958286 117.4747850  62.6826618  49.3568539 107.3580513
  63.5944474  49.5895926 107.1828210  62.1736265  49.9405583 106.7955592
  55.4912046  51.6364026 122.3969644  56.2326730  52.1749070 122.1204468
  54.7849031  52.2630315 122.5541196  60.9667386  53.7793167 120.9941805
  61.3750742  53.3375577 120.2496438  60.2444647  53.2045794 121.2475998
  57.3198456  48.7165773 118.3675362  58.1659651  49.1405187 118.5110011
  57.2597093  48.0599398 119.0613926  61.2896200  54.3394357 114.7494094
  60.6605063  54.5040071 114.0470162  60.9021862  54.7535967 115.5205058
  65.1685432  55.2748795 112.1038458  64.4836470  55.6547696 111.5535491
  65.2529281  55.8844122 112.8370406  60.4697901  46.3770142 120.0256536
  60.2258833  47.1312202 119.4890812  60.7457832  46.7555489 120.8603783
  62.4236364  52.9208754 118.7033802  62.6353259  53.5640514 118.0268183
  62.3766112  52.0871071 118.2355732  60.0262593  45.5326575 115.6070374
  59.1647072  45.8307828 115.8987111  60.0525027  45.7496974 114.6751406
  56.8424162  54.0768765 112.0144179  57.3062508  54.3556468 111.2248802
  56.5780960  53.1752210 111.8317270  53.7348243  53.6240247 114.9523943
  54.3049600  54.0527515 114.3141427  54.3256355  53.3422832 115.6508128
  55.7793048  50.1991918 108.8233745  56.4817092  50.6512961 109.2907671
  55.4473677  49.5575737 109.4513638  54.2273410  48.7903674 123.1984954
  53.5972070  49.4719955 123.4320351  54.1209498  48.6786756 122.2538092
  49.5218382  48.4575470 114.1250878  48.7317436  48.7132999 113.6490989
  50.0129630  49.2723808 114.2302919  63.5382192  55.7980710 116.8756159
  64.3599635  55.3960897 116.5938841  63.5344595  55.6948944 117.8272275
  51.4733128  48.8220050 111.0834355  50.6764291  48.9338744 111.6017851
  51.2458720  49.1606702 110.2175245  57.3038795  55.3464753 119.0316869
  57.3683228  55.8085160 119.8675041  56.5949719  54.7162118 119.1599179
  47.8056085  48.7105961 116.5565869  48.0564124  49.5952971 116.8223445
  48.3415634  48.5310562 115.7840961  71.6288185  52.1419458 113.2241130
  70.8751893  51.5726856 113.0685135  71.7635726  52.1082122 114.1711765
  57.0186813  57.0132860 108.8995850  56.8832488  57.8584396 109.3280698
  57.5596625  57.2152138 108.1361784  53.5054152  43.0924440 125.5610205
  53.1121098  42.5390639 126.2357849  54.3220293  43.4035019 125.9516723
  50.4716210  54.5308298 109.4723775  50.9840731  55.3251549 109.6229340
  51.1238923  53.8334589 109.4057376  56.4222113  44.5082319 123.1530462
  57.1631827  45.1089472 123.0734924  56.6540036  43.7659957 122.5948504
  51.5663451  49.6938686 121.4308691  51.4516967  48.7923944 121.7315790
  50.7107969  49.9402383 121.0793508  58.6455289  57.6356427 123.0296192
  58.2019143  56.8492805 122.7117096  59.3072503  57.8235577 122.3640083
  53.4042410  59.1652228 117.5556870  53.9549836  59.0369292 116.7833864
  52.5653886  59.4647117 117.2051763  60.7436527  57.9159227 121.0577593
  60.7255003  58.7368108 120.5657862  61.6656447  57.7913302 121.2827734
  57.2009581  55.4303356 121.9001102  57.7337918  54.6691644 121.6700410
  56.6723663  55.1377008 122.6425256  60.3679276  40.5363422 117.4294743
  60.0243546  41.4265064 117.3533854  60.7358239  40.3465080 116.5664328
  48.4365127  52.8596953 110.2483345  49.2740349  53.2693961 110.0317053
  48.6143395  51.9196395 110.2183539  60.3329559  50.5272033 105.9367178
  59.8176183  51.2976638 106.1755566  60.0606868  49.8537169 106.5600240
  57.9176670  45.3721734 110.9952417  57.0618266  44.9828584 110.8158055
  58.3303622  45.4513695 110.1352202  59.4475817  42.9068077 115.3943977
  58.9440612  42.8698212 114.5811782  59.7406424  43.8160820 115.4540633
  55.6918703  42.9906807 114.4010158  56.5571699  42.7949616 114.0416048
  55.7596212  42.7617159 115.3279515  65.3063833  53.2804388 107.8720352
  64.5293276  52.9415547 107.4275514  65.9855314  53.2857011 107.1975317
  60.1215862  48.3999125 107.7626960  59.8165998  48.7145275 108.6137103
  61.0746304  48.4780545 107.8054293  58.5662294  54.5589349 109.4119914
  58.0383656  53.8242108 109.0993151  58.0649797  55.3364025 109.1659882
  63.5455140  52.7538369 114.5286960  62.8878815  53.4437631 114.6167088
  64.3495539  53.1434801 114.8720946  53.2981022  45.2209015 111.7726525
  53.8724774  44.9984196 111.0399718  53.8852004  45.2897709 112.5255126
  62.3560599  51.1082742 112.5790902  62.8692481  51.7412734 113.0812611
  63.0061823  50.5083937 112.2134262  53.6250609  47.2513476 105.7922410
  52.7887921  47.5888163 106.1131685  53.4855379  47.1162456 104.8549547
  55.6003689  42.0950264 110.5001595  54.9468102  41.7799281 109.8758209
  55.5584164  41.4726004 111.2261417  58.8341430  48.5832197 114.8249242
  57.9163991  48.8047144 114.6670930  59.2501573  48.6578508 113.9660949
  59.6176478  49.9823613 109.9551922  60.3648297  50.4945010 109.6459044
  59.8868067  49.6607666 110.8156316  63.1222395  56.0888743 110.7070044
  62.6684722  55.2479653 110.7635235  62.4916362  56.7250142 111.0444824
  62.0655315  47.0180729 111.9370712  61.3278072  46.5058116 112.2680954
  62.3182088  46.5781111 111.1253989  61.5655334  57.9265240 111.6419862
  61.8578309  58.4870297 110.9232228  62.0753955  58.2193801 112.3973021
  62.1666942  39.7956981 112.5312481  62.4725819  38.9354345 112.2438396
  62.8919547  40.3874602 112.3311475  48.4591298  50.1987668 110.9194079
  48.2615698  49.6057029 110.1945145  47.9037962  49.8939878 111.6370018
  56.4388022  50.0910774 113.0388672  56.4936632  49.1384611 112.9631149
  55.6279224  50.2470214 113.5229970  54.3780382  48.7087834 110.7979051
  53.5648247  49.0082005 111.2044243  54.8739376  48.3143523 111.5153533
  56.5288960  58.7045591 112.7313316  56.4865138  58.9306437 111.8021848
  57.4451658  58.4708966 112.8799117  59.9754593  49.1729659 119.6293945
  60.3303981  49.4001132 120.4888411  60.6226725  49.5048035 119.0071200
  65.7052330  52.2948095 110.3343274  65.5670229  52.4849691 109.4064463
  65.3488549  53.0567477 110.7911325  53.8694456  46.2806190 116.4140286
  54.5093836  46.1394949 115.7163249  53.0371987  45.9940703 116.0378888
  65.7321710  54.3624622 115.3454545  66.1658217  54.2699911 116.1937599
  66.4453291  54.3382122 114.7074561  54.6454760  55.5808620 112.5275278
  55.4395359  55.0858940 112.3257853  53.9346453  55.0526483 112.1642984
  59.4649605  57.9626716 116.8787646  59.5186627  58.5317652 117.6465362
  58.5964386  58.1328601 116.5141683  50.9537524  49.7251702 108.6035031
  50.0235112  49.6636157 108.8204993  51.0494996  49.2027655 107.8071672
  50.8723073  46.2506515 111.1913273  51.1329890  47.1651848 111.0822433
  51.6940245  45.7830957 111.3409885  52.3447998  47.6644272 118.3612097
  53.0171052  47.4561634 117.7124746  51.5177785  47.4666358 117.9217329
  66.5937260  54.4048322 117.8787431  66.7873150  55.3094133 118.1246706
  66.4937878  53.9455741 118.7126016  58.2473570  44.2906213 120.3777758
  57.6001485  44.9896162 120.2842234  59.0174586  44.7242357 120.7454006
  61.6552368  54.5555065 123.4528311  61.5037875  54.3265617 122.5358395
  61.6457048  55.5125666 123.4659656  58.4237705  52.1286978 118.4374578
  59.3529765  52.2798137 118.2643545  58.0028735  52.2170998 117.5823224
  57.2226036  56.1537642 116.2073115  57.0837122  55.7856426 117.0799054
  56.4340633  56.6685282 116.0357073  58.7731252  55.5319245 113.5961953
  58.4381084  55.4920015 114.4919603  58.2735197  54.8663961 113.1232363
  52.7475495  50.9386875 119.1214534  52.6095293  50.2067114 119.7226073
  53.6580419  50.8495775 118.8398722  55.3757796  50.6506834 118.6098214
  56.0857415  50.0100026 118.5684832  55.3327104  50.9019729 119.5324395
  63.3644575  57.5874187 121.5304793  63.3057121  56.9033408 120.8635376
  63.7664093  58.3293177 121.0785419  54.0886730  47.6372052 120.4293853
  53.5524087  47.1862790 121.0815450  53.5003439  47.7717961 119.6864318
  52.3835274  64.4036101 114.3238512  52.6231872  65.0354625 115.0017531
  51.5404470  64.0524141 114.6103871  63.3661982  55.5513771 119.7618773
  62.4788761  55.2139693 119.8845172  63.9360533  54.8196803 119.9987538
  45.0191129  51.8837863 113.0861824  45.7062169  51.5699593 112.4982840
  44.8639258  52.7879228 112.8129076  49.8225851  46.7728060 117.5146848
  49.7384040  46.1653729 116.7797258  49.0008558  47.2637078 117.5156344
  56.8963136  60.2115224 116.7280016  56.8233307  61.0170195 117.2399321
  56.4540529  60.4107190 115.9028037  56.6852915  59.4486994 110.2382838
  55.9020437  59.9908674 110.3321062  57.3845660  59.9660973 110.6377079
  59.9949565  45.2581623 112.8817043  60.4918265  44.5051586 112.5618113
  59.2236547  45.2945940 112.3160252  67.8479323  50.9621989 114.5235335
  67.8369199  51.8446704 114.1529268  66.9796702  50.6093540 114.3289872
  59.3561819  60.1102058 118.8838175  60.0689791  60.7449523 118.8114076
  58.8651848  60.2065924 118.0678177  61.0779346  54.0153310 110.4555466
  60.1435625  54.1354773 110.2860171  61.2556014  53.1125777 110.1915476
  56.5784534  47.3999006 112.6088728  56.2082322  46.8470047 113.2969633
  57.0743626  46.7957140 112.0563728  64.4651897  49.8570630 110.9905501
  64.9312349  50.6898621 110.9165803  64.9159398  49.3915611 111.6950759
  54.4073733  57.8596501 119.7043746  55.1083192  58.4932984 119.8573140
  53.9368848  58.2011233 118.9439385  62.5328128  56.2014451 107.9891653
  62.8087972  56.0871046 108.8985527  61.6632627  55.8031936 107.9503826
  62.4368560  42.2251217 115.0296402  61.5231640  42.4555444 115.1978609
  62.8661661  42.3089661 115.8810434  62.2075019  50.4141109 117.5296296
  61.5546469  50.6617016 116.8748749  62.5855398  49.6005247 117.1958773
  59.1682192  60.4500802 111.6324466  59.3504587  59.6322458 112.0952219
  59.9915178  60.6668494 111.1949356  59.5024358  59.3768987 108.8939515
  60.0312124  58.8661442 108.2809677  59.7652577  59.0611517 109.7585048
  58.2562592  51.1560920 124.0162333  57.5803229  51.0555049 124.6864708
  59.0790225  51.0000134 124.4798330  50.0041451  57.3932856 116.6374848
  50.5894887  56.6476544 116.7702752  49.8066289  57.7036813 117.5211512
  44.5959105  49.9638457 115.3579291  44.6343205  49.4302047 116.1516409
  44.0899398  49.4373662 114.7390269  56.9985374  62.4627847 118.2519949
  57.5503682  62.6259469 119.0169034  57.3391568  63.0532285 117.5799974
  51.9749868  44.8102997 118.8541834  52.0391194  45.6717828 118.4419231
  51.9116988  44.1976999 118.1214192  51.4502140  46.8826130 122.5014868
  52.0774179  46.5003207 123.1152392  50.5930059  46.6640332 122.8670560
  61.8496249  57.2889105 124.1068603  62.3936153  57.9019063 123.6123558
  61.2683094  57.8468683 124.6235616  48.2267683  48.6902559 108.4333223
  48.5221124  47.7813237 108.3800276  47.3255719  48.6690298 108.1114225
  60.1353762  60.4109823 115.2383631  60.0104901  59.6099563 114.7294577
  60.7932853  60.9056016 114.7497601  51.7561930  46.7658555 114.4160771
  51.0348516  47.3794523 114.2768245  52.5455186  47.3016320 114.3377417
  62.1988670  58.2118843 116.8663181  61.2519006  58.0924194 116.7941508
  62.5471443  57.3241341 116.9489443  54.5588243  44.1012982 120.6901423
  55.0822645  44.3475278 121.4527732  54.3400577  44.9333017 120.2704560
  49.9555525  46.3716656 108.5572548  49.6268231  45.4914035 108.3747654
  50.3094895  46.3164325 109.4448937  59.2035103  58.0071559 113.0667533
  59.0560066  57.0788266 113.2475104  60.0288597  58.0291650 112.5824609
  53.0697348  46.6589626 108.9248026  53.4093420  47.1875547 108.2026634
  53.5169468  46.9970032 109.7006592  62.8069225  58.8300118 114.1532406
  63.7315773  58.6242979 114.0156857  62.6384529  58.5816519 115.0621748
  55.7640789  45.0426677 118.3751094  55.4237609  44.2434490 118.7771774
  55.0579795  45.3428388 117.8027927  56.4157260  42.1275989 116.8278417
  57.2383330  41.6536467 116.7057307  56.6595324  42.9066473 117.3277103
  55.0565495  45.1564248 107.1241318  55.7773857  45.5345501 106.6205035
  54.4330799  45.8753125 107.2276296  59.1996618  45.8609397 108.0599651
  59.4160232  46.7434035 107.7588479  58.7190685  45.4695610 107.3305293
  53.9395839  48.8195110 114.6370395  53.7940420  49.1335413 115.5294677
  53.4621043  49.4380010 114.0841294  55.7992222  45.8097658 114.6851285
  55.7853791  44.9138751 114.3483583  56.5164650  45.8168322 115.3189571
  57.6518353  46.2434998 116.7304412  57.3936131  47.1652069 116.7288743
  57.1203393  45.8465433 117.4204876  62.5964541  59.3485785 109.5094498
  62.7701419  58.7832208 108.7568350  63.0893433  60.1486680 109.3273988
  48.4141501  51.3600454 117.5758056  47.8694969  52.1360262 117.7078331
  49.2920851  51.7071259 117.4177178  55.2029118  44.6912038 109.9538855
  55.3245029  43.7628684 110.1529742  54.9131160  44.7050724 109.0417170
  58.0720308  42.3766949 113.0905575  58.0942005  42.4406282 112.1357554
  58.4888367  41.5371457 113.2846081  68.4503933  52.1122208 111.1284797
  68.8935079  51.3629533 110.7303921  67.5730443  52.1032345 110.7458529
  63.5839714  58.6652550 106.6091396  64.2790619  59.2859242 106.8278711
  63.9262864  57.8147901 106.8843774  49.2007523  50.4870351 120.4688213
  48.4589259  50.6352986 121.0552844  48.8800267  50.7478616 119.6054963
  65.4831137  56.1152255 108.1378727  66.0082461  56.4539528 107.4128047
  65.3953490  55.1799270 107.9541861  57.1451186  60.0286329 120.2668603
  57.4538312  59.7835476 121.1391303  57.9426668  60.2332967 119.7787474
  57.1671798  62.1824238 112.4973980  56.7276788  61.6900617 113.1906837
  57.9179915  61.6397206 112.2566055  54.6145670  57.7262248 114.5696282
  53.9925679  57.0632953 114.2698509  55.2850537  57.7523379 113.8869929
  47.8472742  56.2922106 113.4587542  47.0104650  55.8644280 113.2771543
  47.8196387  56.4854549 114.3958333  54.6870197  46.2044036 124.1628788
  54.7358353  47.0806158 123.7806557  55.2292712  45.6621429 123.5900431
  65.1725043  56.7485159 123.4429925  64.3820587  56.7309298 122.9034424
  64.9358398  57.2873453 124.1978961  65.2922918  53.5977625 120.7562653
  65.3420923  53.4327633 121.6978176  65.1836842  52.7304884 120.3660534
  54.1759177  56.2766171 108.0454742  54.3247297  56.9601635 107.3921415
  54.9825620  56.2571261 108.5604198  62.5826681  49.5808553 122.0721960
  63.4836543  49.4415018 121.7805958  62.6574655  49.7463008 123.0120137
  56.9169486  46.9575408 120.9175146  56.0472795  47.2508974 120.6457735
  57.1528966  47.5415853 121.6382410  66.7941115  56.0174567 121.0004675
  66.5025923  56.3804547 121.8368136  66.1813246  55.3041575 120.8218007
  67.9936797  53.5827446 113.5207245  68.8283689  54.0217251 113.6844805
  68.1295926  53.1066100 112.7015491  65.0428303  51.1407181 119.4684733
  65.5182425  51.3334828 118.6603584  64.1193869  51.1966367 119.2228116
  51.9311810  52.3031349 109.0515811  51.6857852  51.3993679 109.2496021
  52.1007724  52.3048499 108.1095289  59.6208520  43.1755025 118.4340567
  60.1390464  43.9116052 118.1087055  59.2663652  43.4819018 119.2687326
  51.2007457  48.0359706 106.5501972  50.5076702  48.1104061 105.8942008
  50.9559209  47.2720050 107.0723489  59.8721114  39.5955307 113.9541463
  60.1522868  38.9278496 114.5801890  60.6571721  39.7884403 113.4416127
  63.7429972  48.0172941 117.7013038  64.6947395  48.1171039 117.7225262
  63.5733423  47.2251210 118.2111123  61.7644352  45.1028525 117.8872439
  61.1694284  45.3833537 117.1918928  61.4794048  45.5922426 118.6589180
  60.8951842  59.0551451 106.6475072  61.8282515  58.9897013 106.8507947
  60.8075055  59.8907718 106.1889604  63.5239859  58.3717322 103.6079019
  63.4453490  58.0377185 104.5014777  64.3449526  58.8639090 103.6070492
  66.2218050  51.2379061 116.8155338  66.1894370  50.2995062 117.0015022
  66.8318674  51.3163098 116.0821163  66.3712539  48.0290105 116.8613621
  65.8551587  47.2448561 116.6743550  67.2552487  47.7008821 117.0260141
  64.0323265  41.7731120 112.8209434  63.8348087  41.4646208 113.7052766
  64.6422971  42.4992759 112.9507364  72.0394600  52.2995068 115.9561375
  72.7697988  52.0380356 116.5169078  71.4301545  51.5623790 115.9963443
  70.1209897  50.4402931 116.5535826  69.3943061  50.3058895 115.9452318
  69.7057184  50.7479759 117.3592544  57.9440073  54.1592860 124.3183199
  58.8643083  54.3371459 124.5123246  57.9089656  53.2148906 124.1662898
  47.1622238  49.3531454 113.2436474  46.8425023  48.4996762 112.9510848
  46.6155667  49.5680032 113.9994441  50.9402146  52.0693895 116.9605980
  51.1588156  53.0011003 116.9794014  51.3527920  51.7101869 117.7460784
  57.8606364  42.5761980 108.9481669  57.0507092  42.2309065 109.3236915
  58.5490781  42.2669524 109.5369280  59.7896912  41.6540027 110.5705965
  60.3427951  42.0735480 111.2295988  60.0266998  40.7275775 110.6128921
  55.8130011  47.6427101 126.3508729  55.7126738  48.5921458 126.2820820
  55.5951553  47.3145340 125.4784799  47.0310498  52.9734365 115.2129595
  46.3373970  52.5588318 114.6999550  47.7783489  53.0154902 114.6163014
  63.1675719  43.7640552 110.0784629  62.5874388  44.4225356 109.6962682
  62.9011652  42.9417897 109.6672047  61.6179286  43.1645610 112.2805950
  62.1179064  43.2762144 111.4720269  62.2614893  42.8606663 112.9206758
  55.6761281  51.0724239 125.1673791  55.1928363  51.8724600 125.3737680
  55.7622220  51.0832184 124.2141235  48.9447241  52.9052619 113.0895610
  48.9217929  53.0040306 112.1377493  49.2547877  53.7517770 113.4112776
  51.6034619  54.9628774 117.2042225  52.5577872  54.9312717 117.1372156
  51.4047142  54.5019398 118.0192450  52.1934001  53.5329890 119.7713022
  53.0126890  54.0273969 119.7947859  52.4670809  52.6161858 119.7430590
  61.9500597  45.9240643 109.1340978  61.0626452  46.2090293 108.9161172
  62.3654586  45.7634406 108.2868255  65.3015133  45.9487164 112.8495317
  66.0775523  46.4383616 113.1219934  64.5763267  46.3745218 113.3067186
  67.7387692  46.6614783 113.9069258  68.3332183  46.4210519 113.1962566
  67.8114276  45.9421913 114.5342794  49.9584848  60.5048394 114.2212422
  49.8239316  59.7448795 113.6550420  49.5416910  61.2289294 113.7541211
  61.9241621  51.4395178 109.3491268  61.8676822  51.8963730 108.5098900
  62.4769963  50.6785863 109.1714111  65.7346427  47.2284910 110.1741387
  65.4783361  46.8281546 111.0049595  65.1099295  47.9428704 110.0491527
  70.0458765  49.9680984 112.6812679  69.4858323  50.0374173 113.4544241
  69.4402268  49.7921968 111.9612175  53.1153973  61.4017711 114.4330865
  52.9986358  62.3463143 114.3309555  52.2946420  61.0991272 114.8216664
  63.0030508  56.1267846 105.2787458  63.8376112  55.6949045 105.0964933
  62.8414851  55.9549860 106.2064352  62.6576400  52.6299960 106.6443797
  62.6025204  52.4644231 105.7032241  62.0322455  53.3375993 106.8005987
  47.4468915  47.8668024 120.4705219  48.0927779  47.3566978 120.9592444
  47.2386066  48.6036706 121.0448645  59.9722307  54.9348872 125.9697360
  60.8413467  55.1089524 125.6083995  59.4929059  55.7543288 125.8473089
  55.9672526  42.1308069 106.2229115  55.9551195  43.0749909 106.3797386
  56.8595948  41.9478214 105.9288577  54.1408488  62.0545973 117.6486793
  55.0435734  62.0869583 117.9653288  53.9145858  61.1246424 117.6633129
  55.8962090  60.8076959 114.3096872  54.9457721  60.8078821 114.1961244
  56.1994576  60.0609694 113.7932907  59.7824645  38.7250845 110.4775052
  59.0157041  38.1709332 110.6231735  60.1935350  38.7972714 111.3389204
  51.7866406  45.0135641 124.5680234  52.6497868  44.6572446 124.7783558
  51.2131817  44.6749536 125.2555638  71.6314783  66.6437498 115.3742635
  72.2693193  66.5244245 114.6705975  71.5135626  67.5918341 115.4330587
  68.4404489  66.5964926 115.3104159  68.1023001  66.4805990 114.4224694
  69.3094258  66.1956091 115.2905165  64.2991305  68.4500402 111.3001050
  63.7356170  68.3590339 110.5317338  64.1843700  67.6300306 111.7803543
  68.9224272  67.7499777 121.2690365  68.9112913  67.3552576 120.3970868
  69.0844912  67.0165850 121.8624136  61.8455737  69.9451594 114.1385271
  62.6377029  69.6042418 113.7231570  62.0852387  70.0546569 115.0587424
  69.8790864  72.1171370 106.6115515  69.2278844  72.7025450 106.2249529
  70.6735227  72.6477565 106.6710553  63.8046491  69.2060507 107.0102649
  64.5777367  68.6589494 106.8715525  64.1571890  70.0704756 107.2217111
  65.6431534  70.5336889 120.2169549  65.3521400  71.4382520 120.1016215
  66.2788518  70.5753417 120.9313618  66.5687740  67.9113738 116.8070908
  67.1651313  67.6869760 116.0927871  66.6262712  67.1698483 117.4096356
  71.1856052  64.3688951 112.4495843  71.9719141  63.9508375 112.0986260
  71.4494756  65.2735044 112.6177491  71.3566129  69.8061802 107.1484499
  70.7211962  69.8796428 107.8605404  71.0263535  70.3955401 106.4703579
  76.5864479  64.3064185 113.3528821  77.3189651  63.7363401 113.5866651
  75.8303834  63.9185785 113.7935327  65.8609058  67.2681279 106.8445474
  65.7445316  66.5926182 107.5126559  65.9711317  66.7813653 106.0277627
  68.2040598  66.7291426 110.5492164  67.8398806  66.2022047 111.2605085
  69.0607714  66.3389895 110.3758649  74.1089899  58.0185759 117.8123430
  73.7773224  58.8881170 117.5884645  73.5135512  57.7022043 118.4917460
  67.8446085  61.7581326 105.5453512  68.0120488  62.6261562 105.9123983
  67.6543255  61.9208607 104.6214801  70.6021419  70.2198305 117.2119342
  70.3022142  71.1223343 117.1035150  70.2572478  69.9530488 118.0640495
  64.0533900  66.6712102 113.2456047  63.1284397  66.5388316 113.4533739
  64.3018313  67.4506321 113.7425989  74.0018562  62.7380845 114.8916780
  73.0935440  62.6696253 114.5975541  73.9506158  63.2152790 115.7198605
  67.8235306  64.2138983 106.5300179  67.7034932  64.6596034 107.3685659
  67.1287895  64.5624301 105.9713717  61.4142711  66.3145375 114.0799836
  61.5435092  66.5679854 114.9939248  60.7340162  66.9073083 113.7604491
  65.5842198  76.9842625 110.1790310  65.5066228  77.9350450 110.2578791
  64.9803842  76.6388498 110.8365236  68.0759428  64.1570490 122.8351677
  67.2992762  64.7164411 122.8254542  68.7149991  64.6427273 123.3566547
  75.8680209  60.9397283 116.6694654  75.2254589  61.2329816 116.0234448
  75.3635137  60.8250204 117.4747850  73.5220372  64.6860456 107.3580513
  74.4338229  64.9187843 107.1828210  73.0130020  65.2697501 106.7955592
  66.3305800  66.9655944 122.3969644  67.0720485  67.5040988 122.1204468
  65.6242786  67.5922233 122.5541196  71.8061140  69.1085084 120.9941805
  72.2144496  68.6667495 120.2496438  71.0838402  68.5337712 121.2475998
  68.1592210  64.0457691 118.3675362  69.0053405  64.4697105 118.5110011
  68.0990848  63.3891315 119.0613926  72.1289955  69.6686275 114.7494094
  71.4998817  69.8331989 114.0470162  71.7415617  70.0827884 115.5205058
  76.0079187  70.6040713 112.1038458  75.3230225  70.9839614 111.5535491
  76.0923036  71.2136039 112.8370406  71.3091656  61.7062059 120.0256536
  71.0652587  62.4604120 119.4890812  71.5851586  62.0847407 120.8603783
  73.2630118  68.2500672 118.7033802  73.4747014  68.8932432 118.0268183
  73.2159867  67.4162988 118.2355732  70.8656347  60.8618492 115.6070374
  70.0040826  61.1599746 115.8987111  70.8918782  61.0788891 114.6751406
  67.6817917  69.4060683 112.0144179  68.1456262  69.6848386 111.2248802
  67.4174715  68.5044128 111.8317270  64.5741998  68.9532165 114.9523943
  65.1443355  69.3819433 114.3141427  65.1650110  68.6714749 115.6508128
  66.6186803  65.5283835 108.8233745  67.3210846  65.9804879 109.2907671
  66.2867431  64.8867654 109.4513638  65.0667164  64.1195592 123.1984954
  64.4365825  64.8011873 123.4320351  64.9603252  64.0078674 122.2538092
  60.3612137  63.7867388 114.1250878  59.5711191  64.0424917 113.6490989
  60.8523384  64.6015726 114.2302919  74.3775946  71.1272627 116.8756159
  75.1993390  70.7252814 116.5938841  74.3738349  71.0240861 117.8272275
  62.3126882  64.1511967 111.0834355  61.5158045  64.2630662 111.6017851
  62.0852474  64.4898619 110.2175245  68.1432550  70.6756670 119.0316869
  68.2076982  71.1377078 119.8675041  67.4343474  70.0454035 119.1599179
  58.6449840  64.0397878 116.5565869  58.8957878  64.9244888 116.8223445
  59.1809388  63.8602480 115.7840961  82.4681939  67.4711376 113.2241130
  81.7145648  66.9018774 113.0685135  82.6029480  67.4374040 114.1711765
  67.8580567  72.3424778 108.8995850  67.7226242  73.1876314 109.3280698
  68.3990380  72.5444056 108.1361784  64.3447907  58.4216358 125.5610205
  63.9514853  57.8682556 126.2357849  65.1614047  58.7326936 125.9516723
  61.3109965  69.8600216 109.4723775  61.8234485  70.6543466 109.6229340
  61.9632678  69.1626506 109.4057376  63.1204849  72.9765972 111.5546528
  63.2971478  73.8983937 111.3667512  63.9161683  72.6624391 111.9840908
  67.2615868  59.8374237 123.1530462  68.0025581  60.4381390 123.0734924
  67.4933791  59.0951875 122.5948504  62.4057206  65.0230604 121.4308691
  62.2910721  64.1215861 121.7315790  61.5501724  65.2694301 121.0793508
  69.4849044  72.9648344 123.0296192  69.0412898  72.1784723 122.7117096
  70.1466257  73.1527495 122.3640083  64.2436165  74.4944146 117.5556870
  64.7943590  74.3661209 116.7833864  63.4047641  74.7939035 117.2051763
  71.5830282  73.2451144 121.0577593  71.5648757  74.0660025 120.5657862
  72.5050202  73.1205220 121.2827734  68.0403336  70.7595274 121.9001102
  68.5731673  69.9983562 121.6700410  67.5117417  70.4668926 122.6425256
  71.2073031  55.8655340 117.4294743  70.8637300  56.7556982 117.3533854
  71.5751993  55.6756997 116.5664328  59.2758881  68.1888870 110.2483345
  60.1134104  68.5985879 110.0317053  59.4537149  67.2488312 110.2183539
  71.1723314  65.8563951 105.9367178  70.6569937  66.6268556 106.1755566
  70.9000622  65.1829087 106.5600240  68.7570425  60.7013652 110.9952417
  67.9012021  60.3120502 110.8158055  69.1697376  60.7805613 110.1352202
  70.2869571  58.2359995 115.3943977  69.7834367  58.1990130 114.5811782
  70.5800178  59.1452738 115.4540633  66.5312457  58.3198725 114.4010158
  67.3965454  58.1241533 114.0416048  66.5989966  58.0909076 115.3279515
  76.1457588  68.6096306 107.8720352  75.3687031  68.2707465 107.4275514
  76.8249069  68.6148929 107.1975317  70.9609617  63.7291043 107.7626960
  70.6559752  64.0437192 108.6137103  71.9140059  63.8072463 107.8054293
  69.4056049  69.8881266 109.4119914  68.8777410  69.1534026 109.0993151
  68.9043551  70.6655943 109.1659882  74.3848895  68.0830287 114.5286960
  73.7272569  68.7729548 114.6167088  75.1889294  68.4726719 114.8720946
  64.1374776  60.5500933 111.7726525  64.7118528  60.3276114 111.0399718
  64.7245759  60.6189627 112.5255126  73.1954353  66.4374660 112.5790902
  73.7086235  67.0704651 113.0812611  73.8455577  65.8375855 112.2134262
  64.4644363  62.5805394 105.7922410  63.6281676  62.9180080 106.1131685
  64.3249133  62.4454373 104.8549547  66.4397444  57.4242182 110.5001595
  65.7861856  57.1091199 109.8758209  66.3977918  56.8017922 111.2261417
  70.4576728  76.4158984 105.3351573  69.7838426  76.7190681 105.9436531
  70.8442550  77.2188064 104.9857030  69.6735184  63.9124115 114.8249242
  68.7557746  64.1339062 114.6670930  70.0895328  63.9870426 113.9660949
  70.4570232  65.3115531 109.9551922  71.2042051  65.8236928 109.6459044
  70.7261822  64.9899584 110.8156316  68.7296882  67.8074072 106.9378877
  67.8208102  67.5233104 107.0351346  68.7591966  68.2273150 106.0782184
  73.9616150  71.4180661 110.7070044  73.5078477  70.5771571 110.7635235
  73.3310116  72.0542059 111.0444824  72.9049069  62.3472647 111.9370712
  72.1671826  61.8350033 112.2680954  73.1575843  61.9073029 111.1253989
  72.4049089  73.2557158 111.6419862  72.6972063  73.8162215 110.9232228
  72.9147709  73.5485719 112.3973021  73.0060697  55.1248899 112.5312481
  73.3119573  54.2646262 112.2438396  73.7313301  55.7166519 112.3311475
  59.2985053  65.5279586 110.9194079  59.1009452  64.9348946 110.1945145
  58.7431717  65.2231796 111.6370018  67.2781776  65.4202692 113.0388672
  67.3330386  64.4676529 112.9631149  66.4672978  65.5762131 113.5229970
  65.2174136  64.0379752 110.7979051  64.4042002  64.3373922 111.2044243
  65.7133130  63.6435441 111.5153533  67.3682714  74.0337509 112.7313316
  67.3258893  74.2598355 111.8021848  68.2845413  73.8000883 112.8799117
  70.8148348  64.5021576 119.6293945  71.1697736  64.7293049 120.4888411
  71.4620479  64.8339953 119.0071200  76.5446085  67.6240012 110.3343274
  76.4063983  67.8141608 109.4064463  76.1882304  68.3859395 110.7911325
  64.7088211  61.6098107 116.4140286  65.3487590  61.4686866 115.7163249
  63.8765742  61.3232621 116.0378888  76.5715464  69.6916539 115.3454545
  77.0051971  69.5991828 116.1937599  77.2847045  69.6674040 114.7074561
  65.4848515  70.9100538 112.5275278  66.2789113  70.4150858 112.3257853
  64.7740207  70.3818401 112.1642984  70.3043359  73.2918633 116.8787646
  70.3580382  73.8609570 117.6465362  69.4358141  73.4620518 116.5141683
  61.7931278  65.0543620 108.6035031  60.8628866  64.9928075 108.8204993
  61.8888750  64.5319572 107.8071672  61.7116827  61.5798432 111.1913273
  61.9723645  62.4943766 111.0822433  62.5334000  61.1122875 111.3409885
  63.1841753  62.9936190 118.3612097  63.8564806  62.7853552 117.7124746
  62.3571539  62.7958276 117.9217329  77.4331014  69.7340240 117.8787431
  77.6266904  70.6386050 118.1246706  77.3331632  69.2747659 118.7126016
  69.0867325  59.6198130 120.3777758  68.4395240  60.3188080 120.2842234
  69.8568340  60.0534274 120.7454006  72.4946123  69.8846983 123.4528311
  72.3431629  69.6557534 122.5358395  72.4850802  70.8417584 123.4659656
  69.2631459  67.4578895 118.4374578  70.1923519  67.6090055 118.2643545
  68.8422489  67.5462916 117.5823224  68.0619791  71.4829560 116.2073115
  67.9230877  71.1148344 117.0799054  67.2734387  71.9977199 116.0357073
  68.6567943  76.5838656 107.5498652  68.8319699  76.1126699 108.3644275
  67.9700731  77.2104422 107.7779913  69.6125006  70.8611162 113.5961953
  69.2774839  70.8211932 114.4919603  69.1128952  70.1955878 113.1232363
  63.5869250  66.2678793 119.1214534  63.4489048  65.5359031 119.7226073
  64.4974173  66.1787693 118.8398722  66.2151551  65.9798752 118.6098214
  66.9251169  65.3391944 118.5684832  66.1720859  66.2311647 119.5324395
  74.2038329  72.9166105 121.5304793  74.1450875  72.2325325 120.8635376
  74.6057848  73.6585095 121.0785419  64.9280485  62.9663970 120.4293853
  64.3917842  62.5154708 121.0815450  64.3397193  63.1009879 119.6864318
  63.2229028  79.7328019 114.3238512  63.4625626  80.3646543 115.0017531
  62.3798225  79.3816059 114.6103871  64.3382744  62.4252621 102.9920317
  63.4612210  62.3041422 102.6282564  64.8140497  61.6338699 102.7399206
  74.2055737  70.8805689 119.7618773  73.3182515  70.5431611 119.8845172
  74.7754288  70.1488720 119.9987538  55.8584884  67.2129781 113.0861824
  56.5455924  66.8991511 112.4982840  55.7033012  68.1171145 112.8129076
  60.6619606  62.1019977 117.5146848  60.5777795  61.4945647 116.7797258
  59.8402312  62.5928996 117.5156344  67.7356890  75.5407141 116.7280016
  67.6627061  76.3462113 117.2399321  67.2934283  75.7399107 115.9028037
  67.5246670  74.7778911 110.2382838  66.7414192  75.3200592 110.3321062
  68.2239415  75.2952891 110.6377079  70.8343320  60.5873541 112.8817043
  71.3312019  59.8343503 112.5618113  70.0630301  60.6237858 112.3160252
  78.6873077  66.2913906 114.5235335  78.6762953  67.1738622 114.1529268
  77.8190457  65.9385457 114.3289872  70.1955574  75.4393975 118.8838175
  70.9083546  76.0741440 118.8114076  69.7045602  75.5357841 118.0678177
  71.9173100  69.3445228 110.4555466  70.9829379  69.4646691 110.2860171
  72.0949769  68.4417695 110.1915476  67.4178288  62.7290924 112.6088728
  67.0476076  62.1761964 113.2969633  67.9137381  62.1249057 112.0563728
  75.3045652  65.1862547 110.9905501  75.7706104  66.0190539 110.9165803
  75.7553152  64.7207529 111.6950759  65.2467487  73.1888419 119.7043746
  65.9476947  73.8224902 119.8573140  64.7762602  73.5303150 118.9439385
  73.3721883  71.5306369 107.9891653  73.6481727  71.4162963 108.8985527
  72.5026382  71.1323854 107.9503826  73.2762315  57.5543134 115.0296402
  72.3625394  57.7847361 115.1978609  73.7055416  57.6381578 115.8810434
  73.0468773  65.7433026 117.5296296  72.3940223  65.9908934 116.8748749
  73.4249153  64.9297165 117.1958773  70.0075947  75.7792720 111.6324466
  70.1898341  74.9614376 112.0952219  70.8308933  75.9960412 111.1949356
  70.3418112  74.7060905 108.8939515  70.8705879  74.1953359 108.2809677
  70.6046332  74.3903435 109.7585048  69.0956346  66.4852837 124.0162333
  68.4196983  66.3846967 124.6864708  69.9183980  66.3292051 124.4798330
  60.8435205  72.7224774 116.6374848  61.4288642  71.9768462 116.7702752
  60.6460044  73.0328731 117.5211512  63.6973860  75.7576021 111.6537291
  63.0284236  76.2422149 111.1701331  63.5586730  76.0045242 112.5680669
  55.4352860  65.2930374 115.3579291  55.4736959  64.7593965 116.1516409
  54.9293153  64.7665580 114.7390269  67.8379129  77.7919765 118.2519949
  68.3897437  77.9551386 119.0169034  68.1785322  78.3824203 117.5799974
  62.8143622  60.1394915 118.8541834  62.8784949  61.0009746 118.4419231
  62.7510742  59.5268916 118.1214192  62.2895895  62.2118047 122.5014868
  62.9167933  61.8295125 123.1152392  61.4323814  61.9932249 122.8670560
  72.6890003  72.6181022 124.1068603  73.2329907  73.2310981 123.6123558
  72.1076848  73.1760601 124.6235616  59.0661437  64.0194476 108.4333223
  59.3614879  63.1105155 108.3800276  58.1649473  63.9982216 108.1114225
  70.9747516  75.7401740 115.2383631  70.8498656  74.9391480 114.7294577
  71.6326607  76.2347934 114.7497601  62.5955684  62.0950473 114.4160771
  61.8742270  62.7086441 114.2768245  63.3848940  62.6308238 114.3377417
  73.0382425  73.5410761 116.8663181  72.0912760  73.4216112 116.7941508
  73.3865198  72.6533259 116.9489443  65.3981998  59.4304899 120.6901423
  65.9216400  59.6767196 121.4527732  65.1794331  60.2624934 120.2704560
  60.7949279  61.7008574 108.5572548  60.4661985  60.8205953 108.3747654
  61.1488650  61.6456243 109.4448937  70.0428858  73.3363477 113.0667533
  69.8953820  72.4080184 113.2475104  70.8682351  73.3583567 112.5824609
  63.9091102  61.9881544 108.9248026  64.2487175  62.5167465 108.2026634
  64.3563223  62.3261950 109.7006592  73.6462980  74.1592035 114.1532406
  74.5709527  73.9534897 114.0156857  73.4778283  73.9108437 115.0621748
  66.6034543  60.3718595 118.3751094  66.2631363  59.5726408 118.7771774
  65.8973549  60.6720305 117.8027927  67.2551015  57.4567907 116.8278417
  68.0777084  56.9828385 116.7057307  67.4989078  58.2358391 117.3277103
  65.8959249  60.4856165 107.1241318  66.6167612  60.8637418 106.6205035
  65.2724553  61.2045042 107.2276296  70.0390372  61.1901314 108.0599651
  70.2553987  62.0725952 107.7588479  69.5584439  60.7987528 107.3305293
  64.7789594  64.1487028 114.6370395  64.6334174  64.4627331 115.5294677
  64.3014797  64.7671928 114.0841294  66.6385976  61.1389576 114.6851285
  66.6247545  60.2430669 114.3483583  67.3558405  61.1460239 115.3189571
  68.4912107  61.5726916 116.7304412  68.2329885  62.4943986 116.7288743
  67.9597148  61.1757350 117.4204876  73.4358296  74.6777703 109.5094498
  73.6095173  74.1124125 108.7568350  73.9287187  75.4778598 109.3273988
  59.2535256  66.6892372 117.5758056  58.7088724  67.4652180 117.7078331
  60.1314606  67.0363176 117.4177178  66.0422872  60.0203956 109.9538855
  66.1638784  59.0920602 110.1529742  65.7524915  60.0342642 109.0417170
  68.9114063  57.7058866 113.0905575  68.9335760  57.7698199 112.1357554
  69.3282122  56.8663375 113.2846081  79.2897687  67.4414126 111.1284797
  79.7328833  66.6921451 110.7303921  78.4124197  67.4324262 110.7458529
  74.4233468  73.9944467 106.6091396  75.1184373  74.6151160 106.8278711
  74.7656619  73.1439819 106.8843774  60.0401278  65.8162268 120.4688213
  59.2983014  65.9644904 121.0552844  59.7194022  66.0770534 119.6054963
  76.3224892  71.4444173 108.1378727  76.8476216  71.7831446 107.4128047
  76.2347244  70.5091188 107.9541861  67.9844940  75.3578246 120.2668603
  68.2932067  75.1127393 121.1391303  68.7820422  75.5624885 119.7787474
  68.0065552  77.5116156 112.4973980  67.5670543  77.0192535 113.1906837
  68.7573669  76.9689124 112.2566055  60.4857891  73.7027697 112.4998608
  61.3115911  73.4031469 112.1197252  60.1351943  72.9335319 112.9488397
  65.4539424  73.0554165 114.5696282  64.8319434  72.3924870 114.2698509
  66.1244291  73.0815297 113.8869929  58.6866496  71.6214023 113.4587542
  57.8498405  71.1936198 113.2771543  58.6590142  71.8146467 114.3958333
  65.5263952  61.5335953 124.1628788  65.5752107  62.4098076 123.7806557
  66.0686466  60.9913346 123.5900431  76.0118798  72.0777076 123.4429925
  75.2214341  72.0601215 122.9034424  75.7752152  72.6165370 124.1978961
  76.1316673  68.9269543 120.7562653  76.1814678  68.7619550 121.6978176
  76.0230596  68.0596802 120.3660534  65.0152931  71.6058089 108.0454742
  65.1641052  72.2893553 107.3921415  65.8219375  71.5863179 108.5604198
  73.4220435  64.9100471 122.0721960  74.3230298  64.7706936 121.7805958
  73.4968410  65.0754926 123.0120137  67.7563240  62.2867326 120.9175146
  66.8866550  62.5800892 120.6457735  67.9922721  62.8707771 121.6382410
  77.6334869  71.3466484 121.0004675  77.3419678  71.7096465 121.8368136
  77.0207001  70.6333493 120.8218007  78.8330552  68.9119364 113.5207245
  79.6677443  69.3509168 113.6844805  78.9689681  68.4358017 112.7015491
  75.8822058  66.4699099 119.4684733  76.3576179  66.6626745 118.6603584
  74.9587623  66.5258285 119.2228116  62.7705564  67.6323266 109.0515811
  62.5251606  66.7285596 109.2496021  62.9401479  67.6340417 108.1095289
  70.4602274  58.5046943 118.4340567  70.9784218  59.2407969 118.1087055
  70.1057407  58.8110936 119.2687326  62.0401212  63.3651624 106.5501972
  61.3470457  63.4395979 105.8942008  61.7952964  62.6011967 107.0723489
  70.7114868  54.9247225 113.9541463  70.9916622  54.2570414 114.5801890
  71.4965475  55.1176321 113.4416127  68.5148337  74.1006219 105.5166490
  67.9422304  74.7196406 105.0636961  69.0881131  74.6505581 106.0506411
  74.5823727  63.3464859 117.7013038  75.5341150  63.4462957 117.7225262
  74.4127177  62.5543128 118.2111123  72.6038106  60.4320442 117.8872439
  72.0088038  60.7125455 117.1918928  72.3187803  60.9214343 118.6589180
  71.7345597  74.3843369 106.6475072  72.6676270  74.3188931 106.8507947
  71.6468809  75.2199636 106.1889604  74.3633613  73.7009239 103.6079019
  74.2847245  73.3669103 104.5014777  75.1843280  74.1931007 103.6070492
  77.0611805  66.5670979 116.8155338  77.0288125  65.6286980 117.0015022
  77.6712428  66.6455015 116.0821163  77.2106293  63.3582022 116.8613621
  76.6945342  62.5740479 116.6743550  78.0946242  63.0300739 117.0260141
  74.8717020  57.1023038 112.8209434  74.6741841  56.7938126 113.7052766
  75.4816725  57.8284677 112.9507364  82.8788354  67.6286986 115.9561375
  83.6091743  67.3672274 116.5169078  82.2695300  66.8915708 115.9963443
  80.9603651  65.7694848 116.5535826  80.2336815  65.6350813 115.9452318
  80.5450938  66.0771677 117.3592544  68.7833828  69.4884778 124.3183199
  69.7036837  69.6663377 124.5123246  68.7483411  68.5440823 124.1662898
  58.0015993  64.6823372 113.2436474  57.6818777  63.8288680 112.9510848
  57.4549421  64.8971950 113.9994441  61.7795900  67.3985813 116.9605980
  61.9981910  68.3302920 116.9794014  62.1921674  67.0393787 117.7460784
  68.7000118  57.9053898 108.9481669  67.8900847  57.5600983 109.3236915
  69.3884535  57.5961442 109.5369280  70.6290667  56.9831945 110.5705965
  71.1821705  57.4027398 111.2295988  70.8660753  56.0567693 110.6128921
  66.6523766  62.9719018 126.3508729  66.5520493  63.9213375 126.2820820
  66.4345308  62.6437257 125.4784799  65.8536837  60.2203943 102.9349406
  66.7156001  60.5458842 103.1945224  66.0387181  59.4335439 102.4222472
  57.8704253  68.3026283 115.2129595  57.1767724  67.8880236 114.6999550
  58.6177244  68.3446820 114.6163014  74.0069474  59.0932470 110.0784629
  73.4268143  59.7517274 109.6962682  73.7405406  58.2709814 109.6672047
  72.4573040  58.4937528 112.2805950  72.9572818  58.6054062 111.4720269
  73.1008648  58.1898580 112.9206758  66.5155036  66.4016157 125.1673791
  66.0322118  67.2016517 125.3737680  66.6015975  66.4124102 124.2141235
  59.7840995  68.2344537 113.0895610  59.7611684  68.3332224 112.1377493
  60.0941632  69.0809688 113.4112776  62.4428373  70.2920692 117.2042225
  63.3971627  70.2604634 117.1372156  62.2440897  69.8311316 118.0192450
  63.0327755  68.8621808 119.7713022  63.8520644  69.3565887 119.7947859
  63.3064563  67.9453776 119.7430590  72.7894352  61.2532560 109.1340978
  71.9020207  61.5382211 108.9161172  73.2048341  61.0926324 108.2868255
  76.1408888  61.2779081 112.8495317  76.9169278  61.7675534 113.1219934
  75.4157022  61.7037135 113.3067186  78.5781446  61.9906700 113.9069258
  79.1725937  61.7502436 113.1962566  78.6508030  61.2713831 114.5342794
  60.7978602  75.8340311 114.2212422  60.6633070  75.0740712 113.6550420
  60.3810664  76.5581211 113.7541211  71.9337565  71.0177235 103.2288998
  72.6373415  71.2227237 103.8446653  71.2100214  71.5853997 103.4938081
  72.7635375  66.7687096 109.3491268  72.7070577  67.2255648 108.5098900
  73.3163718  66.0077781 109.1714111  76.5740181  62.5576828 110.1741387
  76.3177116  62.1573464 111.0049595  75.9493049  63.2720622 110.0491527
  80.8852519  65.2972901 112.6812679  80.3252077  65.3666091 113.4544241
  80.2796023  65.1213886 111.9612175  63.9547728  76.7309628 114.4330865
  63.8380112  77.6755061 114.3309555  63.1340174  76.4283190 114.8216664
  73.8424263  71.4559764 105.2787458  74.6769866  71.0240963 105.0964933
  73.6808605  71.2841778 106.2064352  73.4970155  67.9591877 106.6443797
  73.4418958  67.7936149 105.7032241  72.8716210  68.6667910 106.8005987
  58.2862670  63.1959942 120.4705219  58.9321533  62.6858896 120.9592444
  58.0779821  63.9328623 121.0448645  70.8116062  70.2640789 125.9697360
  71.6807222  70.4381442 125.6083995  70.3322813  71.0835206 125.8473089
  66.8066280  57.4599986 106.2229115  66.7944950  58.4041826 106.3797386
  67.6989702  57.2770132 105.9288577  64.9802242  77.3837890 117.6486793
  65.8829489  77.4161501 117.9653288  64.7539612  76.4538341 117.6633129
  66.7355844  76.1368877 114.3096872  65.7851475  76.1370738 114.1961244
  67.0388330  75.3901611 113.7932907  70.6218400  54.0542763 110.4775052
  69.8550795  53.5001250 110.6231735  71.0329105  54.1264632 111.3389204
  62.6260161  60.3427559 124.5680234  63.4891622  59.9864364 124.7783558
  62.0525571  60.0041454 125.2555638  82.4708538  81.9729415 115.3742635
  83.1086948  81.8536163 114.6705975  82.3529380  82.9210259 115.4330587
  79.2798244  81.9256843 115.3104159  78.9416755  81.8097908 114.4224694
  80.1488012  81.5248008 115.2905165  75.1385060  83.7792320 111.3001050
  74.5749925  83.6882257 110.5317338  75.0237455  82.9592224 111.7803543
  79.7618027  83.0791695 121.2690365  79.7506668  82.6844493 120.3970868
  79.9238666  82.3457768 121.8624136  72.6849492  85.2743511 114.1385271
  73.4770783  84.9334336 113.7231570  72.9246142  85.3838486 115.0587424
  74.6440245  84.5352425 107.0102649  75.4171121  83.9881412 106.8715525
  74.9965644  85.3996674 107.2217111  76.4825288  85.8628807 120.2169549
  76.1915154  86.7674438 120.1016215  77.1182272  85.9045334 120.9313618
  77.4081495  83.2405655 116.8070908  78.0045067  83.0161678 116.0927871
  77.4656466  82.4990401 117.4096356  76.9806523  80.6945091 104.6421099
  77.2332044  80.1726612 103.8804562  76.0431082  80.5311236 104.7447783
  82.0249806  79.6980869 112.4495843  82.8112895  79.2800292 112.0986260
  82.2888510  80.6026961 112.6177491  82.1959883  85.1353719 107.1484499
  81.5605716  85.2088346 107.8605404  81.8657290  85.7247318 106.4703579
  87.4258233  79.6356102 113.3528821  88.1583405  79.0655319 113.5866651
  86.6697589  79.2477703 113.7935327  76.7002812  82.5973197 106.8445474
  76.5839070  81.9218100 107.5126559  76.8105072  82.1105571 106.0277627
  79.0434353  82.0583344 110.5492164  78.6792560  81.5313965 111.2605085
  79.9001469  81.6681813 110.3758649  84.9483654  73.3477676 117.8123430
  84.6166978  74.2173087 117.5884645  84.3529267  73.0313960 118.4917460
  78.6839840  77.0873243 105.5453512  78.8514242  77.9553480 105.9123983
  78.4937009  77.2500525 104.6214801  81.4415173  85.5490222 117.2119342
  81.1415896  86.4515261 117.1035150  81.0966233  85.2822406 118.0640495
  74.8927655  82.0004019 113.2456047  73.9678151  81.8680233 113.4533739
  75.1412068  82.7798238 113.7425989  84.8412317  78.0672763 114.8916780
  83.9329194  77.9988171 114.5975541  84.7899913  78.5444707 115.7198605
  78.6629061  79.5430901 106.5300179  78.5428686  79.9887952 107.3685659
  77.9681649  79.8916219 105.9713717  72.2536466  81.6437293 114.0799836
  72.3828847  81.8971772 114.9939248  71.5733917  82.2365001 113.7604491
  76.4235953  92.3134543 110.1790310  76.3459983  93.2642368 110.2578791
  75.8197596  91.9680415 110.8365236  78.9153183  79.4862408 122.8351677
  78.1386517  80.0456328 122.8254542  79.5543746  79.9719191 123.3566547
  86.7073963  76.2689201 116.6694654  86.0648344  76.5621734 116.0234448
  86.2028892  76.1542121 117.4747850  84.3614127  80.0152374 107.3580513
  85.2731983  80.2479761 107.1828210  83.8523774  80.5989418 106.7955592
  77.1699555  82.2947861 122.3969644  77.9114239  82.8332905 122.1204468
  76.4636540  82.9214150 122.5541196  82.6454895  84.4377002 120.9941805
  83.0538251  83.9959412 120.2496438  81.9232156  83.8629629 121.2475998
  78.9985965  79.3749609 118.3675362  79.8447160  79.7989022 118.5110011
  78.9384602  78.7183233 119.0613926  82.9683709  84.9978193 114.7494094
  82.3392572  85.1623907 114.0470162  82.5809371  85.4119802 115.5205058
  82.1485410  77.0353977 120.0256536  81.9046342  77.7896038 119.4890812
  82.4245341  77.4139325 120.8603783  84.1023873  83.5792589 118.7033802
  84.3140768  84.2224349 118.0268183  84.0553621  82.7454906 118.2355732
  81.7050102  76.1910410 115.6070374  80.8434581  76.4891664 115.8987111
  81.7312536  76.4080809 114.6751406  78.5211671  84.7352601 112.0144179
  78.9850017  85.0140304 111.2248802  78.2568469  83.8336045 111.8317270
  75.4135752  84.2824082 114.9523943  75.9837109  84.7111351 114.3141427
  76.0043864  84.0006667 115.6508128  77.4580557  80.8575753 108.8233745
  78.1604601  81.3096797 109.2907671  77.1261186  80.2159572 109.4513638
  75.9060919  79.4487510 123.1984954  75.2759579  80.1303791 123.4320351
  75.7997007  79.3370591 122.2538092  71.2005891  79.1159306 114.1250878
  70.4104945  79.3716834 113.6490989  71.6917139  79.9307644 114.2302919
  85.2169701  86.4564545 116.8756159  86.0387144  86.0544732 116.5938841
  85.2132104  86.3532779 117.8272275  73.1520637  79.4803885 111.0834355
  72.3551800  79.5922579 111.6017851  72.9246229  79.8190537 110.2175245
  78.9826304  86.0048588 119.0316869  79.0470737  86.4668995 119.8675041
  78.2737228  85.3745953 119.1599179  69.4843594  79.3689796 116.5565869
  69.7351633  80.2536806 116.8223445  70.0203143  79.1894398 115.7840961
  93.3075694  82.8003293 113.2241130  92.5539402  82.2310691 113.0685135
  93.4423235  82.7665958 114.1711765  78.6974322  87.6716696 108.8995850
  78.5619997  88.5168231 109.3280698  79.2384134  87.8735973 108.1361784
  75.1841661  73.7508275 125.5610205  74.7908607  73.1974474 126.2357849
  76.0007802  74.0618854 125.9516723  72.1503719  85.1892134 109.4723775
  72.6628240  85.9835384 109.6229340  72.8026432  84.4918424 109.4057376
  73.9598604  88.3057890 111.5546528  74.1365232  89.2275855 111.3667512
  74.7555437  87.9916309 111.9840908  78.1009622  75.1666155 123.1530462
  78.8419336  75.7673308 123.0734924  78.3327545  74.4243792 122.5948504
  73.2450960  80.3522522 121.4308691  73.1304476  79.4507779 121.7315790
  72.3895478  80.5986219 121.0793508  80.3242798  88.2940262 123.0296192
  79.8806652  87.5076641 122.7117096  80.9860012  88.4819413 122.3640083
  75.0829919  89.8236064 117.5556870  75.6337344  89.6953127 116.7833864
  74.2441395  90.1230953 117.2051763  82.4224036  88.5743062 121.0577593
  82.4042512  89.3951943 120.5657862  83.3443956  88.4497137 121.2827734
  78.8797090  86.0887192 121.9001102  79.4125427  85.3275480 121.6700410
  78.3511172  85.7960843 122.6425256  82.0466785  71.1947258 117.4294743
  81.7031055  72.0848899 117.3533854  82.4145748  71.0048915 116.5664328
  70.1152636  83.5180788 110.2483345  70.9527858  83.9277796 110.0317053
  70.2930904  82.5780230 110.2183539  82.0117068  81.1855869 105.9367178
  81.4963692  81.9560473 106.1755566  81.7394377  80.5121005 106.5600240
  79.5964179  76.0305569 110.9952417  78.7405775  75.6412420 110.8158055
  80.0091131  76.1097530 110.1352202  81.1263326  73.5651913 115.3943977
  80.6228121  73.5282048 114.5811782  81.4193933  74.4744655 115.4540633
  77.3706212  73.6490642 114.4010158  78.2359208  73.4533451 114.0416048
  77.4383721  73.4200994 115.3279515  81.8003371  79.0582961 107.7626960
  81.4953507  79.3729110 108.6137103  82.7533813  79.1364381 107.8054293
  80.2449803  85.2173184 109.4119914  79.7171165  84.4825944 109.0993151
  79.7437306  85.9947860 109.1659882  85.2242649  83.4122205 114.5286960
  84.5666324  84.1021466 114.6167088  86.0283048  83.8018636 114.8720946
  74.9768531  75.8792850 111.7726525  75.5512283  75.6568032 111.0399718
  75.5639513  75.9481545 112.5255126  84.0348108  81.7666577 112.5790902
  84.5479990  82.3996569 113.0812611  84.6849332  81.1667773 112.2134262
  75.3038118  77.9097311 105.7922410  74.4675430  78.2471998 106.1131685
  75.1642887  77.7746291 104.8549547  77.2791198  72.7534099 110.5001595
  76.6255611  72.4383116 109.8758209  77.2371673  72.1309840 111.2261417
  78.3902403  83.0353394 102.4154887  77.4829465  82.8042648 102.6146036
  78.8873435  82.2391014 102.6028868  80.5128939  79.2416033 114.8249242
  79.5951500  79.4630980 114.6670930  80.9289082  79.3162343 113.9660949
  81.2963987  80.6407448 109.9551922  82.0435806  81.1528846 109.6459044
  81.5655576  80.3191501 110.8156316  79.5690637  83.1365989 106.9378877
  78.6601856  82.8525022 107.0351346  79.5985721  83.5565068 106.0782184
  83.7442824  77.6764565 111.9370712  83.0065581  77.1641951 112.2680954
  83.9969597  77.2364946 111.1253989  83.8454451  70.4540817 112.5312481
  84.1513328  69.5938180 112.2438396  84.5707056  71.0458437 112.3311475
  70.1378807  80.8571503 110.9194079  69.9403207  80.2640864 110.1945145
  69.5825471  80.5523713 111.6370018  78.1175531  80.7494610 113.0388672
  78.1724141  79.7968446 112.9631149  77.3066733  80.9054049 113.5229970
  79.2666725  84.6774733 104.2766955  78.8286154  83.9610592 103.8172593
  80.0077165  84.9050848 103.7152047  76.0567891  79.3671670 110.7979051
  75.2435756  79.6665840 111.2044243  76.5526885  78.9727358 111.5153533
  78.2076469  89.3629426 112.7313316  78.1652647  89.5890273 111.8021848
  79.1239167  89.1292801 112.8799117  81.6542102  79.8313494 119.6293945
  82.0091490  80.0584967 120.4888411  82.3014234  80.1631871 119.0071200
  87.3839839  82.9531930 110.3343274  87.2457738  83.1433526 109.4064463
  87.0276058  83.7151313 110.7911325  75.5481965  76.9390025 116.4140286
  76.1881345  76.7978784 115.7163249  74.7159496  76.6524538 116.0378888
  87.4109219  85.0208457 115.3454545  87.8445726  84.9283746 116.1937599
  88.1240800  84.9965957 114.7074561  76.3242269  86.2392455 112.5275278
  77.1182868  85.7442776 112.3257853  75.6133962  85.7110319 112.1642984
  81.1437114  88.6210551 116.8787646  81.1974136  89.1901487 117.6465362
  80.2751895  88.7912436 116.5141683  72.6325033  80.3835537 108.6035031
  71.7022621  80.3219993 108.8204993  72.7282505  79.8611490 107.8071672
  72.5510582  76.9090350 111.1913273  72.8117399  77.8235683 111.0822433
  73.3727754  76.4414793 111.3409885  74.0235507  78.3228107 118.3612097
  74.6958561  78.1145469 117.7124746  73.1965294  78.1250193 117.9217329
  88.2724768  85.0632158 117.8787431  88.4660659  85.9677968 118.1246706
  88.1725387  84.6039577 118.7126016  79.9261079  74.9490048 120.3777758
  79.2788994  75.6479998 120.2842234  80.6962095  75.3826192 120.7454006
  83.3339877  85.2138900 123.4528311  83.1825384  84.9849452 122.5358395
  83.3244557  86.1709502 123.4659656  80.1025214  82.7870813 118.4374578
  81.0317274  82.9381973 118.2643545  79.6816244  82.8754834 117.5823224
  78.9013545  86.8121477 116.2073115  78.7624631  86.4440262 117.0799054
  78.1128142  87.3269117 116.0357073  79.4961697  91.9130574 107.5498652
  79.6713453  91.4418617 108.3644275  78.8094485  92.5396340 107.7779913
  80.4518761  86.1903080 113.5961953  80.1168593  86.1503850 114.4919603
  79.9522706  85.5247796 113.1232363  74.4263004  81.5970710 119.1214534
  74.2882802  80.8650949 119.7226073  75.3367928  81.5079610 118.8398722
  77.0545305  81.3090670 118.6098214  77.7644924  80.6683862 118.5684832
  77.0114613  81.5603564 119.5324395  85.0432084  88.2458023 121.5304793
  84.9844630  87.5617243 120.8635376  85.4451602  88.9877013 121.0785419
  75.7674239  78.2955887 120.4293853  75.2311596  77.8446626 121.0815450
  75.1790948  78.4301796 119.6864318  74.0622783  95.0619937 114.3238512
  74.3019381  95.6938461 115.0017531  73.2191979  94.7107977 114.6103871
  75.1776498  77.7544539 102.9920317  74.3005964  77.6333340 102.6282564
  75.6534251  76.9630617 102.7399206  85.0449491  86.2097607 119.7618773
  84.1576270  85.8723529 119.8845172  85.6148042  85.4780638 119.9987538
  66.6978638  82.5421699 113.0861824  67.3849678  82.2283429 112.4982840
  66.5426767  83.4463063 112.8129076  71.5013360  77.4311895 117.5146848
  71.4171549  76.8237565 116.7797258  70.6796067  77.9220913 117.5156344
  78.5750644  90.8699059 116.7280016  78.5020816  91.6754031 117.2399321
  78.1328038  91.0691025 115.9028037  78.3640424  90.1070829 110.2382838
  77.5807946  90.6492509 110.3321062  79.0633169  90.6244809 110.6377079
  81.6737074  75.9165459 112.8817043  82.1705774  75.1635421 112.5618113
  80.9024056  75.9529775 112.3160252  89.5266832  81.6205824 114.5235335
  89.5156708  82.5030540 114.1529268  88.6584211  81.2677375 114.3289872
  81.0349328  90.7685893 118.8838175  81.7477300  91.4033358 118.8114076
  80.5439357  90.8649759 118.0678177  82.7566855  84.6737146 110.4555466
  81.8223134  84.7938608 110.2860171  82.9343523  83.7709613 110.1915476
  78.2572043  78.0582842 112.6088728  77.8869830  77.5053882 113.2969633
  78.7531135  77.4540975 112.0563728  86.1439406  80.5154465 110.9905501
  86.6099858  81.3482457 110.9165803  86.5946907  80.0499447 111.6950759
  76.0861242  88.5180337 119.7043746  76.7870701  89.1516820 119.8573140
  75.6156357  88.8595068 118.9439385  84.1156069  72.8835052 115.0296402
  83.2019149  73.1139279 115.1978609  84.5449170  72.9673496 115.8810434
  83.8862528  81.0724944 117.5296296  83.2333978  81.3200852 116.8748749
  84.2642907  80.2589082 117.1958773  80.8469701  91.1084637 111.6324466
  81.0292096  90.2906293 112.0952219  81.6702687  91.3252330 111.1949356
  81.1811867  90.0352822 108.8939515  81.7099633  89.5245277 108.2809677
  81.4440086  89.7195353 109.7585048  79.9350101  81.8144755 124.0162333
  79.2590738  81.7138884 124.6864708  80.7577734  81.6583969 124.4798330
  71.6828960  88.0516692 116.6374848  72.2682396  87.3060380 116.7702752
  71.4853798  88.3620648 117.5211512  74.5367615  91.0867939 111.6537291
  73.8677990  91.5714067 111.1701331  74.3980485  91.3337160 112.5680669
  66.2746614  80.6222292 115.3579291  66.3130714  80.0885883 116.1516409
  65.7686907  80.0957497 114.7390269  78.6772883  93.1211683 118.2519949
  79.2291191  93.2843304 119.0169034  79.0179077  93.7116120 117.5799974
  73.6537377  75.4686832 118.8541834  73.7178703  76.3301663 118.4419231
  73.5904497  74.8560834 118.1214192  73.1289649  77.5409965 122.5014868
  73.7561688  77.1587042 123.1152392  72.2717568  77.3224167 122.8670560
  83.5283758  87.9472940 124.1068603  84.0723662  88.5602898 123.6123558
  82.9470603  88.5052519 124.6235616  69.9055192  79.3486394 108.4333223
  70.2008633  78.4397072 108.3800276  69.0043228  79.3274133 108.1114225
  81.8141271  91.0693658 115.2383631  81.6892410  90.2683398 114.7294577
  82.4720362  91.5639851 114.7497601  73.4349439  77.4242391 114.4160771
  72.7136025  78.0378358 114.2768245  74.2242695  77.9600155 114.3377417
  83.8776179  88.8702678 116.8663181  82.9306515  88.7508029 116.7941508
  84.2258952  87.9825176 116.9489443  76.2375752  74.7596817 120.6901423
  76.7610154  75.0059114 121.4527732  76.0188086  75.5916852 120.2704560
  71.6343033  77.0300492 108.5572548  71.3055740  76.1497871 108.3747654
  71.9882404  76.9748160 109.4448937  80.8822612  88.6655394 113.0667533
  80.7347575  87.7372102 113.2475104  81.7076106  88.6875485 112.5824609
  74.7484857  77.3173461 108.9248026  75.0880929  77.8459383 108.2026634
  75.1956977  77.6553868 109.7006592  84.4856734  89.4883953 114.1532406
  85.4103282  89.2826814 114.0156857  84.3172038  89.2400354 115.0621748
  77.4428297  75.7010512 118.3751094  77.1025118  74.9018325 118.7771774
  76.7367304  76.0012223 117.8027927  78.0944769  72.7859825 116.8278417
  78.9170839  72.3120303 116.7057307  78.3382833  73.5650308 117.3277103
  76.7353004  75.8148083 107.1241318  77.4561366  76.1929336 106.6205035
  76.1118308  76.5336960 107.2276296  80.8784127  76.5193232 108.0599651
  81.0947741  77.4017870 107.7588479  80.3978194  76.1279445 107.3305293
  75.6183348  79.4778945 114.6370395  75.4727929  79.7919248 115.5294677
  75.1408552  80.0963846 114.0841294  77.4779731  76.4681493 114.6851285
  77.4641300  75.5722587 114.3483583  78.1952159  76.4752157 115.3189571
  79.3305862  76.9018833 116.7304412  79.0723639  77.8235904 116.7288743
  78.7990902  76.5049268 117.4204876  70.0929010  82.0184290 117.5758056
  69.5482478  82.7944098 117.7078331  70.9708360  82.3655094 117.4177178
  76.8816627  75.3495874 109.9538855  77.0032538  74.4212520 110.1529742
  76.5918669  75.3634560 109.0417170  79.7507817  73.0350784 113.0905575
  79.7729514  73.0990117 112.1357554  80.1675876  72.1955293 113.2846081
  90.1291442  82.7706044 111.1284797  90.5722588  82.0213369 110.7303921
  89.2517952  82.7616180 110.7458529  70.8795032  81.1454186 120.4688213
  70.1376768  81.2936821 121.0552844  70.5587776  81.4062452 119.6054963
  78.8238695  90.6870164 120.2668603  79.1325821  90.4419311 121.1391303
  79.6214177  90.8916803 119.7787474  78.8459307  92.8408074 112.4973980
  78.4064297  92.3484452 113.1906837  79.5967424  92.2981041 112.2566055
  71.3251646  89.0319615 112.4998608  72.1509666  88.7323387 112.1197252
  70.9745698  88.2627237 112.9488397  76.2933179  88.3846083 114.5696282
  75.6713188  87.7216788 114.2698509  76.9638046  88.4107215 113.8869929
  69.5260251  86.9505941 113.4587542  68.6892159  86.5228115 113.2771543
  69.4983896  87.1438384 114.3958333  76.3657706  76.8627871 124.1628788
  76.4145862  77.7389994 123.7806557  76.9080221  76.3205264 123.5900431
  86.8512552  87.4068994 123.4429925  86.0608096  87.3893133 122.9034424
  86.6145907  87.9457288 124.1978961  86.9710427  84.2561461 120.7562653
  87.0208432  84.0911468 121.6978176  86.8624350  83.3888720 120.3660534
  75.8546686  86.9350006 108.0454742  76.0034806  87.6185471 107.3921415
  76.6613129  86.9155096 108.5604198  84.2614190  80.2392389 122.0721960
  85.1624052  80.0998853 121.7805958  84.3362164  80.4046843 123.0120137
  78.5956995  77.6159243 120.9175146  77.7260304  77.9092809 120.6457735
  78.8316475  78.1999688 121.6382410  88.4728624  86.6758402 121.0004675
  88.1813432  87.0388383 121.8368136  87.8600755  85.9625410 120.8218007
  89.6724306  84.2411282 113.5207245  90.5071198  84.6801086 113.6844805
  89.8083435  83.7649935 112.7015491  86.7215812  81.7991017 119.4684733
  87.1969934  81.9918663 118.6603584  85.7981378  81.8550203 119.2228116
  73.6099319  82.9615184 109.0515811  73.3645361  82.0577514 109.2496021
  73.7795233  82.9632334 108.1095289  81.2996029  73.8338860 118.4340567
  81.8177973  74.5699887 118.1087055  80.9451161  74.1402854 119.2687326
  72.8794966  78.6943541 106.5501972  72.1864211  78.7687896 105.8942008
  72.6346718  77.9303885 107.0723489  81.5508623  70.2539143 113.9541463
  81.8310377  69.5862332 114.5801890  82.3359230  70.4468238 113.4416127
  85.4217481  78.6756777 117.7013038  86.3734904  78.7754874 117.7225262
  85.2520932  77.8835045 118.2111123  83.4431861  75.7612360 117.8872439
  82.8481793  76.0417373 117.1918928  83.1581557  76.2506261 118.6589180
  87.9005559  81.8962896 116.8155338  87.8681879  80.9578897 117.0015022
  88.5106183  81.9746933 116.0821163  79.7388890  80.7658949 102.8582542
  80.6847995  80.6365158 102.9270960  79.3603135  80.0273611 103.3351970
  88.0500047  78.6873940 116.8613621  87.5339096  77.9032397 116.6743550
  88.9339996  78.3592657 117.0260141  85.7110774  72.4314955 112.8209434
  85.5135596  72.1230044 113.7052766  86.3210480  73.1576594 112.9507364
  93.7182109  82.9578903 115.9561375  94.4485497  82.6964191 116.5169078
  93.1089054  82.2207625 115.9963443  91.7997406  81.0986766 116.5535826
  91.0730570  80.9642731 115.9452318  91.3844693  81.4063594 117.3592544
  79.6227582  84.8176696 124.3183199  80.5430592  84.9955295 124.5123246
  79.5877165  83.8732741 124.1662898  77.9231807  78.6908926 102.7937427
  77.0163262  78.3942039 102.8700141  78.2007788  78.3938744 101.9271714
  68.8409747  80.0115289 113.2436474  68.5212532  79.1580597 112.9510848
  68.2943176  80.2263867 113.9994441  72.6189655  82.7277730 116.9605980
  72.8375665  83.6594838 116.9794014  73.0315429  82.3685705 117.7460784
  79.5393873  73.2345816 108.9481669  78.7294601  72.8892901 109.3236915
  80.2278290  72.9253359 109.5369280  81.4684421  72.3123862 110.5705965
  82.0215460  72.7319316 111.2295988  81.7054507  71.3859610 110.6128921
  77.4917520  78.3010936 126.3508729  77.3914247  79.2505293 126.2820820
  77.2739062  77.9729175 125.4784799  76.6930592  75.5495861 102.9349406
  77.5549756  75.8750759 103.1945224  76.8780936  74.7627357 102.4222472
  68.7098007  83.6318201 115.2129595  68.0161479  83.2172154 114.6999550
  69.4570998  83.6738737 114.6163014  84.8463228  74.4224387 110.0784629
  84.2661897  75.0809192 109.6962682  84.5799161  73.6001732 109.6672047
  83.2966794  73.8229445 112.2805950  83.7966573  73.9345980 111.4720269
  83.9402402  73.5190498 112.9206758  77.3548790  81.7308075 125.1673791
  76.8715872  82.5308435 125.3737680  77.4409729  81.7416020 124.2141235
  70.6234750  83.5636455 113.0895610  70.6005438  83.6624142 112.1377493
  70.9335386  84.4101605 113.4112776  73.2822128  85.6212610 117.2042225
  74.2365381  85.5896552 117.1372156  73.0834651  85.1603233 118.0192450
  73.8721510  84.1913726 119.7713022  74.6914399  84.6857804 119.7947859
  74.1458318  83.2745694 119.7430590  83.6288106  76.5824478 109.1340978
  82.7413961  76.8674129 108.9161172  84.0442095  76.4218241 108.2868255
  86.9802642  76.6070999 112.8495317  87.7563032  77.0967451 113.1219934
  86.2550776  77.0329053 113.3067186  89.4175201  77.3198618 113.9069258
  90.0119692  77.0794354 113.1962566  89.4901785  76.6005749 114.5342794
  71.6372357  91.1632229 114.2212422  71.5026825  90.4032630 113.6550420
  71.2204419  91.8873129 113.7541211  83.6029130  82.0979014 109.3491268
  83.5464331  82.5547565 108.5098900  84.1557472  81.3369698 109.1714111
  87.4133936  77.8868746 110.1741387  87.1570870  77.4865381 111.0049595
  86.7886804  78.6012540 110.0491527  91.7246274  80.6264819 112.6812679
  91.1645832  80.6958008 113.4544241  91.1189777  80.4505804 111.9612175
  74.7941482  92.0601546 114.4330865  74.6773867  93.0046979 114.3309555
  73.9733929  91.7575108 114.8216664  84.3363909  83.2883795 106.6443797
  84.2812713  83.1228066 105.7032241  83.7109964  83.9959828 106.8005987
  69.1256424  78.5251859 120.4705219  69.7715288  78.0150813 120.9592444
  68.9173575  79.2620541 121.0448645  81.6509816  85.5932707 125.9697360
  82.5200976  85.7673359 125.6083995  81.1716568  86.4127124 125.8473089
  77.6460035  72.7891904 106.2229115  77.6338704  73.7333744 106.3797386
  78.5383457  72.6062049 105.9288577  75.8195997  92.7129808 117.6486793
  76.7223243  92.7453418 117.9653288  75.5933367  91.7830259 117.6633129
  77.5749599  91.4660794 114.3096872  76.6245230  91.4662656 114.1961244
  77.8782085  90.7193529 113.7932907  81.4612154  69.3834681 110.4775052
  80.6944550  68.8293167 110.6231735  81.8722859  69.4556549 111.3389204
  73.4653915  75.6719477 124.5680234  74.3285377  75.3156281 124.7783558
  72.8919326  75.3333371 125.2555638  90.6011781  98.4083613 121.2690365
  90.5900422  98.0136411 120.3970868  90.7632421  97.6749685 121.8624136
  83.5243246 100.6035429 114.1385271  84.3164538 100.2626254 113.7231570
  83.7639896 100.7130404 115.0587424  87.3219043 101.1920724 120.2169549
  87.0308908 102.0966355 120.1016215  87.9576027 101.2337252 120.9313618
  88.2475249  98.5697573 116.8070908  88.8438822  98.3453595 116.0927871
  88.3050221  97.8282318 117.4096356  95.7877408  88.6769594 117.8123430
  95.4560733  89.5465005 117.5884645  95.1923021  88.3605878 118.4917460
  92.2808928 100.8782140 117.2119342  91.9809651 101.7807179 117.1035150
  91.9359987 100.6114323 118.0640495  85.7321409  97.3295937 113.2456047
  84.8071906  97.1972151 113.4533739  85.9805822  98.1090156 113.7425989
  83.0930220  96.9729210 114.0799836  83.2222601  97.2263689 114.9939248
  82.4127671  97.5656918 113.7604491  89.7546937  94.8154326 122.8351677
  88.9780271  95.3748246 122.8254542  90.3937500  95.3011109 123.3566547
  88.0093309  97.6239779 122.3969644  88.7507994  98.1624823 122.1204468
  87.3030295  98.2506068 122.5541196  93.4848649  99.7668920 120.9941805
  93.8932005  99.3251330 120.2496438  92.7625911  99.1921547 121.2475998
  89.8379719  94.7041526 118.3675362  90.6840914  95.1280940 118.5110011
  89.7778357  94.0475151 119.0613926  92.9879164  92.3645895 120.0256536
  92.7440096  93.1187955 119.4890812  93.2639095  92.7431242 120.8603783
  94.9417627  98.9084507 118.7033802  95.1534522  99.5516267 118.0268183
  94.8947376  98.0746824 118.2355732  86.7454673  94.7779427 123.1984954
  86.1153334  95.4595708 123.4320351  86.6390761  94.6662509 122.2538092
  82.0399646  94.4451223 114.1250878  81.2498700  94.7008752 113.6490989
  82.5310893  95.2599561 114.2302919  96.0563455 101.7856463 116.8756159
  96.8780899 101.3836650 116.5938841  96.0525858 101.6824697 117.8272275
  83.9914391  94.8095803 111.0834355  83.1945554  94.9214497 111.6017851
  83.7639983  95.1482455 110.2175245  89.8220059 101.3340506 119.0316869
  89.8864491 101.7960913 119.8675041  89.1130983 100.7037871 119.1599179
  80.3237349  94.6981714 116.5565869  80.5745387  95.5828724 116.8223445
  80.8596897  94.5186315 115.7840961 104.1469448  98.1295211 113.2241130
 103.3933157  97.5602609 113.0685135 104.2816989  98.0957876 114.1711765
  86.0235416  89.0800193 125.5610205  85.6302362  88.5266392 126.2357849
  86.8401556  89.3910772 125.9516723  88.9403377  90.4958072 123.1530462
  89.6813090  91.0965225 123.0734924  89.1721300  89.7535710 122.5948504
  84.0844715  95.6814440 121.4308691  83.9698230  94.7799697 121.7315790
  83.2289233  95.9278136 121.0793508  91.1636553 103.6232180 123.0296192
  90.7200407 102.8368558 122.7117096  91.8253766 103.8111330 122.3640083
  93.2617791 103.9034980 121.0577593  93.2436266 104.7243861 120.5657862
  94.1837711 103.7789055 121.2827734  89.7190845 101.4179109 121.9001102
  90.2519182 100.6567397 121.6700410  89.1904926 101.1252761 122.6425256
  92.8860540  86.5239175 117.4294743  92.5424809  87.4140817 117.3533854
  93.2539502  86.3340833 116.5664328  88.2099966  88.9782560 114.4010158
  89.0752963  88.7825369 114.0416048  88.2777475  88.7492912 115.3279515
  91.3522693  94.5707950 114.8249242  90.4345255  94.7922897 114.6670930
  91.7682837  94.6454261 113.9660949  94.6848206  85.7832734 112.5312481
  94.9907082  84.9230098 112.2438396  95.4100810  86.3750355 112.3311475
  80.9772562  96.1863421 110.9194079  80.7796961  95.5932782 110.1945145
  80.4219226  95.8815631 111.6370018  86.8961645  94.6963587 110.7979051
  86.0829511  94.9957758 111.2044243  87.3920639  94.3019276 111.5153533
  92.4935857  95.1605412 119.6293945  92.8485245  95.3876885 120.4888411
  93.1407988  95.4923788 119.0071200  86.3875720  92.2681943 116.4140286
  87.0275099  92.1270702 115.7163249  85.5553250  91.9816456 116.0378888
  83.3904336  92.2382268 111.1913273  83.6511154  93.1527601 111.0822433
  84.2121509  91.7706710 111.3409885  84.8629262  93.6520025 118.3612097
  85.5352315  93.4437387 117.7124746  84.0359048  93.4542111 117.9217329
  99.1118523 100.3924075 117.8787431  99.3054413 101.2969886 118.1246706
  99.0119141  99.9331494 118.7126016  90.7654834  90.2781966 120.3777758
  90.1182749  90.9771915 120.2842234  91.5355849  90.7118110 120.7454006
  94.1733632 100.5430818 123.4528311  94.0219138 100.3141370 122.5358395
  94.1638311 101.5001419 123.4659656  90.9418968  98.1162731 118.4374578
  91.8711028  98.2673890 118.2643545  90.5209998  98.2046752 117.5823224
  85.2656759  96.9262628 119.1214534  85.1276557  96.1942867 119.7226073
  86.1761682  96.8371528 118.8398722  87.8939060  96.6382587 118.6098214
  88.6038678  95.9975779 118.5684832  87.8508368  96.8895482 119.5324395
  95.8825838 103.5749941 121.5304793  95.8238384 102.8909161 120.8635376
  96.2845357 104.3168931 121.0785419  86.6067994  93.6247805 120.4293853
  86.0705351  93.1738544 121.0815450  86.0184702  93.7593714 119.6864318
  84.9016537 110.3911854 114.3238512  85.1413135 111.0230379 115.0017531
  84.0585734 110.0399894 114.6103871  95.8843246 101.5389524 119.7618773
  94.9970024 101.2015446 119.8845172  96.4541797 100.8072556 119.9987538
  77.5372393  97.8713616 113.0861824  78.2243433  97.5575346 112.4982840
  77.3820521  98.7754981 112.8129076  82.3407115  92.7603813 117.5146848
  82.2565304  92.1529482 116.7797258  81.5189821  93.2512831 117.5156344
 100.3660586  96.9497742 114.5235335 100.3550462  97.8322457 114.1529268
  99.4977966  96.5969293 114.3289872  91.8743082 106.0977811 118.8838175
  92.5871055 106.7325276 118.8114076  91.3833111 106.1941677 118.0678177
  89.0965797  93.3874759 112.6088728  88.7263585  92.8345800 113.2969633
  89.5924890  92.7832893 112.0563728  86.9254996 103.8472254 119.7043746
  87.6264456 104.4808737 119.8573140  86.4550111 104.1886986 118.9439385
  94.7256282  96.4016862 117.5296296  94.0727732  96.6492769 116.8748749
  95.1036662  95.5881000 117.1958773  90.7743855  97.1436673 124.0162333
  90.0984492  97.0430802 124.6864708  91.5971489  96.9875887 124.4798330
  82.5222714 103.3808609 116.6374848  83.1076151 102.6352297 116.7702752
  82.3247553 103.6912566 117.5211512  77.1140369  95.9514210 115.3579291
  77.1524468  95.4177800 116.1516409  76.6080662  95.4249415 114.7390269
  89.5166638 108.4503600 118.2519949  90.0684946 108.6135222 119.0169034
  89.8572831 109.0408038 117.5799974  84.4931131  90.7978750 118.8541834
  84.5572458  91.6593581 118.4419231  84.4298251  90.1852752 118.1214192
  83.9683404  92.8701883 122.5014868  84.5955442  92.4878960 123.1152392
  83.1111323  92.6516085 122.8670560  94.3677512 103.2764858 124.1068603
  94.9117416 103.8894816 123.6123558  93.7864357 103.8344436 124.6235616
  80.7448946  94.6778312 108.4333223  81.0402387  93.7688990 108.3800276
  79.8436982  94.6566051 108.1114225  84.2743193  92.7534308 114.4160771
  83.5529779  93.3670276 114.2768245  85.0636449  93.2892073 114.3377417
  94.7169934 104.1994596 116.8663181  93.7700269 104.0799947 116.7941508
  95.0652707 103.3117094 116.9489443  87.0769507  90.0888735 120.6901423
  87.6003909  90.3351031 121.4527732  86.8581840  90.9208770 120.2704560
  88.2822052  91.0302430 118.3751094  87.9418872  90.2310243 118.7771774
  87.5761058  91.3304141 117.8027927  88.9338524  88.1151742 116.8278417
  89.7564593  87.6412221 116.7057307  89.1776587  88.8942226 117.3277103
  86.4577103  94.8070863 114.6370395  86.3121683  95.1211166 115.5294677
  85.9802306  95.4255763 114.0841294  88.3173485  91.7973411 114.6851285
  88.3035054  90.9014504 114.3483583  89.0345914  91.8044075 115.3189571
  90.1699616  92.2310751 116.7304412  89.9117394  93.1527822 116.7288743
  89.6384657  91.8341186 117.4204876  80.9322765  97.3476207 117.5758056
  80.3876233  98.1236015 117.7078331  81.8102115  97.6947012 117.4177178
  90.5901572  88.3642702 113.0905575  90.6123269  88.4282035 112.1357554
  91.0069631  87.5247210 113.2846081  81.7188787  96.4746104 120.4688213
  80.9770523  96.6228739 121.0552844  81.3981531  96.7354369 119.6054963
  89.6632449 106.0162082 120.2668603  89.9719576 105.7711229 121.1391303
  90.4607931 106.2208720 119.7787474  87.2051461  92.1919789 124.1628788
  87.2539616  93.0681911 123.7806557  87.7473975  91.6497182 123.5900431
  97.6906307 102.7360912 123.4429925  96.9001850 102.7185051 122.9034424
  97.4539661 103.2749206 124.1978961  97.8104182  99.5853378 120.7562653
  97.8602187  99.4203386 121.6978176  97.7018105  98.7180637 120.3660534
  95.1007944  95.5684306 122.0721960  96.0017807  95.4290771 121.7805958
  95.1755919  95.7338761 123.0120137  89.4350749  92.9451161 120.9175146
  88.5654059  93.2384727 120.6457735  89.6710230  93.5291606 121.6382410
  99.3122378 102.0050320 121.0004675  99.0207187 102.3680300 121.8368136
  98.6994510 101.2917328 120.8218007 100.5118061  99.5703200 113.5207245
 101.3464952 100.0093004 113.6844805 100.6477190  99.0941853 112.7015491
  97.5609567  97.1282934 119.4684733  98.0363688  97.3210581 118.6603584
  96.6375132  97.1842120 119.2228116  92.1389783  89.1630778 118.4340567
  92.6571727  89.8991805 118.1087055  91.7844916  89.4694771 119.2687326
  92.3902377  85.5831060 113.9541463  92.6704131  84.9154250 114.5801890
  93.1752984  85.7760156 113.4416127  96.2611236  94.0048694 117.7013038
  97.2128659  94.1046792 117.7225262  96.0914686  93.2126963 118.2111123
  94.2825615  91.0904278 117.8872439  93.6875547  91.3709290 117.1918928
  93.9975312  91.5798179 118.6589180  98.7399313  97.2254814 116.8155338
  98.7075634  96.2870815 117.0015022  99.3499937  97.3038851 116.0821163
 104.5575863  98.2870821 115.9561375 105.2879252  98.0256109 116.5169078
 103.9482809  97.5499543 115.9963443  90.4621337 100.1468613 124.3183199
  91.3824346 100.3247212 124.5123246  90.4270920  99.2024659 124.1662898
  79.6803502  95.3407207 113.2436474  79.3606286  94.4872515 112.9510848
  79.1336930  95.5555785 113.9994441  83.4583409  98.0569648 116.9605980
  83.6769419  98.9886756 116.9794014  83.8709183  97.6977622 117.7460784
  88.3311275  93.6302854 126.3508729  88.2308002  94.5797211 126.2820820
  88.1132817  93.3021093 125.4784799  79.5491762  98.9610118 115.2129595
  78.8555233  98.5464071 114.6999550  80.2964753  99.0030655 114.6163014
  88.1942545  97.0599993 125.1673791  87.7109627  97.8600353 125.3737680
  88.2803484  97.0707937 124.2141235  81.4628504  98.8928372 113.0895610
  81.4399193  98.9916059 112.1377493  81.7729141  99.7393523 113.4112776
  84.1215882 100.9504527 117.2042225  85.0759136 100.9188470 117.1372156
  83.9228406 100.4895151 118.0192450  84.7115264  99.5205643 119.7713022
  85.5308153 100.0149722 119.7947859  84.9852072  98.6037611 119.7430590
  85.6335237 107.3893464 114.4330865  85.5167621 108.3338896 114.3309555
  84.8127683 107.0867025 114.8216664  79.9650179  93.8543777 120.4705219
  80.6109042  93.3442731 120.9592444  79.7567330  94.5912459 121.0448645
  92.4903571 100.9224625 125.9697360  93.3594730 101.0965277 125.6083995
  92.0110322 101.7419041 125.8473089  86.6589751 108.0421726 117.6486793
  87.5616998 108.0745336 117.9653288  86.4327121 107.1122177 117.6633129
  92.3005909  84.7126598 110.4775052  91.5338304  84.1585085 110.6231735
  92.7116614  84.7848467 111.3389204  84.3047670  91.0011394 124.5680234
  85.1679131  90.6448199 124.7783558  83.7313080  90.6625289 125.2555638
 101.4405536 113.7375530 121.2690365 101.4294177 113.3428329 120.3970868
 101.6026175 113.0041603 121.8624136  94.3637000 115.9327347 114.1385271
  95.1558292 115.5918171 113.7231570  94.6033651 116.0422322 115.0587424
 102.3972127 118.1047123 106.6115515 101.7460107 118.6901203 106.2249529
 103.1916490 118.6353318 106.6710553  98.1612797 116.5212642 120.2169549
  97.8702663 117.4258273 120.1016215  98.7969781 116.5629170 120.9313618
  99.0869004 113.8989491 116.8070908  99.6832576 113.6745513 116.0927871
  99.1443975 113.1574236 117.4096356 103.8747392 115.7937555 107.1484499
 103.2393225 115.8672181 107.8605404 103.5444799 116.3831154 106.4703579
 109.1045742 110.2939938 113.3528821 109.8370914 109.7239154 113.5866651
 108.3485098 109.9061538 113.7935327 106.6271163 104.0061512 117.8123430
 106.2954487 104.8756923 117.5884645 106.0316776 103.6897796 118.4917460
 103.1202682 116.2074058 117.2119342 102.8203405 117.1099096 117.1035150
 102.7753742 115.9406241 118.0640495  96.5715164 112.6587855 113.2456047
  95.6465660 112.5264069 113.4533739  96.8199577 113.4382074 113.7425989
 106.5199826 108.7256598 114.8916780 105.6116703 108.6572006 114.5975541
 106.4687422 109.2028543 115.7198605  93.9323975 112.3021128 114.0799836
  94.0616356 112.5555607 114.9939248  93.2521426 112.8948836 113.7604491
  98.1023462 122.9718378 110.1790310  98.0247492 123.9226203 110.2578791
  97.4985105 122.6264251 110.8365236 100.5940692 110.1446243 122.8351677
  99.8174026 110.7040164 122.8254542 101.2331255 110.6303026 123.3566547
 108.3861472 106.9273036 116.6694654 107.7435853 107.2205569 116.0234448
 107.8816401 106.8125957 117.4747850  98.8487064 112.9531697 122.3969644
  99.5901748 113.4916741 122.1204468  98.1424049 113.5797986 122.5541196
 104.3242404 115.0960837 120.9941805 104.7325760 114.6543248 120.2496438
 103.6019665 114.5213465 121.2475998 100.6773474 110.0333444 118.3675362
 101.5234669 110.4572858 118.5110011 100.6172111 109.3767068 119.0613926
 104.6471218 115.6562028 114.7494094 104.0180081 115.8207742 114.0470162
 104.2596880 116.0703637 115.5205058 108.5260450 116.5916466 112.1038458
 107.8411488 116.9715367 111.5535491 108.6104299 117.2011792 112.8370406
 103.8272919 107.6937812 120.0256536 103.5833851 108.4479873 119.4890812
 104.1032849 108.0723160 120.8603783 105.7811382 114.2376425 118.7033802
 105.9928277 114.8808185 118.0268183 105.7341130 113.4038741 118.2355732
 100.1999180 115.3936436 112.0144179 100.6637526 115.6724139 111.2248802
  99.9355978 114.4919881 111.8317270  97.0923261 114.9407918 114.9523943
  97.6624618 115.3695186 114.3141427  97.6831373 114.6590502 115.6508128
  97.5848428 110.1071345 123.1984954  96.9547088 110.7887626 123.4320351
  97.4784516 109.9954427 122.2538092  92.8793400 109.7743141 114.1250878
  92.0892454 110.0300670 113.6490989  93.3704648 110.5891479 114.2302919
 106.8957210 117.1148380 116.8756159 107.7174653 116.7128567 116.5938841
 106.8919613 117.0116614 117.8272275 100.6613813 116.6632424 119.0316869
 100.7258246 117.1252831 119.8675041  99.9524737 116.0329788 119.1599179
  91.1631103 110.0273631 116.5565869  91.4139142 110.9120641 116.8223445
  91.6990652 109.8478233 115.7840961 114.9863203 113.4587129 113.2241130
 114.2326911 112.8894527 113.0685135 115.1210744 113.4249793 114.1711765
 100.3761831 118.3300531 108.8995850 100.2407506 119.1752067 109.3280698
 100.9171643 118.5319809 108.1361784  96.8629170 104.4092111 125.5610205
  96.4696116 103.8558309 126.2357849  97.6795311 104.7202689 125.9516723
  95.6386113 118.9641725 111.5546528  95.8152741 119.8859690 111.3667512
  96.4342946 118.6500145 111.9840908  99.7797131 105.8249990 123.1530462
 100.5206845 106.4257143 123.0734924 100.0115054 105.0827628 122.5948504
  94.9238469 111.0106357 121.4308691  94.8091985 110.1091614 121.7315790
  94.0682987 111.2570054 121.0793508 102.0030307 118.9524098 123.0296192
 101.5594161 118.1660476 122.7117096 102.6647521 119.1403248 122.3640083
  96.7617428 120.4819899 117.5556870  97.3124853 120.3536962 116.7833864
  95.9228904 120.7814788 117.2051763 104.1011545 119.2326897 121.0577593
 104.0830021 120.0535778 120.5657862 105.0231465 119.1080973 121.2827734
 100.5584599 116.7471027 121.9001102 101.0912936 115.9859315 121.6700410
 100.0298680 116.4544679 122.6425256 103.7254294 101.8531093 117.4294743
 103.3818564 102.7432735 117.3533854 104.0933257 101.6632751 116.5664328
  91.7940145 114.1764623 110.2483345  92.6315367 114.5861632 110.0317053
  91.9718413 113.2364065 110.2183539 102.8050835 104.2235748 115.3943977
 102.3015630 104.1865883 114.5811782 103.0981442 105.1328491 115.4540633
 101.9237312 115.8757019 109.4119914 101.3958674 115.1409779 109.0993151
 101.4224815 116.6531696 109.1659882 106.9030158 114.0706040 114.5286960
 106.2453833 114.7605301 114.6167088 107.7070557 114.4602472 114.8720946
 105.7135617 112.4250413 112.5790902 106.2267499 113.0580404 113.0812611
 106.3636841 111.8251608 112.2134262 102.9757991 122.4034737 105.3351573
 102.3019690 122.7066434 105.9436531 103.3623813 123.2063817 104.9857030
 106.4797413 117.4056414 110.7070044 106.0259740 116.5647324 110.7635235
 105.8491380 118.0417812 111.0444824 104.9230352 119.2432911 111.6419862
 105.2153327 119.8037968 110.9232228 105.4328973 119.5361472 112.3973021
 105.5241960 101.1124652 112.5312481 105.8300837 100.2522015 112.2438396
 106.2494565 101.7042272 112.3311475  99.8863978 120.0213262 112.7313316
  99.8440156 120.2474108 111.8021848 100.8026676 119.7876636 112.8799117
 103.3329611 110.4897329 119.6293945 103.6878999 110.7168802 120.4888411
 103.9801743 110.8215706 119.0071200 109.0627348 113.6115765 110.3343274
 108.9245247 113.8017361 109.4064463 108.7063567 114.3735148 110.7911325
  97.2269474 107.5973860 116.4140286  97.8668854 107.4562619 115.7163249
  96.3947005 107.3108374 116.0378888 109.0896728 115.6792292 115.3454545
 109.5233235 115.5867581 116.1937599 109.8028309 115.6549793 114.7074561
  98.0029778 116.8976291 112.5275278  98.7970377 116.4026611 112.3257853
  97.2921471 116.3694154 112.1642984 102.8224623 119.2794386 116.8787646
 102.8761645 119.8485323 117.6465362 101.9539404 119.4496271 116.5141683
  94.2298091 107.5674185 111.1913273  94.4904908 108.4819519 111.0822433
  95.0515263 107.0998628 111.3409885  95.7023016 108.9811943 118.3612097
  96.3746070 108.7729305 117.7124746  94.8752803 108.7834029 117.9217329
 109.9512277 115.7215993 117.8787431 110.1448168 116.6261803 118.1246706
 109.8512896 115.2623412 118.7126016 101.6048588 105.6073883 120.3777758
 100.9576503 106.3063833 120.2842234 102.3749604 106.0410027 120.7454006
 105.0127386 115.8722736 123.4528311 104.8612893 115.6433287 122.5358395
 105.0032066 116.8293337 123.4659656 101.7812723 113.4454648 118.4374578
 102.7104783 113.5965808 118.2643545 101.3603753 113.5338669 117.5823224
 100.5801054 117.4705313 116.2073115 100.4412140 117.1024097 117.0799054
  99.7915651 117.9852952 116.0357073 101.1749206 122.5714409 107.5498652
 101.3500962 122.1002452 108.3644275 100.4881994 123.1980175 107.7779913
 102.1306269 116.8486915 113.5961953 101.7956102 116.8087685 114.4919603
 101.6310215 116.1831631 113.1232363  96.1050513 112.2554546 119.1214534
  95.9670311 111.5234784 119.7226073  97.0155437 112.1663446 118.8398722
  98.7332814 111.9674505 118.6098214  99.4432433 111.3267697 118.5684832
  98.6902122 112.2187400 119.5324395 106.7219593 118.9041858 121.5304793
 106.6632139 118.2201078 120.8635376 107.1239111 119.6460848 121.0785419
  97.4461748 108.9539723 120.4293853  96.9099105 108.5030461 121.0815450
  96.8578457 109.0885632 119.6864318 106.7237000 116.8681442 119.7618773
 105.8363779 116.5307364 119.8845172 107.2935551 116.1364473 119.9987538
  88.3766147 113.2005534 113.0861824  89.0637187 112.8867264 112.4982840
  88.2214276 114.1046899 112.8129076  93.1800869 108.0895730 117.5146848
  93.0959058 107.4821400 116.7797258  92.3583576 108.5804749 117.5156344
 100.2538153 121.5282894 116.7280016 100.1808325 122.3337866 117.2399321
  99.8115547 121.7274860 115.9028037 100.0427933 120.7654665 110.2382838
  99.2595455 121.3076345 110.3321062 100.7420678 121.2828644 110.6377079
 111.2054341 112.2789659 114.5235335 111.1944217 113.1614375 114.1529268
 110.3371720 111.9261210 114.3289872 102.7136837 121.4269729 118.8838175
 103.4264809 122.0617193 118.8114076 102.2226866 121.5233595 118.0678177
 104.4354364 115.3320981 110.4555466 103.5010643 115.4522444 110.2860171
 104.6131032 114.4293448 110.1915476 107.8226915 111.1738300 110.9905501
 108.2887367 112.0066292 110.9165803 108.2734416 110.7083282 111.6950759
  97.7648751 119.1764172 119.7043746  98.4658210 119.8100655 119.8573140
  97.2943866 119.5178904 118.9439385 105.8903146 117.5182122 107.9891653
 106.1662990 117.4038716 108.8985527 105.0207645 117.1199607 107.9503826
 105.7943578 103.5418887 115.0296402 104.8806658 103.7723114 115.1978609
 106.2236679 103.6257332 115.8810434 105.5650036 111.7308779 117.5296296
 104.9121487 111.9784687 116.8748749 105.9430416 110.9172918 117.1958773
 102.5257210 121.7668473 111.6324466 102.7079605 120.9490129 112.0952219
 103.3490196 121.9836165 111.1949356 102.8599376 120.6936658 108.8939515
 103.3887142 120.1829112 108.2809677 103.1227595 120.3779188 109.7585048
 101.6137609 112.4728590 124.0162333 100.9378247 112.3722720 124.6864708
 102.4365243 112.3167804 124.4798330  93.3616469 118.7100527 116.6374848
  93.9469905 117.9644215 116.7702752  93.1641307 119.0204484 117.5211512
  96.2155124 121.7451774 111.6537291  95.5465499 122.2297902 111.1701331
  96.0767993 121.9920995 112.5680669  87.9534123 111.2806127 115.3579291
  87.9918223 110.7469718 116.1516409  87.4474416 110.7541333 114.7390269
 100.3560392 123.7795518 118.2519949 100.9078700 123.9427139 119.0169034
 100.6966586 124.3699956 117.5799974  95.3324886 106.1270668 118.8541834
  95.3966212 106.9885499 118.4419231  95.2692006 105.5144669 118.1214192
  94.8077158 108.1993800 122.5014868  95.4349197 107.8170878 123.1152392
  93.9505077 107.9808002 122.8670560 105.2071267 118.6056775 124.1068603
 105.7511171 119.2186734 123.6123558 104.6258112 119.1636354 124.6235616
 103.4928780 121.7277493 115.2383631 103.3679919 120.9267233 114.7294577
 104.1507871 122.2223687 114.7497601  95.1136948 108.0826226 114.4160771
  94.3923534 108.6962194 114.2768245  95.9030204 108.6183991 114.3377417
 105.5563688 119.5286514 116.8663181 104.6094024 119.4091865 116.7941508
 105.9046461 118.6409012 116.9489443  97.9163261 105.4180652 120.6901423
  98.4397663 105.6642949 121.4527732  97.6975595 106.2500687 120.2704560
 102.5610121 119.3239230 113.0667533 102.4135084 118.3955937 113.2475104
 103.3863615 119.3459320 112.5824609 106.1644243 120.1467788 114.1532406
 107.0890791 119.9410650 114.0156857 105.9959547 119.8984190 115.0621748
  99.1215806 106.3594348 118.3751094  98.7812627 105.5602161 118.7771774
  98.4154813 106.6596058 117.8027927  99.7732278 103.4443660 116.8278417
 100.5958348 102.9704138 116.7057307 100.0170342 104.2234144 117.3277103
 105.9539559 120.6653456 109.5094498 106.1276437 120.0999878 108.7568350
 106.4468451 121.4654351 109.3273988  91.7716519 112.6768125 117.5758056
  91.2269987 113.4527933 117.7078331  92.6495869 113.0238930 117.4177178
 111.8078951 113.4289879 111.1284797 112.2510097 112.6797204 110.7303921
 110.9305461 113.4200015 110.7458529 106.9414732 119.9820220 106.6091396
 107.6365637 120.6026913 106.8278711 107.2837882 119.1315572 106.8843774
  92.5582541 111.8038021 120.4688213  91.8164277 111.9520657 121.0552844
  92.2375285 112.0646287 119.6054963 108.8406155 117.4319926 108.1378727
 109.3657479 117.7707199 107.4128047 108.7528508 116.4966941 107.9541861
 100.5026204 121.3454000 120.2668603 100.8113330 121.1003146 121.1391303
 101.3001686 121.5500638 119.7787474 100.5246816 123.4991909 112.4973980
 100.0851806 123.0068288 113.1906837 101.2754933 122.9564877 112.2566055
  93.0039155 119.6903450 112.4998608  93.8297175 119.3907222 112.1197252
  92.6533207 118.9211072 112.9488397  97.9720688 119.0429918 114.5696282
  97.3500697 118.3800623 114.2698509  98.6425555 119.0691050 113.8869929
  91.2047760 117.6089776 113.4587542  90.3679668 117.1811951 113.2771543
  91.1771405 117.8022220 114.3958333  98.0445215 107.5211706 124.1628788
  98.0933371 108.3973829 123.7806557  98.5867730 106.9789099 123.5900431
 108.5300061 118.0652830 123.4429925 107.7395605 118.0476968 122.9034424
 108.2933416 118.6041123 124.1978961 108.6497936 114.9145296 120.7562653
 108.6995941 114.7495303 121.6978176 108.5411859 114.0472555 120.3660534
 105.9401699 110.8976224 122.0721960 106.8411561 110.7582689 121.7805958
 106.0149673 111.0630679 123.0120137 100.2744504 108.2743079 120.9175146
  99.4047813 108.5676645 120.6457735 100.5103984 108.8583524 121.6382410
 110.1516133 117.3342237 121.0004675 109.8600941 117.6972218 121.8368136
 109.5388264 116.6209246 120.8218007 111.3511815 114.8995117 113.5207245
 112.1858707 115.3384921 113.6844805 111.4870944 114.4233770 112.7015491
 108.4003321 112.4574852 119.4684733 108.8757443 112.6502498 118.6603584
 107.4768887 112.5134038 119.2228116 102.9783538 104.4922696 118.4340567
 103.4965482 105.2283723 118.1087055 102.6238670 104.7986689 119.2687326
 103.2296132 100.9122978 113.9541463 103.5097886 100.2446167 114.5801890
 104.0146739 101.1052074 113.4416127 101.0329600 120.0881972 105.5166490
 100.4603567 120.7072159 105.0636961 101.6062394 120.6381334 106.0506411
 107.1004990 109.3340612 117.7013038 108.0522413 109.4338710 117.7225262
 106.9308441 108.5418881 118.2111123 105.1219370 106.4196195 117.8872439
 104.5269302 106.7001208 117.1918928 104.8369066 106.9090096 118.6589180
 104.2526860 120.3719122 106.6475072 105.1857533 120.3064684 106.8507947
 104.1650073 121.2075389 106.1889604 106.8814877 119.6884993 103.6079019
 106.8028508 119.3544856 104.5014777 107.7024544 120.1806760 103.6070492
 109.5793068 112.5546732 116.8155338 109.5469388 111.6162733 117.0015022
 110.1893692 112.6330769 116.0821163 109.7287556 109.3457775 116.8613621
 109.2126605 108.5616232 116.6743550 110.6127505 109.0176492 117.0260141
 107.3898283 103.0898791 112.8209434 107.1923105 102.7813879 113.7052766
 107.9997989 103.8160430 112.9507364 115.3969618 113.6162739 115.9561375
 116.1273006 113.3548027 116.5169078 114.7876563 112.8791461 115.9963443
 113.4784915 111.7570601 116.5535826 112.7518079 111.6226566 115.9452318
 113.0632202 112.0647430 117.3592544 101.3015091 115.4760531 124.3183199
 102.2218101 115.6539130 124.5123246 101.2664674 114.5316576 124.1662898
  94.2977164 113.3861566 116.9605980  94.5163174 114.3178673 116.9794014
  94.7102938 113.0269540 117.7460784 103.1471930 102.9707698 110.5705965
 103.7002969 103.3903151 111.2295988 103.3842016 102.0443446 110.6128921
  99.1705029 108.9594771 126.3508729  99.0701756 109.9089128 126.2820820
  98.9526571 108.6313010 125.4784799  90.3885516 114.2902036 115.2129595
  89.6948988 113.8755989 114.6999550  91.1358507 114.3322573 114.6163014
 106.5250737 105.0808223 110.0784629 105.9449406 105.7393027 109.6962682
 106.2586670 104.2585567 109.6672047 104.9754303 104.4813281 112.2805950
 105.4754082 104.5929815 111.4720269 105.6189911 104.1774333 112.9206758
  99.0336299 112.3891910 125.1673791  98.5503381 113.1892270 125.3737680
  99.1197238 112.3999855 124.2141235  92.3022259 114.2220290 113.0895610
  92.2792947 114.3207977 112.1377493  92.6122895 115.0685441 113.4112776
  94.9609637 116.2796445 117.2042225  95.9152890 116.2480387 117.1372156
  94.7622160 115.8187069 118.0192450  95.5509019 114.8497561 119.7713022
  96.3701908 115.3441640 119.7947859  95.8245827 113.9329529 119.7430590
 108.6590151 107.2654834 112.8495317 109.4350541 107.7551287 113.1219934
 107.9338285 107.6912888 113.3067186 111.0962710 107.9782453 113.9069258
 111.6907201 107.7378189 113.1962566 111.1689294 107.2589584 114.5342794
  93.3159866 121.8216064 114.2212422  93.1814333 121.0616465 113.6550420
  92.8991928 122.5456964 113.7541211 104.4518829 117.0052988 103.2288998
 105.1554679 117.2102990 103.8446653 103.7281477 117.5729750 103.4938081
 105.2816639 112.7562849 109.3491268 105.2251840 113.2131401 108.5098900
 105.8344981 111.9953534 109.1714111 109.0921445 108.5452581 110.1741387
 108.8358379 108.1449217 111.0049595 108.4674313 109.2596375 110.0491527
 113.4033783 111.2848654 112.6812679 112.8433341 111.3541844 113.4544241
 112.7977286 111.1089639 111.9612175  96.4728991 122.7185381 114.4330865
  96.3561376 123.6630814 114.3309555  95.6521438 122.4158943 114.8216664
 106.3605526 117.4435517 105.2787458 107.1951130 117.0116716 105.0964933
 106.1989869 117.2717531 106.2064352  90.8043933 109.1835695 120.4705219
  91.4502797 108.6734649 120.9592444  90.5961084 109.9204376 121.0448645
 103.3297325 116.2516542 125.9697360 104.1988485 116.4257195 125.6083995
 102.8504077 117.0710959 125.8473089  97.4983506 123.3713643 117.6486793
  98.4010752 123.4037254 117.9653288  97.2720876 122.4414094 117.6633129
  99.2537108 122.1244630 114.3096872  98.3032739 122.1246491 114.1961244
  99.5569594 121.3777364 113.7932907 103.1399663 100.0418516 110.4775052
 102.3732059  99.4877003 110.6231735 103.5510368 100.1140385 111.3389204
  95.1441424 106.3303312 124.5680234  96.0072886 105.9740117 124.7783558
  94.5706835 105.9917207 125.2555638 114.9889801 127.9605168 115.3742635
 115.6268211 127.8411916 114.6705975 114.8710644 128.9086012 115.4330587
 111.7979507 127.9132596 115.3104159 111.4598019 127.7973661 114.4224694
 112.6669276 127.5123761 115.2905165 107.6566323 129.7668073 111.3001050
 107.0931188 129.6758010 110.5317338 107.5418718 128.9467977 111.7803543
 105.2030755 131.2619264 114.1385271 105.9952047 130.9210089 113.7231570
 105.4427405 131.3714239 115.0587424 113.2365882 133.4339040 106.6115515
 112.5853862 134.0193121 106.2249529 114.0310245 133.9645235 106.6710553
 107.1621509 130.5228178 107.0102649 107.9352385 129.9757165 106.8715525
 107.5146908 131.3872427 107.2217111 109.9262758 129.2281408 116.8070908
 110.5226331 129.0037431 116.0927871 109.9837730 128.4866154 117.4096356
 109.4987787 126.6820844 104.6421099 109.7513307 126.1602365 103.8804562
 108.5612346 126.5186989 104.7447783 114.5431070 125.6856622 112.4495843
 115.3294159 125.2676045 112.0986260 114.8069774 126.5902714 112.6177491
 114.7141147 131.1229472 107.1484499 114.0786980 131.1964099 107.8605404
 114.3838553 131.7123071 106.4703579 119.9439497 125.6231855 113.3528821
 120.6764669 125.0531072 113.5866651 119.1878852 125.2353456 113.7935327
 109.2184075 128.5848950 106.8445474 109.1020334 127.9093853 107.5126559
 109.3286335 128.0981324 106.0277627 111.5615616 128.0459097 110.5492164
 111.1973824 127.5189718 111.2605085 112.4182732 127.6557566 110.3758649
 117.4664917 119.3353429 117.8123430 117.1348242 120.2048840 117.5884645
 116.8710530 119.0189713 118.4917460 111.2021103 123.0748996 105.5453512
 111.3695506 123.9429233 105.9123983 111.0118272 123.2376278 104.6214801
 107.4108918 127.9879772 113.2456047 106.4859415 127.8555986 113.4533739
 107.6593331 128.7673991 113.7425989 117.3593580 124.0548516 114.8916780
 116.4510458 123.9863924 114.5975541 117.3081176 124.5320460 115.7198605
 111.1810324 125.5306654 106.5300179 111.0609949 125.9763705 107.3685659
 110.4862913 125.8791972 105.9713717 104.7717729 127.6313046 114.0799836
 104.9010110 127.8847525 114.9939248 104.0915180 128.2240754 113.7604491
 108.9417216 138.3010296 110.1790310 108.8641246 139.2518121 110.2578791
 108.3378860 137.9556168 110.8365236 119.2255227 122.2564954 116.6694654
 118.5829607 122.5497487 116.0234448 118.7210155 122.1417874 117.4747850
 116.8795390 126.0028127 107.3580513 117.7913247 126.2355514 107.1828210
 116.3705037 126.5865171 106.7955592 111.5167228 125.3625362 118.3675362
 112.3628423 125.7864775 118.5110011 111.4565866 124.7058986 119.0613926
 114.2231365 122.1786163 115.6070374 113.3615844 122.4767417 115.8987111
 114.2493800 122.3956562 114.6751406 111.0392935 130.7228354 112.0144179
 111.5031280 131.0016057 111.2248802 110.7749733 129.8211798 111.8317270
 107.9317016 130.2699835 114.9523943 108.5018373 130.6987104 114.3141427
 108.5225128 129.9882420 115.6508128 109.9761821 126.8451506 108.8233745
 110.6785864 127.2972550 109.2907671 109.6442449 126.2035325 109.4513638
 103.7187155 125.1035059 114.1250878 102.9286209 125.3592587 113.6490989
 104.2098402 125.9183397 114.2302919 105.6701900 125.4679638 111.0834355
 104.8733063 125.5798332 111.6017851 105.4427492 125.8066290 110.2175245
 102.0024858 125.3565549 116.5565869 102.2532896 126.2412559 116.8223445
 102.5384406 125.1770151 115.7840961 111.2155585 133.6592449 108.8995850
 111.0801260 134.5043984 109.3280698 111.7565398 133.8611726 108.1361784
 104.6684983 131.1767887 109.4723775 105.1809503 131.9711137 109.6229340
 105.3207696 130.4794177 109.4057376 106.4779867 134.2933643 111.5546528
 106.6546496 135.2151608 111.3667512 107.2736701 133.9792062 111.9840908
 105.7632224 126.3398275 121.4308691 105.6485739 125.4383532 121.7315790
 104.9076742 126.5861972 121.0793508 114.5648049 117.1823011 117.4294743
 114.2212318 118.0724652 117.3533854 114.9327011 116.9924668 116.5664328
 102.6333899 129.5056541 110.2483345 103.4709121 129.9153549 110.0317053
 102.8112167 128.5655983 110.2183539 114.5298332 127.1731622 105.9367178
 114.0144955 127.9436226 106.1755566 114.2575640 126.4996758 106.5600240
 112.1145443 122.0181322 110.9952417 111.2587039 121.6288173 110.8158055
 112.5272394 122.0973283 110.1352202 113.6444589 119.5527666 115.3943977
 113.1409385 119.5157801 114.5811782 113.9375196 120.4620408 115.4540633
 109.8887475 119.6366395 114.4010158 110.7540472 119.4409204 114.0416048
 109.9564984 119.4076747 115.3279515 119.5032606 129.9263976 107.8720352
 118.7262048 129.5875136 107.4275514 120.1824087 129.9316599 107.1975317
 114.3184635 125.0458714 107.7626960 114.0134770 125.3604863 108.6137103
 115.2715077 125.1240134 107.8054293 112.7631067 131.2048937 109.4119914
 112.2352428 130.4701697 109.0993151 112.2618569 131.9823613 109.1659882
 107.4949794 121.8668603 111.7726525 108.0693546 121.6443785 111.0399718
 108.0820777 121.9357298 112.5255126 116.5529371 127.7542330 112.5790902
 117.0661253 128.3872322 113.0812611 117.2030595 127.1543526 112.2134262
 107.8219381 123.8973064 105.7922410 106.9856694 124.2347751 106.1131685
 107.6824151 123.7622044 104.8549547 109.7972462 118.7409852 110.5001595
 109.1436874 118.4258869 109.8758209 109.7552936 118.1185593 111.2261417
 110.9083667 129.0229147 102.4154887 110.0010729 128.7918401 102.6146036
 111.4054699 128.2266767 102.6028868 113.8151746 137.7326655 105.3351573
 113.1413444 138.0358351 105.9436531 114.2017568 138.5355735 104.9857030
 113.0310202 125.2291786 114.8249242 112.1132764 125.4506733 114.6670930
 113.4470346 125.3038096 113.9660949 113.8145250 126.6283201 109.9551922
 114.5617069 127.1404599 109.6459044 114.0836840 126.3067254 110.8156316
 112.0871900 129.1241742 106.9378877 111.1783119 128.8400775 107.0351346
 112.1166984 129.5440821 106.0782184 117.3191168 132.7348332 110.7070044
 116.8653495 131.8939242 110.7635235 116.6885134 133.3709730 111.0444824
 116.2624087 123.6640318 111.9370712 115.5246844 123.1517704 112.2680954
 116.5150861 123.2240699 111.1253989 115.7624107 134.5724828 111.6419862
 116.0547081 135.1329885 110.9232228 116.2722727 134.8653389 112.3973021
 116.3635715 116.4416570 112.5312481 116.6694591 115.5813933 112.2438396
 117.0888319 117.0334190 112.3311475 102.6560071 126.8447256 110.9194079
 102.4584470 126.2516617 110.1945145 102.1006735 126.5399467 111.6370018
 110.6356794 126.7370363 113.0388672 110.6905404 125.7844199 112.9631149
 109.8247996 126.8929802 113.5229970 111.7847988 130.6650486 104.2766955
 111.3467418 129.9486345 103.8172593 112.5258429 130.8926601 103.7152047
 108.5749154 125.3547423 110.7979051 107.7617020 125.6541593 111.2044243
 109.0708148 124.9603111 111.5153533 110.7257732 135.3505179 112.7313316
 110.6833911 135.5766026 111.8021848 111.6420431 135.1168554 112.8799117
 119.9021103 128.9407683 110.3343274 119.7639001 129.1309279 109.4064463
 119.5457322 129.7027066 110.7911325 108.0663229 122.9265778 116.4140286
 108.7062608 122.7854537 115.7163249 107.2340759 122.6400291 116.0378888
 108.8423533 132.2268208 112.5275278 109.6364131 131.7318529 112.3257853
 108.1315225 131.6986072 112.1642984 105.1506296 126.3711290 108.6035031
 104.2203884 126.3095746 108.8204993 105.2463768 125.8487243 107.8071672
 105.0691845 122.8966103 111.1913273 105.3298663 123.8111436 111.0822433
 105.8909018 122.4290546 111.3409885 106.5416771 124.3103860 118.3612097
 107.2139824 124.1021222 117.7124746 105.7146557 124.1125946 117.9217329
 112.4442343 120.9365801 120.3777758 111.7970258 121.6355751 120.2842234
 113.2143358 121.3701945 120.7454006 112.0142961 137.9006327 107.5498652
 112.1894716 137.4294370 108.3644275 111.3275749 138.5272093 107.7779913
 112.9700024 132.1778833 113.5961953 112.6349857 132.1379603 114.4919603
 112.4703970 131.5123549 113.1232363 106.9444268 127.5846463 119.1214534
 106.8064066 126.8526702 119.7226073 107.8549191 127.4955363 118.8398722
 115.9059216 129.5234868 103.8699013 115.2888386 128.7981696 103.7732066
 115.4375704 130.2844228 103.5266087 108.2855503 124.2831640 120.4293853
 107.7492860 123.8322379 121.0815450 107.6972211 124.4177549 119.6864318
 107.6957762 123.7420292 102.9920317 106.8187228 123.6209093 102.6282564
 108.1715515 122.9506370 102.7399206  99.2159902 128.5297452 113.0861824
  99.9030942 128.2159182 112.4982840  99.0608030 129.4338816 112.8129076
 104.0194624 123.4187648 117.5146848 103.9352813 122.8113318 116.7797258
 103.1977330 123.9096666 117.5156344 110.8821688 136.0946582 110.2382838
 110.0989209 136.6368262 110.3321062 111.5814433 136.6120562 110.6377079
 114.1918338 121.9041212 112.8817043 114.6887037 121.1511174 112.5618113
 113.4205319 121.9405528 112.3160252 115.2748118 130.6612899 110.4555466
 114.3404397 130.7814361 110.2860171 115.4524787 129.7585366 110.1915476
 110.7753306 124.0458595 112.6088728 110.4051094 123.4929635 113.2969633
 111.2712399 123.4416728 112.0563728 118.6620670 126.5030218 110.9905501
 119.1281122 127.3358210 110.9165803 119.1128170 126.0375200 111.6950759
 116.7296901 132.8474039 107.9891653 117.0056745 132.7330634 108.8985527
 115.8601400 132.4491524 107.9503826 116.6337332 118.8710805 115.0296402
 115.7200412 119.1015032 115.1978609 117.0630434 118.9549249 115.8810434
 113.3650965 137.0960390 111.6324466 113.5473359 136.2782046 112.0952219
 114.1883951 137.3128083 111.1949356 113.6993130 136.0228575 108.8939515
 114.2280897 135.5121030 108.2809677 113.9621350 135.7071106 109.7585048
 104.2010223 134.0392445 116.6374848 104.7863660 133.2936133 116.7702752
 104.0035062 134.3496401 117.5211512 107.0548878 137.0743692 111.6537291
 106.3859254 137.5589820 111.1701331 106.9161748 137.3212913 112.5680669
  98.7927878 126.6098045 115.3579291  98.8311977 126.0761636 116.1516409
  98.2868171 126.0833250 114.7390269 106.1718640 121.4562585 118.8541834
 106.2359967 122.3177416 118.4419231 106.1085760 120.8436587 118.1214192
 105.6470913 123.5285718 122.5014868 106.2742951 123.1462795 123.1152392
 104.7898831 123.3099920 122.8670560 102.4236455 125.3362147 108.4333223
 102.7189896 124.4272825 108.3800276 101.5224491 125.3149887 108.1114225
 105.9530702 123.4118144 114.4160771 105.2317288 124.0254111 114.2768245
 106.7423958 123.9475908 114.3377417 108.7557016 120.7472570 120.6901423
 109.2791418 120.9934867 121.4527732 108.5369349 121.5792605 120.2704560
 104.1524297 123.0176245 108.5572548 103.8237003 122.1373624 108.3747654
 104.5063668 122.9623913 109.4448937 113.4003876 134.6531147 113.0667533
 113.2528838 133.7247855 113.2475104 114.2257369 134.6751238 112.5824609
 107.2666120 123.3049215 108.9248026 107.6062193 123.8335136 108.2026634
 107.7138241 123.6429621 109.7006592 109.9609561 121.6886265 118.3751094
 109.6206381 120.8894078 118.7771774 109.2548567 121.9887976 117.8027927
 110.6126033 118.7735578 116.8278417 111.4352102 118.2996056 116.7057307
 110.8564096 119.5526061 117.3277103 109.2534267 121.8023836 107.1241318
 109.9742630 122.1805089 106.6205035 108.6299571 122.5212713 107.2276296
 113.3965390 122.5068985 108.0599651 113.6129005 123.3893623 107.7588479
 112.9159457 122.1155198 107.3305293 108.1364612 125.4654698 114.6370395
 107.9909192 125.7795001 115.5294677 107.6589815 126.0839599 114.0841294
 109.9960994 122.4557246 114.6851285 109.9822563 121.5598340 114.3483583
 110.7133423 122.4627910 115.3189571 111.8487125 122.8894587 116.7304412
 111.5904903 123.8111657 116.7288743 111.3172165 122.4925021 117.4204876
 116.7933314 135.9945374 109.5094498 116.9670191 135.4291796 108.7568350
 117.2862205 136.7946269 109.3273988 102.6110274 128.0060043 117.5758056
 102.0663742 128.7819851 117.7078331 103.4889624 128.3530847 117.4177178
 109.3997890 121.3371627 109.9538855 109.5213802 120.4088273 110.1529742
 109.1099933 121.3510313 109.0417170 112.2689081 119.0226537 113.0905575
 112.2910778 119.0865870 112.1357554 112.6857140 118.1831046 113.2846081
 122.6472705 128.7581797 111.1284797 123.0903851 128.0089122 110.7303921
 121.7699215 128.7491933 110.7458529 117.7808486 135.3112138 106.6091396
 118.4759391 135.9318831 106.8278711 118.1231637 134.4607489 106.8843774
 103.3976296 127.1329939 120.4688213 102.6558032 127.2812574 121.0552844
 103.0769040 127.3938205 119.6054963 119.6799909 132.7611844 108.1378727
 120.2051234 133.0999116 107.4128047 119.5922262 131.8258859 107.9541861
 103.8432909 135.0195368 112.4998608 104.6690929 134.7199140 112.1197252
 103.4926961 134.2502990 112.9488397 108.8114442 134.3721836 114.5696282
 108.1894452 133.7092541 114.2698509 109.4819309 134.3982968 113.8869929
 102.0441514 132.9381694 113.4587542 101.2073423 132.5103869 113.2771543
 102.0165160 133.1314137 114.3958333 108.3727949 132.9225759 108.0454742
 108.5216070 133.6061224 107.3921415 109.1794393 132.9030849 108.5604198
 106.1280582 128.9490937 109.0515811 105.8826624 128.0453267 109.2496021
 106.2976497 128.9508087 108.1095289 113.8177292 119.8214613 118.4340567
 114.3359236 120.5575640 118.1087055 113.4632425 120.1278607 119.2687326
 105.3976230 124.6819294 106.5501972 104.7045475 124.7563649 105.8942008
 105.1527982 123.9179638 107.0723489 114.0689886 116.2414896 113.9541463
 114.3491640 115.5738085 114.5801890 114.8540493 116.4343991 113.4416127
 111.8723355 135.4173890 105.5166490 111.2997322 136.0364077 105.0636961
 112.4456148 135.9673251 106.0506411 115.9613124 121.7488113 117.8872439
 115.3663056 122.0293126 117.1918928 115.6762821 122.2382014 118.6589180
 115.0920615 135.7011040 106.6475072 116.0251288 135.6356602 106.8507947
 115.0043827 136.5367307 106.1889604 117.7208631 135.0176910 103.6079019
 117.6422263 134.6836774 104.5014777 118.5418298 135.5098678 103.6070492
 112.2570153 126.7534702 102.8582542 113.2029258 126.6240911 102.9270960
 111.8784398 126.0149364 103.3351970 118.2292038 118.4190708 112.8209434
 118.0316859 118.1105797 113.7052766 118.8391743 119.1452347 112.9507364
 110.4413070 124.6784679 102.7937427 109.5344526 124.3817792 102.8700141
 110.7189051 124.3814497 101.9271714 101.3591011 125.9991042 113.2436474
 101.0393795 125.1456350 112.9510848 100.8124439 126.2139620 113.9994441
 105.1370918 128.7153483 116.9605980 105.3556928 129.6470591 116.9794014
 105.5496692 128.3561458 117.7460784 112.0575136 119.2221569 108.9481669
 111.2475865 118.8768654 109.3236915 112.7459553 118.9129112 109.5369280
 113.9865684 118.2999615 110.5705965 114.5396723 118.7195069 111.2295988
 114.2235771 117.3735363 110.6128921 109.2111855 121.5371614 102.9349406
 110.0731019 121.8626512 103.1945224 109.3962199 120.7503110 102.4222472
 101.2279271 129.6193954 115.2129595 100.5342742 129.2047907 114.6999550
 101.9752262 129.6614490 114.6163014 117.3644492 120.4100141 110.0784629
 116.7843161 121.0684945 109.6962682 117.0980424 119.5877485 109.6672047
 115.8148058 119.8105198 112.2805950 116.3147836 119.9221733 111.4720269
 116.4583666 119.5066251 112.9206758 103.1416013 129.5512208 113.0895610
 103.1186701 129.6499895 112.1377493 103.4516650 130.3977358 113.4112776
 105.8003391 131.6088363 117.2042225 106.7546645 131.5772305 117.1372156
 105.6015915 131.1478986 118.0192450 116.1469370 122.5700231 109.1340978
 115.2595225 122.8549882 108.9161172 116.5623359 122.4093994 108.2868255
 119.4983906 122.5946752 112.8495317 120.2744296 123.0843204 113.1219934
 118.7732040 123.0204806 113.3067186 121.9356464 123.3074371 113.9069258
 122.5300955 123.0670107 113.1962566 122.0083048 122.5881502 114.5342794
 104.1553620 137.1507982 114.2212422 104.0208088 136.3908383 113.6550420
 103.7385682 137.8748882 113.7541211 115.2912583 132.3344906 103.2288998
 115.9948433 132.5394908 103.8446653 114.5675232 132.9021667 103.4938081
 116.1210393 128.0854767 109.3491268 116.0645595 128.5423318 108.5098900
 116.6738736 127.3245451 109.1714111 119.9315199 123.8744499 110.1741387
 119.6752133 123.4741134 111.0049595 119.3068067 124.5888293 110.0491527
 124.2427537 126.6140572 112.6812679 123.6827095 126.6833761 113.4544241
 123.6371040 126.4381557 111.9612175 117.1999280 132.7727435 105.2787458
 118.0344884 132.3408633 105.0964933 117.0383623 132.6009448 106.2064352
 116.8545173 129.2759548 106.6443797 116.7993976 129.1103820 105.7032241
 116.2291228 129.9835581 106.8005987 101.6437688 124.5127612 120.4705219
 102.2896551 124.0026566 120.9592444 101.4354839 125.2496294 121.0448645
 110.1641298 118.7767657 106.2229115 110.1519968 119.7209497 106.3797386
 111.0564720 118.5937803 105.9288577 113.9793418 115.3710434 110.4775052
 113.2125813 114.8168920 110.6231735 114.3904123 115.4432303 111.3389204
 120.3381541 142.0112761 104.6421099 120.5907062 141.4894283 103.8804562
 119.4006100 141.8478907 104.7447783 122.0414858 138.4040914 105.5453512
 122.2089260 139.2721151 105.9123983 121.8512027 138.5668196 104.6214801
 118.6613136 139.2264982 105.7922410 117.8250448 139.5639669 106.1131685
 118.5217905 139.0913962 104.8549547 120.6366216 134.0701770 110.5001595
 119.9830629 133.7550787 109.8758209 120.5946691 133.4477510 111.2261417
 121.7477421 144.3521065 102.4154887 120.8404483 144.1210318 102.6146036
 122.2448453 143.5558684 102.6028868 118.5351516 139.0712210 102.9920317
 117.6580982 138.9501010 102.6282564 119.0109269 138.2798288 102.7399206
 113.2630210 140.6654065 108.4333223 113.5583651 139.7564743 108.3800276
 112.3618246 140.6441804 108.1114225 114.9918051 138.3468162 108.5572548
 114.6630758 137.4665541 108.3747654 115.3457422 138.2915831 109.4448937
 120.0928022 137.1315754 107.1241318 120.8136384 137.5097007 106.6205035
 119.4693326 137.8504631 107.2276296 116.2369984 140.0111212 106.5501972
 115.5439229 140.0855567 105.8942008 115.9921736 139.2471556 107.0723489
 123.0963908 142.0826620 102.8582542 124.0423013 141.9532828 102.9270960
 122.7178153 141.3441282 103.3351970 121.2806825 140.0076597 102.7937427
 120.3738280 139.7109709 102.8700141 121.5582806 139.7106415 101.9271714
 122.8968891 134.5513486 108.9481669 122.0869619 134.2060571 109.3236915
 123.5853308 134.2421030 109.5369280 120.0505610 136.8663532 102.9349406
 120.9124774 137.1918430 103.1945224 120.2355954 136.0795028 102.4222472
 121.0035053 134.1059575 106.2229115 120.9913722 135.0501415 106.3797386
 121.8958474 133.9229720 105.9288577  39.1133521  -2.3376133 102.0987941
  39.7511931  -2.4569386 101.3951281  38.9954364  -1.3895289 102.1575893
  35.9223227  -2.3848705 102.0349466  35.5841739  -2.5007640 101.1470001
  36.7912995  -2.7857540 102.0150472  37.3609602   3.1357739  93.3360822
  36.7097581   3.7211820  92.9494835  38.1553964   3.6663934  93.3955859
  38.6674789  -4.6124679  99.1741149  39.4537879  -5.0305256  98.8231566
  38.9313494  -3.7078587  99.3422798  38.8384867   0.8248171  93.8729806
  38.2030700   0.8982798  94.5850711  38.5082273   1.4141770  93.1948885
  44.0683217  -4.6749446 100.0774128  44.8008388  -5.2450229 100.3111957
  43.3122572  -5.0627845 100.5180633  38.0840156   1.2384674 103.9364649
  37.7840879   2.1409713 103.8280456  37.7391216   0.9716857 104.7885802
  33.0660936   8.0028995  96.9035617  32.9884966   8.9536820  96.9824097
  32.4622580   7.6574867  97.5610543  41.0039110  -4.2953174  94.0825820
  41.9156966  -4.0625787  93.9073517  40.4948757  -3.7116130  93.5200898
  39.6108693   0.6872644 101.4739401  38.9817555   0.8518359 100.7715469
  39.2234355   1.1014254 102.2450365  43.4897924   1.6227082  98.8283765
  42.8048963   2.0025984  98.2780798  43.5741774   2.2322409  99.5615713
  40.7448856  -0.7312959 105.4279108  40.9565751  -0.0881199 104.7513489
  40.6978604  -1.5650642 104.9601038  35.1636654   0.4247053  98.7389486
  35.6275000   0.7034756  97.9494109  34.8993453  -0.4769503  98.5562577
  32.0560736  -0.0281466 101.6769249  32.6262093   0.4005802 101.0386734
  32.6468847  -0.3098881 102.3753435  41.8594684   2.1458997 103.6001466
  42.6812128   1.7439184 103.3184147  41.8557087   2.0427231 104.5517581
  35.6251287   1.6943040 105.7562176  35.6895720   2.1563447 106.5920348
  34.9162211   1.0640405 105.8844486  49.9500677  -1.5102255  99.9486437
  49.1964385  -2.0794857  99.7930442  50.0848218  -1.5439590 100.8957072
  35.3399305   3.3611148  95.6241156  35.2044980   4.2062683  96.0526004
  35.8809118   3.5630425  94.8607090  30.6023587   3.9952342  98.2791835
  30.7790216   4.9170307  98.0912819  31.3980421   3.6810761  98.7086215
  31.7254903   5.5130516 104.2802177  32.2762328   5.3847579 103.5079171
  30.8866379   5.8125405 103.9297070  39.0649020   4.2637514 107.7822900
  39.0467495   5.0846395 107.2903169  39.9868940   4.1391589 108.0073041
  38.6542051  -3.1249679  92.6612485  38.1388675  -2.3545075  92.9000872
  38.3819360  -3.7984543  93.2845546  43.6276326  -0.3717325  94.5965659
  42.8505768  -0.7106165  94.1520821  44.3067807  -0.3664702  93.9220624
  36.8874786   0.9067636  96.1365220  36.3596148   0.1720396  95.8238458
  36.3862289   1.6842312  95.8905189  41.8667632  -0.8983344 101.2532267
  41.2091307  -0.2084082 101.3412395  42.6708032  -0.5086912 101.5966253
  40.6773091  -2.5438971  99.3036208  41.1904973  -1.9108979  99.8057918
  41.3274315  -3.1437775  98.9379568  35.0327387  -1.2752154  89.1400193
  34.1254448  -1.5062900  89.3391342  35.5298419  -2.0714535  89.3274175
  37.9395465   7.4345353  92.0596879  37.2657164   7.7377050  92.6681837
  38.3261287   8.2374434  91.7102336  37.9388970  -3.6698100  96.6797229
  38.6860789  -3.1576702  96.3704351  38.2080559  -3.9914047  97.5401623
  36.2115620  -1.1739559  93.6624183  35.3026839  -1.4580526  93.7596653
  36.2410704  -0.7540480  92.8027490  41.4434887   2.4367031  97.4315351
  40.9897215   1.5957940  97.4880541  40.8128854   3.0728429  97.7690131
  39.8867827   4.2743527  98.3665169  40.1790801   4.8348584  97.6477535
  40.3966447   4.5672088  99.1218328  35.9091708   0.3669185  91.0012262
  35.4711138  -0.3494956  90.5417899  36.6502149   0.5945300  90.4397353
  34.8501452   5.0523878  99.4558622  34.8077631   5.2784725  98.5267154
  35.7664151   4.8187253  99.6044423  44.0264823  -1.3573618  97.0588580
  43.8882721  -1.1672022  96.1309770  43.6701041  -0.5954235  97.5156632
  44.0534202   0.7102909 102.0699852  44.4870709   0.6178198 102.9182906
  44.7665783   0.6860409 101.4319868  32.9667253   1.9286907  99.2520585
  33.7607851   1.4337227  99.0503160  32.2558945   1.4004770  98.8888291
  37.7862097   4.3105003 103.6032953  37.8399119   4.8795939 104.3710668
  36.9176879   4.4806888 103.2386990  44.9149752   0.7526609 104.6032737
  45.1085642   1.6572420 104.8492012  44.8150370   0.2934029 105.4371322
  36.7450197  -1.5234735 105.1619884  37.6742257  -1.3723575 104.9888852
  36.3241227  -1.4350714 104.3068531  35.5438529   2.5015929 102.9318422
  35.4049614   2.1334714 103.8044360  34.7553125   3.0163569 102.7602380
  36.1386681   7.6025026  94.2743959  36.3138436   7.1313069  95.0889581
  35.4519469   8.2290792  94.5025219  37.0943744   1.8797532 100.3207260
  36.7593576   1.8398302 101.2164910  36.5947689   1.2142248  99.8477670
  40.0302935  -0.7746434  90.5944319  39.4132106  -1.4999605  90.4977372
  39.5619424  -0.0137073  90.2511394  41.6857067   3.9352475 108.2550100
  41.6269613   3.2511695 107.5880683  42.0876585   4.6771465 107.8030726
  30.7047766  10.7514389 101.0483819  30.9444364  11.3832913 101.7262837
  29.8616962  10.4002429 101.3349178  41.6874474   1.8992059 106.4864080
  40.8001253   1.5617980 106.6090478  42.2573025   1.1675090 106.7232845
  35.2175628   6.5593511 103.4525323  35.1445799   7.3648483 103.9644627
  34.7753021   6.7585477 102.6273344  35.0065407   5.7965281  96.9628144
  34.2232929   6.3386961  97.0566369  35.7058153   6.3139261  97.3622385
  46.1691815  -2.6899724 101.2480641  46.1581691  -1.8075009 100.8774574
  45.3009194  -3.0428173 101.0535178  37.6774311   6.4580345 105.6083481
  38.3902284   7.0927810 105.5359383  37.1864340   6.5544211 104.7923483
  39.3991838   0.3631598  97.1800773  38.4648117   0.4833060  97.0105477
  39.5768507  -0.5395935  96.9160783  42.7864390  -3.7951083  97.7150807
  43.2524842  -2.9623091  97.6411110  43.2371890  -4.2606101  98.4196066
  32.7286225   4.2074789 106.4289052  33.4295684   4.8411271 106.5818446
  32.2581340   4.5489520 105.6684691  40.8540621   2.5492738  94.7136959
  41.1300465   2.4349333  95.6230833  39.9845119   2.1510223  94.6749132
  40.5287511  -3.2380604 104.2541603  39.8758961  -2.9904697 103.5994055
  40.9067891  -4.0516466 103.9204080  37.4894685   6.7979089  98.3569773
  37.6717079   5.9800745  98.8197525  38.3127671   7.0146781  97.9194663
  37.8236850   5.7247274  95.6184821  38.3524617   5.2139729  95.0054983
  38.0865070   5.4089804  96.4830354  28.3253943   3.7411144 103.3620155
  28.9107380   2.9954831 103.4948059  28.1278781   4.0515100 104.2456819
  31.1792598   6.7762391  98.3782597  30.5102973   7.2608519  97.8946637
  31.0405468   7.0231611  99.2925976  35.3197867   8.8106134 104.9765256
  35.8716175   8.9737756 105.7414341  35.6604060   9.4010572 104.3045280
  38.4566254   6.7588110 101.9628938  38.3317393   5.9577850 101.4539883
  39.1145345   7.2534303 101.4742908  40.5201162   4.5597130 103.5908488
  39.5731498   4.4402481 103.5186815  40.8683935   3.6719628 103.6734749
  37.5247596   4.3549846  99.7912840  37.3772558   3.4266554  99.9720410
  38.3501089   4.3769937  99.3069915  41.1281717   5.1778405 100.8777713
  42.0528265   4.9721266 100.7402164  40.9597021   4.9294806 101.7867054
  40.9177034   5.6964072  96.2339804  41.0913911   5.1310495  95.4813657
  41.4105925   6.4964967  96.0519294  46.7716425  -1.5399505  97.8530104
  47.2147571  -2.2892179  97.4549227  45.8942935  -1.5489368  97.4703836
  41.9052206   5.0130837  93.3336703  42.6003111   5.6337530  93.5524017
  42.2475356   4.1626188  93.6089080  43.8043629   2.4630542  94.8624033
  44.3294953   2.8017815  94.1373353  43.7165982   1.5277558  94.6787168
  35.4663678   6.3764616 106.9913910  35.7750804   6.1313763 107.8636610
  36.2639160   6.5811255 106.5032780  35.4884290   8.5302526  99.2219287
  35.0489280   8.0378904  99.9152143  36.2392407   7.9875493  98.9811362
  27.9676629   4.7214067  99.2243915  28.7934649   4.4217838  98.8442558
  27.6170681   3.9521689  99.6733703  32.9358162   4.0740535 101.2941588
  32.3138172   3.4111240 100.9943816  33.6063029   4.1001667 100.6115236
  43.4937535   3.0963446 110.1675231  42.7033079   3.0787585 109.6279731
  43.2570890   3.6351740 110.9224268  43.6135410  -0.0544088 107.4807960
  43.6633415  -0.2194080 108.4223483  43.5049334  -0.9216829 107.0905841
  32.4971669   2.6244458  94.7700049  32.6459789   3.3079923  94.1166721
  33.3038113   2.6049548  95.2849504  45.1153607   2.3652854 107.7249981
  44.8238416   2.7282834 108.5613442  44.5025739   1.6519862 107.5463313
  46.3149290  -0.0694266 100.2452552  47.1496181   0.3695538 100.4090112
  46.4508418  -0.5455613  99.4260797  43.3640796  -2.5114531 106.1930039
  43.8394917  -2.3186885 105.3848891  42.4406361  -2.4555346 105.9473423
  35.9967075   5.1192589  92.2411796  35.4241042   5.7382776  91.7882268
  36.5699868   5.6691950  92.7751718  39.2164334   5.4029739  93.3720378
  40.1495008   5.3375300  93.5753254  39.1287547   6.2386006  92.9134911
  41.8452351   4.7195609  90.3324326  41.7665983   4.3855473  91.2260084
  42.6662018   5.2117377  90.3315798  44.5430542  -2.4142652 103.5400645
  44.5106862  -3.3526651 103.7260328  45.1531166  -2.3358615 102.8066470
  44.6925031  -5.6231608 103.5858928  44.1764079  -6.4073152 103.3988857
  45.5764979  -5.9512892 103.7505447  50.3607092  -1.3526645 102.6806681
  51.0910481  -1.6141357 103.2414385  49.7514038  -2.0897923 102.7208749
  48.4422389  -3.2118782 103.2781133  47.7155553  -3.3462817 102.6697624
  48.0269676  -2.9041954 104.0837851  43.6227626  -7.7034549  99.5740624
  44.3988016  -7.2138097  99.8465240  42.8975760  -7.2776495 100.0312493
  46.0600184  -6.9906930 100.6314564  46.6544675  -7.2311194  99.9207872
  46.1326768  -7.7099799 101.2588101  28.2797340   6.8526681 100.9457729
  28.1451808   6.0927082 100.3795727  27.8629402   7.5767581 100.4786518
  39.4156303   2.0363604  89.9534304  40.1192153   2.2413607  90.5691960
  38.6918952   2.6040366  90.2183388  40.2454113  -2.2126534  96.0736575
  40.1889315  -1.7557983  95.2344207  40.7982456  -2.9735850  95.8959417
  44.0558919  -6.4236802  96.8986694  43.7995853  -6.8240167  97.7294902
  43.4311787  -5.7093008  96.7736833  48.3671257  -3.6840729  99.4057985
  47.8070815  -3.6147540 100.1789547  47.7614760  -3.8599745  98.6857482
  31.4366466   7.7495998 101.1576172  31.3198850   8.6941430 101.0554862
  30.6158912   7.4469559 101.5461971  41.3243000   2.4746134  92.0032764
  42.1588604   2.0427332  91.8210239  41.1627343   2.3028147  92.9309659
  40.9788892  -1.0221753  93.3689104  40.9237696  -1.1877482  92.4277548
  40.3534948  -0.3145720  93.5251293  32.4620980   8.4024260 104.3732100
  33.3648227   8.4347870 104.6898595  32.2358350   7.4724711 104.3878436
  34.2174582   7.1555246 101.0342179  33.2670213   7.1557108 100.9206551
  34.5207068   6.4087981 100.5178213  49.9527275  12.9915785 102.0987941
  50.5905685  12.8722532 101.3951281  49.8348118  13.9396629 102.1575893
  46.7616982  12.9443213 102.0349466  46.4235493  12.8284278 101.1470001
  47.6306750  12.5434378 102.0150472  42.6203797  14.7978689  98.0246357
  42.0568663  14.7068626  97.2562645  42.5056192  13.9778594  98.5048849
  47.2436765  14.0978065 107.9935671  47.2325405  13.7030863 107.1216175
  47.4057404  13.3644137 108.5869443  40.1668229  16.2929881 100.8630577
  40.9589521  15.9520706 100.4476877  40.4064879  16.4024856 101.7832731
  48.2003356  18.4649657  93.3360822  47.5491336  19.0503737  92.9494835
  48.9947719  18.9955852  93.3955859  42.1258983  15.5538794  93.7347956
  42.8989859  15.0067781  93.5960832  42.4784382  16.4183043  93.9462417
  43.9644026  16.8815176 106.9414855  43.6733892  17.7860807 106.8261522
  44.6001010  16.9231704 107.6558925  44.8900233  14.2592025 103.5316215
  45.4863805  14.0348047 102.8173178  44.9475204  13.5176770 104.1341663
  44.4625261  11.7131460  91.3666406  44.7150782  11.1912982  90.6049869
  43.5249820  11.5497606  91.4693090  49.5068544  10.7167239  99.1741149
  50.2931633  10.2986662  98.8231566  49.7707248  11.6213331  99.3422798
  49.6778621  16.1540089  93.8729806  49.0424454  16.2274715  94.5850711
  49.3476028  16.7433688  93.1948885  54.9076971  10.6542472 100.0774128
  55.6402143  10.0841689 100.3111957  54.1516327  10.2664072 100.5180633
  44.1821550  13.6159566  93.5690781  44.0657808  12.9404470  94.2371865
  44.2923810  13.1291940  92.7522934  46.5253091  13.0769713  97.2737470
  46.1611298  12.5500334  97.9850392  47.3820207  12.6868182  97.1003956
  52.4302391   4.3664046 104.5368736  52.0985716   5.2359457 104.3129951
  51.8348005   4.0500330 105.2162767  46.1658578   8.1059613  92.2698819
  46.3332980   8.9739849  92.6369290  45.9755747   8.2686895  91.3460108
  48.9233911  16.5676592 103.9364649  48.6234634  17.4701631 103.8280456
  48.5784970  16.3008775 104.7885802  42.3746392  13.0190389  99.9701353
  41.4496889  12.8866603 100.1779045  42.6230806  13.7984608 100.4671296
  52.3231055   9.0859132 101.6162086  51.4147932   9.0174541 101.3220847
  52.2718650   9.5631077 102.4443912  46.1447799  10.5617270  93.2545485
  46.0247424  11.0074321  94.0930966  45.4500387  10.9102588  92.6959024
  39.7355203  12.6623662 100.8045143  39.8647585  12.9158141 101.7184554
  39.0552655  13.2551370 100.4849798  43.9054691  23.3320912  96.9035617
  43.8278720  24.2828737  96.9824097  43.3016334  22.9866785  97.5610543
  46.3971920  10.5048778 109.5596984  45.6205255  11.0642698 109.5499848
  47.0362484  10.9905561 110.0811854  54.1892701   7.2875570 103.3939960
  53.5467081   7.5808104 102.7479755  53.6847630   7.1728491 104.1993157
  51.8432865  11.0338744  94.0825820  52.7550721  11.2666130  93.9073517
  51.3342512  11.6175788  93.5200898  44.6518293  13.3134231 109.1214951
  45.3932977  13.8519275 108.8449774  43.9455278  13.9400520 109.2786502
  50.1273632  15.4563372 107.7187112  50.5356988  15.0145782 106.9741744
  49.4050894  14.8815999 107.9721305  46.4804702  10.3935978 105.0920669
  47.3265898  10.8175392 105.2355318  46.4203340   9.7369603 105.7859232
  50.4502447  16.0164562 101.4739401  49.8211309  16.1810276 100.7715469
  50.0628109  16.4306172 102.2450365  54.3291679  16.9519000  98.8283765
  53.6442717  17.3317901  98.2780798  54.4135528  17.5614327  99.5615713
  49.6304148   8.0540347 106.7501843  49.3865080   8.8082407 106.2136118
  49.9064078   8.4325694 107.5849090  51.5842611  14.5978959 105.4279108
  51.7959506  15.2410719 104.7513489  51.5372359  13.7641276 104.9601038
  49.1868840   7.2096780 102.3315680  48.3253319   7.5078033 102.6232418
  49.2131274   7.4267179 101.3996713  46.0030409  15.7538970  98.7389486
  46.4668754  16.0326673  97.9494109  45.7387207  14.8522415  98.5562577
  42.8954490  15.3010452 101.6769249  43.4655847  15.7297720 101.0386734
  43.4862602  15.0193036 102.3753435  44.9399295  11.8762123  95.5479051
  45.6423338  12.3283166  96.0152978  44.6079923  11.2345941  96.1758944
  43.3879657  10.4673879 109.9230261  42.7578317  11.1490160 110.1565657
  43.2815744  10.3556961 108.9783399  38.6824629  10.1345675 100.8496185
  37.8923683  10.3903204 100.3736295  39.1735876  10.9494013 100.9548225
  52.6988438  17.4750914 103.6001466  53.5205882  17.0731102 103.3184147
  52.6950841  17.3719149 104.5517581  40.6339374  10.4990255  97.8079662
  39.8370538  10.6108949  98.3263157  40.4064967  10.8376907  96.9420552
  46.4645042  17.0234958 105.7562176  46.5289474  17.4855365 106.5920348
  45.7555966  16.3932323 105.8844486  36.9662332  10.3876166 103.2811176
  37.2170370  11.2723176 103.5468752  37.5021880  10.2080767 102.5086267
  60.7894432  13.8189663  99.9486437  60.0358140  13.2497061  99.7930442
  60.9241973  13.7852327 100.8957072  46.1793060  18.6903065  95.6241156
  46.0438734  19.5354601  96.0526004  46.7202872  18.8922343  94.8607090
  39.6322457  16.2078503  96.1969082  40.1446978  17.0021754  96.3474646
  40.2845170  15.5104794  96.1302683  41.4417342  19.3244260  98.2791835
  41.6183970  20.2462224  98.0912819  42.2374175  19.0102679  98.7086215
  45.5828360   6.1852524 109.8775768  46.3238074   6.7859677 109.7980231
  45.8146283   5.4430162 109.3193811  40.7269698  11.3708891 108.1553998
  40.6123213  10.4694149 108.4561097  39.8714216  11.6172588 107.8038814
  47.8061536  19.3126632 109.7541499  47.3625390  18.5263010 109.4362403
  48.4678750  19.5005782 109.0885389  42.5648657  20.8422433 104.2802177
  43.1156082  20.7139497 103.5079171  41.7260133  21.1417322 103.9297070
  49.9042774  19.5929432 107.7822900  49.8861249  20.4138313 107.2903169
  50.8262694  19.4683507 108.0073041  46.3615828  17.1073561 108.6246408
  46.8944165  16.3461849 108.3945716  45.8329909  16.8147213 109.3670563
  49.5285523   2.2133627 104.1540050  49.1849793   3.1035269 104.0779161
  49.8964486   2.0235285 103.2909635  37.5971374  14.5367158  96.9728652
  38.4346596  14.9464166  96.7562360  37.7749641  13.5966600  96.9428846
  49.4935806  12.2042238  92.6612485  48.9782429  12.9746843  92.9000872
  49.2213114  11.5307374  93.2845546  47.0782917   7.0491939  97.7197723
  46.2224513   6.6598789  97.5403362  47.4909869   7.1283900  96.8597509
  48.6082064   4.5838282 102.1189283  48.1046859   4.5468417 101.3057088
  48.9012670   5.4931025 102.1785940  44.8524949   4.6677012 101.1255465
  45.7177946   4.4719821 100.7661354  44.9202458   4.4387364 102.0524822
  54.4670080  14.9574593  94.5965659  53.6899523  14.6185752  94.1520821
  55.1461561  14.9627216  93.9220624  49.2822109  10.0769330  94.4872266
  48.9772245  10.3915479  95.3382409  50.2352551  10.1550750  94.5299599
  47.7268541  16.2359554  96.1365220  47.1989902  15.5012313  95.8238458
  47.2256044  17.0134230  95.8905189  52.7061387  14.4308574 101.2532267
  52.0485061  15.1207835 101.3412395  53.5101786  14.8205006 101.5966253
  42.4587269   6.8979220  98.4971832  43.0331020   6.6754401  97.7645025
  43.0458251   6.9667914  99.2500433  51.5166846  12.7852947  99.3036208
  52.0298727  13.4182939  99.8057918  52.1668070  12.1854142  98.9379568
  42.7856856   8.9283681  92.5167717  41.9494168   9.2658367  92.8376992
  42.6461625   8.7932661  91.5794854  44.7609936   3.7720469  97.2246901
  44.1074349   3.4569486  96.6003516  44.7190410   3.1496209  97.9506724
  45.8721141  14.0539764  89.1400193  44.9648203  13.8229017  89.3391342
  46.3692173  13.2577383  89.3274175  48.7789220  22.7637271  92.0596879
  48.1050919  23.0668968  92.6681837  49.1655042  23.5666351  91.7102336
  47.9947677  10.2602402 101.5494549  47.0770238  10.4817349 101.3916237
  48.4107820  10.3348713 100.6906256  48.7782724  11.6593818  96.6797229
  49.5254543  12.1715215  96.3704351  49.0474314  11.3377871  97.5401623
  47.0509375  14.1552359  93.6624183  46.1420594  13.8711392  93.7596653
  47.0804458  14.5751437  92.8027490  52.2828642  17.7658948  97.4315351
  51.8290969  16.9249858  97.4880541  51.6522609  18.4020347  97.7690131
  51.2261562   8.6950934  98.6616018  50.4884318   8.1828320  98.9926261
  51.4788335   8.2551316  97.8499295  50.7261581  19.6035445  98.3665169
  51.0184556  20.1640502  97.6477535  51.2360202  19.8964006  99.1218328
  51.3273189   1.4727186  99.2557788  51.6332066   0.6124550  98.9683703
  52.0525794   2.0644806  99.0556782  37.6197545  11.8757873  97.6439386
  37.4221945  11.2827234  96.9190452  37.0644209  11.5710083  98.3615324
  45.5994269  11.7680979  99.7633979  45.6542878  10.8154816  99.6876455
  44.7885471  11.9240418 100.2475277  46.7485462  15.6961102  91.0012262
  46.3104892  14.9796961  90.5417899  47.4895903  15.9237217  90.4397353
  43.5386628  10.3858039  97.5224358  42.7254494  10.6852210  97.9289550
  44.0345623   9.9913728  98.2398840  45.6895206  20.3815796  99.4558622
  45.6471385  20.6076642  98.5267154  46.6057905  20.1479171  99.6044423
  49.1360840  10.8499864 106.3539251  49.4910228  11.0771337 107.2133717
  49.7832971  11.1818240 105.7316507  54.8658577  13.9718299  97.0588580
  54.7276476  14.1619895  96.1309770  54.5094796  14.7337682  97.5156632
  43.0300703   7.9576395 103.1385592  43.6700083   7.8165154 102.4408556
  42.1978234   7.6710908 102.7624194  54.8927957  16.0394826 102.0699852
  55.3264463  15.9470116 102.9182906  55.6059537  16.0152327 101.4319868
  43.8061007  17.2578825  99.2520585  44.6001606  16.7629145  99.0503160
  43.0952700  16.7296688  98.8888291  48.6255852  19.6396921 103.6032953
  48.6792874  20.2087857 104.3710668  47.7570633  19.8098806 103.2386990
  40.1143771  11.4021907  95.3280338  39.1841359  11.3406362  95.5450300
  40.2101243  10.8797860  94.5316979  40.0329320   7.9276720  97.9158579
  40.2936137   8.8422053  97.8067740  40.8546492   7.4601162  98.0655192
  41.5054245   9.3414477 105.0857404  42.1777298   9.1331839 104.4370053
  40.6784032   9.1436563 104.6462636  55.7543506  16.0818527 104.6032737
  55.9479396  16.9864338 104.8492012  55.6544124  15.6225946 105.4371322
  47.4079817   5.9676418 107.1023065  46.7607732   6.6666367 107.0087541
  48.1780832   6.4012562 107.4699313  50.8158615  16.2325270 110.1773618
  50.6644121  16.0035822 109.2603702  50.8063294  17.1895871 110.1904963
  47.5843951  13.8057183 105.1619884  48.5136011  13.9568342 104.9888852
  47.1634981  13.8941203 104.3068531  46.3832283  17.8307847 102.9318422
  46.2443369  17.4626631 103.8044360  45.5946879  18.3455486 102.7602380
  46.9780435  22.9316943  94.2743959  47.1532191  22.4604987  95.0889581
  46.2913223  23.5582710  94.5025219  47.9337498  17.2089450 100.3207260
  47.5987331  17.1690220 101.2164910  47.4341444  16.5434166  99.8477670
  41.9081742  12.6157080 105.8459841  41.7701540  11.8837319 106.4471380
  42.8186666  12.5265980 105.5644029  50.8696690  14.5545484  90.5944319
  50.2525861  13.8292312  90.4977372  50.4013178  15.3154844  90.2511394
  44.5364043  12.3277039 105.3343521  45.2463661  11.6870231 105.2930139
  44.4933351  12.5789934 106.2569701  52.5250822  19.2644392 108.2550100
  52.4663368  18.5803613 107.5880683  52.9270340  20.0063382 107.8030726
  43.2492977   9.3142257 107.1539160  42.7130334   8.8632995 107.8060756
  42.6609685   9.4488166 106.4109624  41.5441520  26.0806306 101.0483819
  41.7838119  26.7124830 101.7262837  40.7010717  25.7294346 101.3349178
  42.6595236   8.7730908  89.7165624  41.7824702   8.6519709  89.3527870
  43.1352989   7.9816987  89.4644512  52.5268229  17.2283976 106.4864080
  51.6395008  16.8909898 106.6090478  53.0966780  16.4967008 106.7232845
  34.1797376  13.5608068  99.8107131  34.8668416  13.2469798  99.2228146
  34.0245505  14.4649433  99.5374382  38.9832098   8.4498265 104.2392155
  38.8990287   7.8423934 103.5042565  38.1614805   8.9407283 104.2401651
  46.0569382  21.8885429 103.4525323  45.9839554  22.6940400 103.9644627
  45.6146775  22.0877395 102.6273344  45.8459162  21.1257199  96.9628144
  45.0626684  21.6678879  97.0566369  46.5451907  21.6431178  97.3622385
  49.1555812   6.9351828  99.6062350  49.6524512   6.1821791  99.2863420
  48.3842794   6.9716145  99.0405559  57.0085569  12.6392194 101.2480641
  56.9975446  13.5216909 100.8774574  56.1402949  12.2863745 101.0535178
  48.5168066  21.7872263 105.6083481  49.2296038  22.4219728 105.5359383
  48.0258094  21.8836129 104.7923483  50.2385593  15.6923515  97.1800773
  49.3041871  15.8124978  97.0105477  50.4162261  14.7895982  96.9160783
  45.7390781   9.0769211  99.3334034  45.3688568   8.5240252 100.0214940
  46.2349873   8.4727345  98.7809034  53.6258144  11.5340835  97.7150807
  54.0918596  12.3668826  97.6411110  54.0765645  11.0685816  98.4196066
  43.5679979  19.5366706 106.4289052  44.2689439  20.1703189 106.5818446
  43.0975094  19.8781438 105.6684691  51.6934375  17.8784656  94.7136959
  51.9694219  17.7641251  95.6230833  50.8238874  17.4802141  94.6749132
  51.5974807   3.9021422 101.7541709  50.6837887   4.1325649 101.9223915
  52.0267908   3.9859866 102.6055741  51.3681265  12.0911314 104.2541603
  50.7152716  12.3387221 103.5994055  51.7461645  11.2775452 103.9204080
  48.3288439  22.1271007  98.3569773  48.5110834  21.3092663  98.8197525
  49.1521425  22.3438699  97.9194663  48.6630605  21.0539192  95.6184821
  49.1918371  20.5431647  95.0054983  48.9258824  20.7381722  96.4830354
  47.4168838  12.8331125 110.7407640  46.7409475  12.7325254 111.4110015
  48.2396472  12.6770338 111.2043637  39.1647697  19.0703061 103.3620155
  39.7501134  18.3246749 103.4948059  38.9672536  19.3807018 104.2456819
  42.0186353  22.1054309  98.3782597  41.3496728  22.5900436  97.8946637
  41.8799222  22.3523529  99.2925976  33.7565352  11.6408661 102.0824598
  33.7949452  11.1072252 102.8761716  33.2505645  11.1143867 101.4635575
  46.1591621  24.1398052 104.9765256  46.7109929  24.3029674 105.7414341
  46.4997815  24.7302490 104.3045280  41.1356114   6.4873202 105.5787140
  41.1997441   7.3488033 105.1664538  41.0723235   5.8747204 104.8459499
  40.6108387   8.5596334 109.2260175  41.2380426   8.1773412 109.8397699
  39.7536306   8.3410536 109.5915867  51.0102496  18.9659310 110.8313910
  51.5542399  19.5789268 110.3368865  50.4289340  19.5238888 111.3480923
  37.3873930  10.3672764  95.1578529  37.6827371   9.4583442  95.1045583
  36.4861965  10.3460503  94.8359532  49.2960008  22.0880028 101.9628938
  49.1711148  21.2869768 101.4539883  49.9539100  22.5826221 101.4742908
  40.9168177   8.4428760 101.1406078  40.1954762   9.0564728 101.0013551
  41.7061432   8.9786525 101.0622724  51.3594917  19.8889048 103.5908488
  50.4125252  19.7694399 103.5186815  51.7077690  19.0011546 103.6734749
  43.7194490   5.7783187 107.4146730  44.2428892   6.0245483 108.1773039
  43.5006823   6.6103221 106.9949867  39.1161771   8.0486861  95.2817855
  38.7874477   7.1684240  95.0992960  39.4701142   7.9934530  96.1694244
  48.3641350  19.6841764  99.7912840  48.2166313  18.7558471  99.9720410
  49.1894844  19.7061855  99.3069915  42.2303594   8.3359831  95.6493332
  42.5699667   8.8645752  94.9271941  42.6775715   8.6740237  96.4251899
  51.9675472  20.5070323 100.8777713  52.8922019  20.3013184 100.7402164
  51.7990775  20.2586724 101.7867054  44.9247035   6.7196882 105.0996400
  44.5843856   5.9204695 105.5017080  44.2186042   7.0198593 104.5273233
  45.5763507   3.8046194 103.5523723  46.3989576   3.3306672 103.4302614
  45.8201571   4.5836678 104.0522410  44.2171742   6.8334453  93.8486625
  44.9380104   7.2115705  93.3450342  43.5937046   7.5523329  93.9521603
  48.3602864   7.5379602  94.7844957  48.5766479   8.4204239  94.4833786
  47.8796932   7.1465815  94.0550599  43.1002086  10.4965315 101.3615702
  42.9546667  10.8105618 102.2539983  42.6227289  11.1150215 100.8086601
  44.9598469   7.4867863 101.4096591  44.9460037   6.5908956 101.0728889
  45.6770897   7.4938527 102.0434878  46.8124599   7.9205203 103.4549719
  46.5542377   8.8422274 103.4534049  46.2809640   7.5235638 104.1450183
  51.7570788  21.0255990  96.2339804  51.9307666  20.4602413  95.4813657
  52.2499679  21.8256885  96.0519294  37.5747748  13.0370659 104.3003363
  37.0301216  13.8130467 104.4323637  38.4527098  13.3841464 104.1422485
  44.3635365   6.3682243  96.6784162  44.4851276   5.4398889  96.8775049
  44.0737407   6.3820929  95.7662477  47.2326555   4.0537154  99.8150881
  47.2548252   4.1176487  98.8602861  47.6494614   3.2141662 100.0091388
  57.6110179  13.7892413  97.8530104  58.0541325  13.0399738  97.4549227
  56.7336690  13.7802549  97.4703836  52.7445961  20.3422755  93.3336703
  53.4396865  20.9629447  93.5524017  53.0869111  19.4918106  93.6089080
  38.3613770  12.1640556 107.1933520  37.6195506  12.3123191 107.7798150
  38.0406514  12.4248821 106.3300269  54.6437384  17.7922460  94.8624033
  55.1688708  18.1309733  94.1373353  54.5559736  16.8569475  94.6787168
  46.3057433  21.7056534 106.9913910  46.6144559  21.4605681 107.8636610
  47.1032915  21.9103172 106.5032780  46.3278045  23.8594443  99.2219287
  45.8883035  23.3670822  99.9152143  47.0786162  23.3167411  98.9811362
  38.8070384  20.0505984  99.2243915  39.6328403  19.7509756  98.8442558
  38.4564436  19.2813607  99.6733703  43.7751917  19.4032452 101.2941588
  43.1531926  18.7403157 100.9943816  44.4456784  19.4293584 100.6115236
  37.0078989  17.9692311 100.1832848  36.1710897  17.5414485 100.0016849
  36.9802634  18.1624754 101.1203639  43.8476444   7.8814240 110.8874094
  43.8964600   8.7576363 110.5051864  44.3898958   7.3391634 110.3145737
  54.3331290  18.4255364 110.1675231  53.5426834  18.4079503 109.6279731
  54.0964644  18.9643657 110.9224268  54.4529165  15.2747830 107.4807960
  54.5027170  15.1097838 108.4223483  54.3443088  14.4075089 107.0905841
  43.3365424  17.9536376  94.7700049  43.4853544  18.6371840  94.1166721
  44.1431867  17.9341466  95.2849504  51.7432927  11.2578758 108.7967267
  52.6442790  11.1185223 108.5051264  51.8180902  11.4233213 109.7365444
  46.0775733   8.6345613 107.6420453  45.2079042   8.9279179 107.3703041
  46.3135213   9.2186058 108.3627717  55.9547362  17.6944772 107.7249981
  55.6632170  18.0574752 108.5613442  55.3419493  16.9811780 107.5463313
  57.1543044  15.2597651 100.2452552  57.9889935  15.6987455 100.4090112
  57.2902173  14.7836305  99.4260797  54.2034550  12.8177386 106.1930039
  54.6788672  13.0105033 105.3848891  53.2800115  12.8736572 105.9473423
  41.0918057  13.9801553  95.7761118  40.8464099  13.0763883  95.9741328
  41.2613971  13.9818704  94.8340596  48.7814766   4.8525230 105.1585873
  49.2996710   5.5886257 104.8332362  48.4269899   5.1589223 105.9932632
  40.3613704   9.7129911  93.2747279  39.6682949   9.7874266  92.6187315
  40.1165456   8.9490255  93.7968796  49.0327361   1.2725512 100.6786770
  49.3129114   0.6048701 101.3047196  49.8177968   1.4654608 100.1661434
  46.8360829  20.4484506  92.2411796  46.2634796  21.0674693  91.7882268
  47.4093623  20.9983868  92.7751718  52.9036219   9.6943146 104.4258345
  53.8553642   9.7941244 104.4470569  52.7339669   8.9021415 104.9356429
  50.9250598   6.7798730 104.6117746  50.3300531   7.0603742 103.9164235
  50.6400295   7.2692630 105.3834487  50.0558089  20.7321656  93.3720378
  50.9888762  20.6667218  93.5753254  49.9681302  21.5677923  92.9134911
  52.6846106  20.0487527  90.3324326  52.6059737  19.7147390  91.2260084
  53.5055772  20.5409295  90.3315798  55.3824297  12.9149266 103.5400645
  55.3500617  11.9765267 103.7260328  55.9924920  12.9933303 102.8066470
  47.2207628  11.7845319  89.5827849  48.1666732  11.6551527  89.6516267
  46.8421873  11.0459981  90.0597277  55.5318785   9.7060309 103.5858928
  55.0157834   8.9218766 103.3988857  56.4158734   9.3779026 103.7505447
  53.1929512   3.4501325  99.5454740  52.9954333   3.1416413 100.4298072
  53.8029218   4.1762964  99.6752670  61.2000847  13.9765273 102.6806681
  61.9304235  13.7150561 103.2414385  60.5907792  13.2393995 102.7208749
  59.2816144  12.1173135 103.2781133  58.5549307  11.9829100 102.6697624
  58.8663431  12.4249964 104.0837851  47.1046320  15.8363065 111.0428506
  48.0249330  16.0141664 111.2368552  47.0695903  14.8919110 110.8908205
  45.4050545   9.7095295  89.5182734  44.4982000   9.4128408  89.5945448
  45.6826526   9.4125113  88.6517020  36.3228485  11.0301659  99.9681780
  36.0031270  10.1766967  99.6756154  35.7761913  11.2450237 100.7239748
  40.1008393  13.7464100 103.6851287  40.3194403  14.6781208 103.7039321
  40.5134167  13.3872074 104.4706091  47.0212611   4.2532185  95.6726975
  46.2113339   3.9079270  96.0482221  47.7097027   3.9439729  96.2614587
  48.9503159   3.3310232  97.2951272  49.5034197   3.7505685  97.9541295
  49.1873245   2.4045980  97.3374228  44.9736258   9.3197306 113.0754036
  44.8732985  10.2691663 113.0066127  44.7557800   8.9915544 112.2030106
  44.1749329   6.5682231  89.6594713  45.0368493   6.8937129  89.9190530
  44.3599674   5.7813727  89.1467779  36.1916745  14.6504570 101.9374902
  35.4980217  14.2358523 101.4244856  36.9389736  14.6925107 101.3408321
  52.3281966   5.4410757  96.8029936  51.7480635   6.0995561  96.4207989
  52.0617899   4.6188102  96.3917354  50.7785532   4.8415815  99.0051256
  51.2785311   4.9532349  98.1965575  51.4221140   4.5376868  99.6452065
  44.8367528  12.7494444 111.8919097  44.3534610  13.5494805 112.0982986
  44.9228467  12.7602389 110.9386541  38.1053488  14.5822824  99.8140917
  38.0824176  14.6810511  98.8622800  38.4154124  15.4287975 100.1358083
  40.7640866  16.6398979 103.9287531  41.7184119  16.6082921 103.8617463
  40.5653389  16.1789603 104.7437757  41.3540248  15.2100095 106.4958329
  42.1733137  15.7044174 106.5193166  41.6277055  14.2932063 106.4675896
  51.1106844   7.6010847  95.8586284  50.2232699   7.8860498  95.6406479
  51.5260833   7.4404611  95.0113561  54.4621380   7.6257368  99.5740624
  55.2381770   8.1153821  99.8465240  53.7369514   8.0515423 100.0312493
  56.8993939   8.3384988 100.6314564  57.4938429   8.0980724  99.9207872
  56.9720522   7.6192118 101.2588101  39.1191094  22.1818599 100.9457729
  38.9845562  21.4218999 100.3795727  38.7023157  22.9059498 100.4786518
  50.2550057  17.3655522  89.9534304  50.9585908  17.5705525  90.5691960
  49.5312706  17.9332284  90.2183388  51.0847868  13.1165383  96.0736575
  51.0283069  13.5733935  95.2344207  51.6376210  12.3556068  95.8959417
  54.8952674   8.9055115  96.8986694  54.6389608   8.5051751  97.7294902
  54.2705542   9.6198909  96.7736833  59.2065011  11.6451188  99.4057985
  58.6464569  11.7144378 100.1789547  58.6008515  11.4692173  98.6857482
  42.2760220  23.0787916 101.1576172  42.1592604  24.0233348 101.0554862
  41.4552667  22.7761477 101.5461971  52.1636755  17.8038051  92.0032764
  52.9982359  17.3719250  91.8210239  52.0021098  17.6320065  92.9309659
  51.8182647  14.3070165  93.3689104  51.7631451  14.1414436  92.4277548
  51.1928702  15.0146198  93.5251293  36.6075162   9.5438229 107.1950526
  37.2534026   9.0337183 107.6837751  36.3992313  10.2806911 107.7693951
  49.1328554  16.6119076 112.6942666  50.0019714  16.7859729 112.3329301
  48.6535306  17.4313493 112.5718396  45.1278772   3.8078274  92.9474422
  45.1157442   4.7520114  93.1042693  46.0202194   3.6248419  92.6533883
  43.3014734  23.7316177 104.3732100  44.2041981  23.7639788 104.6898595
  43.0752104  22.8016628 104.3878436  45.0568336  22.4847164 101.0342179
  44.1063967  22.4849026 100.9206551  45.3600823  21.7379899 100.5178213
  48.9430892   0.4021050  97.2020359  48.1763288  -0.1520463  97.3477041
  49.3541597   0.4742919  98.0634511  60.7921030  28.3207702 102.0987941
  61.4299440  28.2014450 101.3951281  60.6741873  29.2688546 102.1575893
  57.6010736  28.2735131 102.0349466  57.2629248  28.1576195 101.1470001
  58.4700504  27.8726296 102.0150472  53.4597552  30.1270607  98.0246357
  52.8962417  30.0360544  97.2562645  53.3449947  29.3070511  98.5048849
  58.0830519  29.4269982 107.9935671  58.0719160  29.0322781 107.1216175
  58.2451159  28.6936055 108.5869443  51.0061984  31.6221799 100.8630577
  51.7983276  31.2812623 100.4476877  51.2458634  31.7316774 101.7832731
  59.0397111  33.7941575  93.3360822  58.3885090  34.3795655  92.9494835
  59.8341473  34.3247770  93.3955859  52.9652738  30.8830712  93.7347956
  53.7383614  30.3359699  93.5960832  53.3178137  31.7474961  93.9462417
  54.8037780  32.2107094 106.9414855  54.5127646  33.1152725 106.8261522
  55.4394765  32.2523622 107.6558925  55.7293987  29.5883943 103.5316215
  56.3257559  29.3639965 102.8173178  55.7868959  28.8468688 104.1341663
  60.3462298  26.0459156  99.1741149  61.1325388  25.6278579  98.8231566
  60.6101003  26.9505248  99.3422798  60.5172376  31.4832007  93.8729806
  59.8818209  31.5566633  94.5850711  60.1869782  32.0725605  93.1948885
  65.7470726  25.9834389 100.0774128  66.4795897  25.4133606 100.3111957
  64.9910081  25.5955990 100.5180633  55.0215304  28.9451484  93.5690781
  54.9051562  28.2696387  94.2371865  55.1317564  28.4583858  92.7522934
  57.3646845  28.4061631  97.2737470  57.0005052  27.8792252  97.9850392
  58.2213961  28.0160100  97.1003956  63.2696146  19.6955964 104.5368736
  62.9379471  20.5651375 104.3129951  62.6741759  19.3792248 105.2162767
  57.0052332  23.4351531  92.2698819  57.1726735  24.3031767  92.6369290
  56.8149501  23.5978812  91.3460108  59.7627665  31.8968510 103.9364649
  59.4628388  32.7993548 103.8280456  59.4178725  31.6300693 104.7885802
  53.2140147  28.3482306  99.9701353  52.2890643  28.2158521 100.1779045
  53.4624560  29.1276526 100.4671296  63.1624809  24.4151050 101.6162086
  62.2541687  24.3466458 101.3220847  63.1112405  24.8922995 102.4443912
  56.9841553  25.8909188  93.2545485  56.8641178  26.3366239  94.0930966
  56.2894141  26.2394506  92.6959024  50.5748958  27.9915580 100.8045143
  50.7041339  28.2450059 101.7184554  49.8946409  28.5843288 100.4849798
  54.7448445  38.6612830  96.9035617  54.6672475  39.6120655  96.9824097
  54.1410089  38.3158702  97.5610543  57.2365675  25.8340695 109.5596984
  56.4599009  26.3934615 109.5499848  57.8756238  26.3197478 110.0811854
  65.0286456  22.6167488 103.3939960  64.3860836  22.9100021 102.7479755
  64.5241384  22.5020409 104.1993157  62.6826619  26.3630661  94.0825820
  63.5944475  26.5958048  93.9073517  62.1736266  26.9467706  93.5200898
  55.4912047  28.6426149 109.1214951  56.2326732  29.1811193 108.8449774
  54.7849033  29.2692437 109.2786502  60.9667387  30.7855289 107.7187112
  61.3750743  30.3437700 106.9741744  60.2444648  30.2107917 107.9721305
  57.3198457  25.7227896 105.0920669  58.1659652  26.1467310 105.2355318
  57.2597095  25.0661520 105.7859232  61.2896202  31.3456480 101.4739401
  60.6605064  31.5102194 100.7715469  60.9021864  31.7598089 102.2450365
  65.1685433  32.2810918  98.8283765  64.4836472  32.6609819  98.2780798
  65.2529283  32.8906244  99.5615713  60.4697902  23.3832264 106.7501843
  60.2258834  24.1374325 106.2136118  60.7457833  23.7617612 107.5849090
  62.4236365  29.9270877 105.4279108  62.6353260  30.5702637 104.7513489
  62.3766113  29.0933193 104.9601038  60.0262594  22.5388697 102.3315680
  59.1647073  22.8369951 102.6232418  60.0525029  22.7559096 101.3996713
  56.8424163  31.0830888  98.7389486  57.3062509  31.3618591  97.9494109
  56.5780962  30.1814332  98.5562577  53.7348244  30.6302369 101.6769249
  54.3049602  31.0589638 101.0386734  54.3256356  30.3484954 102.3753435
  55.7793049  27.2054040  95.5479051  56.4817093  27.6575084  96.0152978
  55.4473678  26.5637859  96.1758944  54.2273411  25.7965797 109.9230261
  53.5972072  26.4782078 110.1565657  54.1209499  25.6848878 108.9783399
  49.5218383  25.4637593 100.8496185  48.7317437  25.7195121 100.3736295
  50.0129631  26.2785931 100.9548225  63.5382193  32.8042832 103.6001466
  64.3599637  32.4023019 103.3184147  63.5344596  32.7011066 104.5517581
  51.4733129  25.8282172  97.8079662  50.6764292  25.9400866  98.3263157
  51.2458721  26.1668824  96.9420552  57.3038796  32.3526875 105.7562176
  57.3683229  32.8147283 106.5920348  56.5949720  31.7224240 105.8844486
  47.8056086  25.7168083 103.2811176  48.0564125  26.6015093 103.5468752
  48.3415635  25.5372685 102.5086267  71.6288186  29.1481581  99.9486437
  70.8751894  28.5788979  99.7930442  71.7635727  29.1144245 100.8957072
  57.0186814  34.0194983  95.6241156  56.8832489  34.8646519  96.0526004
  57.5596627  34.2214261  94.8607090  53.5054154  20.0986563 112.2855512
  53.1121099  19.5452761 112.9603156  54.3220294  20.4097141 112.6762029
  50.4716211  31.5370421  96.1969082  50.9840732  32.3313671  96.3474646
  51.1238924  30.8396711  96.1302683  52.2811096  34.6536177  98.2791835
  52.4577725  35.5754142  98.0912819  53.0767930  34.3394596  98.7086215
  56.4222115  21.5144442 109.8775768  57.1631828  22.1151595 109.7980231
  56.6540038  20.7722080 109.3193811  51.5663453  26.7000809 108.1553998
  51.4516968  25.7986066 108.4561097  50.7107970  26.9464506 107.8038814
  58.6455290  34.6418549 109.7541499  58.2019145  33.8554928 109.4362403
  59.3072504  34.8297700 109.0885389  53.4042412  36.1714351 104.2802177
  53.9549837  36.0431414 103.5079171  52.5653888  36.4709240 103.9297070
  60.7436529  34.9221349 107.7822900  60.7255004  35.7430230 107.2903169
  61.6656449  34.7975425 108.0073041  57.2009583  32.4365479 108.6246408
  57.7337919  31.6753767 108.3945716  56.6723664  32.1439131 109.3670563
  60.3679278  17.5425545 104.1540050  60.0243547  18.4327186 104.0779161
  60.7358240  17.3527202 103.2909635  48.4365128  29.8659075  96.9728652
  49.2740350  30.2756084  96.7562360  48.6143396  28.9258517  96.9428846
  60.3329560  27.5334156  92.6612485  59.8176184  28.3038761  92.9000872
  60.0606869  26.8599292  93.2845546  57.9176671  22.3783857  97.7197723
  57.0618268  21.9890707  97.5403362  58.3303623  22.4575817  96.8597509
  59.4475818  19.9130200 102.1189283  58.9440614  19.8760335 101.3057088
  59.7406425  20.8222943 102.1785940  55.6918704  19.9968930 101.1255465
  56.5571701  19.8011738 100.7661354  55.7596213  19.7679281 102.0524822
  65.3063835  30.2866511  94.5965659  64.5293277  29.9477670  94.1520821
  65.9855315  30.2919134  93.9220624  60.1215864  25.4061248  94.4872266
  59.8165999  25.7207397  95.3382409  61.0746306  25.4842668  94.5299599
  58.5662295  31.5651471  96.1365220  58.0383657  30.8304231  95.8238458
  58.0649798  32.3426148  95.8905189  63.5455141  29.7600492 101.2532267
  62.8878816  30.4499753 101.3412395  64.3495541  30.1496924 101.5966253
  53.2981023  22.2271138  98.4971832  53.8724775  22.0046319  97.7645025
  53.8852005  22.2959832  99.2500433  62.3560600  28.1144864  99.3036208
  62.8692482  28.7474856  99.8057918  63.0061824  27.5146060  98.9379568
  53.6250610  24.2575599  92.5167717  52.7887922  24.5950285  92.8376992
  53.4855380  24.1224578  91.5794854  55.6003691  19.1012386  97.2246901
  54.9468103  18.7861404  96.6003516  55.5584165  18.4788127  97.9506724
  58.8341431  25.5894320 101.5494549  57.9163992  25.8109267 101.3916237
  59.2501575  25.6640630 100.6906256  59.6176479  26.9885736  96.6797229
  60.3648298  27.5007133  96.3704351  59.8868068  26.6669788  97.5401623
  57.8903129  29.4844276  93.6624183  56.9814348  29.2003309  93.7596653
  57.9198213  29.9043355  92.8027490  63.1222396  33.0950866  97.4315351
  62.6684724  32.2541776  97.4880541  62.4916363  33.7312264  97.7690131
  62.0655316  24.0242852  98.6616018  61.3278073  23.5120238  98.9926261
  62.3182090  23.5843234  97.8499295  61.5655336  34.9327363  98.3665169
  61.8578310  35.4932420  97.6477535  62.0753956  35.2255924  99.1218328
  62.1666943  16.8019104  99.2557788  62.4725820  15.9416467  98.9683703
  62.8919548  17.3936724  99.0556782  48.4591299  27.2049791  97.6439386
  48.2615699  26.6119151  96.9190452  47.9037963  26.9002001  98.3615324
  56.4388023  27.0972897  99.7633979  56.4936633  26.1446733  99.6876455
  55.6279225  27.2532336 100.2475277  54.3780383  25.7149957  97.5224358
  53.5648249  26.0144127  97.9289550  54.8739377  25.3205646  98.2398840
  56.5288961  35.7107714  99.4558622  56.4865140  35.9368560  98.5267154
  57.4451660  35.4771088  99.6044423  59.9754595  26.1791781 106.3539251
  60.3303982  26.4063254 107.2133717  60.6226726  26.5110158 105.7316507
  65.7052332  29.3010217  97.0588580  65.5670230  29.4911813  96.1309770
  65.3488550  30.0629600  97.5156632  53.8694458  23.2868312 103.1385592
  54.5093837  23.1457071 102.4408556  53.0371988  23.0002826 102.7624194
  65.7321711  31.3686744 102.0699852  66.1658218  31.2762033 102.9182906
  66.4453292  31.3444245 101.4319868  54.6454762  32.5870743  99.2520585
  55.4395360  32.0921063  99.0503160  53.9346454  32.0588606  98.8888291
  59.4649606  34.9688838 103.6032953  59.5186628  35.5379775 104.3710668
  58.5964387  35.1390723 103.2386990  50.9537525  26.7313824  95.3280338
  50.0235113  26.6698280  95.5450300  51.0494997  26.2089777  94.5316979
  50.8723074  23.2568637  97.9158579  51.1329891  24.1713971  97.8067740
  51.6940246  22.7893080  98.0655192  52.3447999  24.6706394 105.0857404
  53.0171053  24.4623757 104.4370053  51.5177786  24.4728480 104.6462636
  66.5937261  31.4110445 104.6032737  66.7873151  32.3156255 104.8492012
  66.4937879  30.9517864 105.4371322  58.2473572  21.2968335 107.1023065
  57.6001487  21.9958285 107.0087541  59.0174587  21.7304479 107.4699313
  61.6552369  31.5617188 110.1773618  61.5037876  31.3327739 109.2603702
  61.6457049  32.5187789 110.1904963  58.4237706  29.1349100 105.1619884
  59.3529766  29.2860260 104.9888852  58.0028736  29.2233121 104.3068531
  57.2226038  33.1599765 102.9318422  57.0837123  32.7918549 103.8044360
  56.4340634  33.6747404 102.7602380  57.8174190  38.2608861  94.2743959
  57.9925945  37.7896904  95.0889581  57.1306978  38.8874627  94.5025219
  58.7731253  32.5381367 100.3207260  58.4381085  32.4982137 101.2164910
  58.2735198  31.8726083  99.8477670  52.7475497  27.9448997 105.8459841
  52.6095295  27.2129236 106.4471380  53.6580420  27.8557898 105.5644029
  55.3757797  27.6568957 105.3343521  56.0857416  27.0162149 105.2930139
  55.3327106  27.9081852 106.2569701  63.3644576  34.5936310 108.2550100
  63.3057122  33.9095530 107.5880683  63.7664094  35.3355300 107.8030726
  54.0886731  24.6434175 107.1539160  53.5524088  24.1924913 107.8060756
  53.5003440  24.7780083 106.4109624  52.3835275  41.4098224 101.0483819
  52.6231873  42.0416748 101.7262837  51.5404471  41.0586264 101.3349178
  63.3661983  32.5575894 106.4864080  62.4788762  32.2201816 106.6090478
  63.9360534  31.8258925 106.7232845  45.0191130  28.8899986  99.8107131
  45.7062170  28.5761716  99.2228146  44.8639259  29.7941350  99.5374382
  49.8225853  23.7790182 104.2392155  49.7384041  23.1715852 103.5042565
  49.0008559  24.2699201 104.2401651  56.8963137  37.2177346 103.4525323
  56.8233308  38.0232318 103.9644627  56.4540530  37.4169312 102.6273344
  56.6852916  36.4549116  96.9628144  55.9020438  36.9970797  97.0566369
  57.3845662  36.9723096  97.3622385  59.9949566  22.2643746  99.6062350
  60.4918266  21.5113708  99.2863420  59.2236548  22.3008063  99.0405559
  67.8479324  27.9684111 101.2480641  67.8369200  28.8508827 100.8774574
  66.9796703  27.6155662 101.0535178  59.3561820  37.1164180 105.6083481
  60.0689792  37.7511645 105.5359383  58.8651849  37.2128046 104.7923483
  61.0779347  31.0215433  97.1800773  60.1435626  31.1416896  97.0105477
  61.2556016  30.1187900  96.9160783  56.5784535  24.4061129  99.3334034
  56.2082323  23.8532169 100.0214940  57.0743628  23.8019262  98.7809034
  64.4651899  26.8632752  97.7150807  64.9312351  27.6960744  97.6411110
  64.9159399  26.3977734  98.4196066  54.4073734  34.8658624 106.4289052
  55.1083193  35.4995107 106.5818446  53.9368849  35.2073355 105.6684691
  62.4368561  19.2313339 101.7541709  61.5231641  19.4617566 101.9223915
  62.8661663  19.3151783 102.6055741  62.2075020  27.4203231 104.2541603
  61.5546470  27.6679139 103.5994055  62.5855400  26.6067370 103.9204080
  59.1682194  37.4562924  98.3569773  59.3504588  36.6384580  98.8197525
  59.9915180  37.6730617  97.9194663  59.5024359  36.3831110  95.6184821
  60.0312126  35.8723564  95.0054983  59.7652579  36.0673640  96.4830354
  58.2562593  28.1623042 110.7407640  57.5803230  28.0617172 111.4110015
  59.0790227  28.0062256 111.2043637  50.0041452  34.3994979 103.3620155
  50.5894889  33.6538667 103.4948059  49.8066290  34.7098936 104.2456819
  52.8580107  37.4346226  98.3782597  52.1890482  37.9192354  97.8946637
  52.7192977  37.6815447  99.2925976  44.5959107  26.9700579 102.0824598
  44.6343206  26.4364170 102.8761716  44.0899399  26.4435785 101.4635575
  56.9985376  39.4689970 104.9765256  57.5503684  39.6321591 105.7414341
  57.3391569  40.0594408 104.3045280  51.9749869  21.8165120 105.5787140
  52.0391195  22.6779951 105.1664538  51.9116989  21.2039121 104.8459499
  51.4502141  23.8888252 109.2260175  52.0774180  23.5065329 109.8397699
  50.5930060  23.6702454 109.5915867  61.8496250  34.2951227 110.8313910
  62.3936154  34.9081186 110.3368865  61.2683095  34.8530806 111.3480923
  48.2267684  25.6964681  95.1578529  48.5221125  24.7875360  95.1045583
  47.3255720  25.6752421  94.8359532  60.1353763  37.4171945 101.9628938
  60.0104902  36.6161685 101.4539883  60.7932854  37.9118139 101.4742908
  51.7561931  23.7720678 101.1406078  51.0348517  24.3856646 101.0013551
  52.5455187  24.3078443 101.0622724  62.1988671  35.2180965 103.5908488
  61.2519007  35.0986317 103.5186815  62.5471444  34.3303463 103.6734749
  54.5588245  21.1075104 107.4146730  55.0822647  21.3537401 108.1773039
  54.3400578  21.9395139 106.9949867  49.9555526  23.3778779  95.2817855
  49.6268232  22.4976158  95.0992960  50.3094896  23.3226448  96.1694244
  59.2035105  35.0133682  99.7912840  59.0560067  34.0850389  99.9720410
  60.0288598  35.0353772  99.3069915  53.0697349  23.6651749  95.6493332
  53.4093421  24.1937670  94.9271941  53.5169469  24.0032155  96.4251899
  62.8069226  35.8362240 100.8777713  63.7315774  35.6305102 100.7402164
  62.6384530  35.5878642 101.7867054  55.7640790  22.0488799 105.0996400
  55.4237610  21.2496613 105.5017080  55.0579796  22.3490510 104.5273233
  56.4157262  19.1338112 103.5523723  57.2383331  18.6598590 103.4302614
  56.6595325  19.9128596 104.0522410  55.0565496  22.1626370  93.8486625
  55.7773859  22.5407623  93.3450342  54.4330800  22.8815247  93.9521603
  59.1996619  22.8671519  94.7844957  59.4160233  23.7496157  94.4833786
  58.7190686  22.4757733  94.0550599  53.9395840  25.8257233 101.3615702
  53.7940421  26.1397536 102.2539983  53.4621044  26.4442133 100.8086601
  55.7992223  22.8159781 101.4096591  55.7853792  21.9200874 101.0728889
  56.5164651  22.8230444 102.0434878  57.6518354  23.2497121 103.4549719
  57.3936132  24.1714191 103.4534049  57.1203394  22.8527555 104.1450183
  62.5964543  36.3547908  96.2339804  62.7701420  35.7894330  95.4813657
  63.0893434  37.1548803  96.0519294  48.4141502  28.3662577 104.3003363
  47.8694971  29.1422385 104.4323637  49.2920852  28.7133381 104.1422485
  55.2029119  21.6974161  96.6784162  55.3245030  20.7690807  96.8775049
  54.9131162  21.7112847  95.7662477  58.0720310  19.3829071  99.8150881
  58.0942006  19.4468404  98.8602861  58.4888369  18.5433580 100.0091388
  68.4503934  29.1184331  97.8530104  68.8935080  28.3691656  97.4549227
  67.5730444  29.1094467  97.4703836  49.2007524  27.4932473 107.1933520
  48.4589260  27.6415109 107.7798150  48.8800269  27.7540739 106.3300269
  57.1451187  37.0348451 106.9913910  57.4538313  36.7897598 107.8636610
  57.9426669  37.2395090 106.5032780  57.1671799  39.1886361  99.2219287
  56.7276789  38.6962740  99.9152143  57.9179916  38.6459329  98.9811362
  49.6464138  35.3797902  99.2243915  50.4722158  35.0801674  98.8442558
  49.2958190  34.6105524  99.6733703  54.6145671  34.7324370 101.2941588
  53.9925680  34.0695075 100.9943816  55.2850538  34.7585502 100.6115236
  47.8472743  33.2984228 100.1832848  47.0104651  32.8706403 100.0016849
  47.8196389  33.4916672 101.1203639  54.6870199  23.2106158 110.8874094
  54.7358354  24.0868281 110.5051864  55.2292713  22.6683551 110.3145737
  65.1725044  33.7547281 110.1675231  64.3820588  33.7371420 109.6279731
  64.9358399  34.2935575 110.9224268  65.2922919  30.6039748 107.4807960
  65.3420924  30.4389755 108.4223483  65.1836843  29.7367007 107.0905841
  54.1759178  33.2828293  94.7700049  54.3247298  33.9663758  94.1166721
  54.9825622  33.2633384  95.2849504  62.5826682  26.5870676 108.7967267
  63.4836545  26.4477141 108.5051264  62.6574656  26.7525131 109.7365444
  56.9169487  23.9637531 107.6420453  56.0472797  24.2571097 107.3703041
  57.1528967  24.5477976 108.3627717  66.7941116  33.0236689 107.7249981
  66.5025925  33.3866670 108.5613442  66.1813248  32.3103698 107.5463313
  67.9936799  30.5889569 100.2452552  68.8283690  31.0279373 100.4090112
  68.1295927  30.1128222  99.4260797  65.0428304  28.1469304 106.1930039
  65.5182426  28.3396950 105.3848891  64.1193870  28.2028490 105.9473423
  51.9311811  29.3093471  95.7761118  51.6857853  28.4055801  95.9741328
  52.1007726  29.3110622  94.8340596  59.6208521  20.1817147 105.1585873
  60.1390465  20.9178174 104.8332362  59.2663654  20.4881141 105.9932632
  51.2007459  25.0421829  93.2747279  50.5076704  25.1166184  92.6187315
  50.9559211  24.2782172  93.7968796  59.8721115  16.6017430 100.6786770
  60.1522869  15.9340619 101.3047196  60.6571722  16.7946526 100.1661434
  63.7429973  25.0235064 104.4258345  64.6947396  25.1233162 104.4470569
  63.5733424  24.2313333 104.9356429  61.7644353  22.1090647 104.6117746
  61.1694285  22.3895660 103.9164235  61.4794050  22.5984548 105.3834487
  66.2218051  28.2441184 103.5400645  66.1894371  27.3057184 103.7260328
  66.8318675  28.3225220 102.8066470  66.3712540  25.0352227 103.5858928
  65.8551588  24.2510684 103.3988857  67.2552488  24.7070944 103.7505447
  64.0323267  18.7793243  99.5454740  63.8348088  18.4708331 100.4298072
  64.6422972  19.5054882  99.6752670  72.0394601  29.3057191 102.6806681
  72.7697990  29.0442479 103.2414385  71.4301547  28.5685912 102.7208749
  70.1209898  27.4465053 103.2781133  69.3943062  27.3121018 102.6697624
  69.7057185  27.7541882 104.0837851  57.9440075  31.1654983 111.0428506
  58.8643084  31.3433582 111.2368552  57.9089658  30.2211028 110.8908205
  47.1622240  26.3593576  99.9681780  46.8425024  25.5058885  99.6756154
  46.6155668  26.5742155 100.7239748  50.9402147  29.0756017 103.6851287
  51.1588157  30.0073125 103.7039321  51.3527921  28.7163992 104.4706091
  57.8606365  19.5824103  95.6726975  57.0507093  19.2371188  96.0482221
  58.5490782  19.2731647  96.2614587  59.7896913  18.6602150  97.2951272
  60.3427952  19.0797603  97.9541295  60.0267000  17.7337898  97.3374228
  55.8130013  24.6489223 113.0754036  55.7126739  25.5983580 113.0066127
  55.5951555  24.3207462 112.2030106  47.0310500  29.9796488 101.9374902
  46.3373971  29.5650441 101.4244856  47.7783491  30.0217024 101.3408321
  63.1675720  20.7702675  96.8029936  62.5874389  21.4287479  96.4207989
  62.9011653  19.9480019  96.3917354  61.6179287  20.1707732  99.0051256
  62.1179065  20.2824267  98.1965575  62.2614895  19.8668785  99.6452065
  55.6761283  28.0786362 111.8919097  55.1928364  28.8786722 112.0982986
  55.7622222  28.0894307 110.9386541  48.9447242  29.9114742  99.8140917
  48.9217930  30.0102429  98.8622800  49.2547879  30.7579893 100.1358083
  51.6034620  31.9690897 103.9287531  52.5577874  31.9374839 103.8617463
  51.4047144  31.5081521 104.7437757  52.1934002  30.5392013 106.4958329
  53.0126891  31.0336091 106.5193166  52.4670810  29.6223981 106.4675896
  61.9500598  22.9302765  95.8586284  61.0626453  23.2152416  95.6406479
  62.3654587  22.7696529  95.0113561  65.3015135  22.9549286  99.5740624
  66.0775525  23.4445739  99.8465240  64.5763269  23.3807340 100.0312493
  67.7387693  23.6676905 100.6314564  68.3332184  23.4272641  99.9207872
  67.8114277  22.9484036 101.2588101  49.9584849  37.5110516 100.9457729
  49.8239317  36.7510917 100.3795727  49.5416911  38.2351416 100.4786518
  61.9241622  28.4457301  96.0736575  61.8676824  28.9025852  95.2344207
  62.4769965  27.6847986  95.8959417  65.7346428  24.2347033  96.8986694
  65.4783362  23.8343669  97.7294902  65.1099296  24.9490827  96.7736833
  70.0458766  26.9743106  99.4057985  69.4858324  27.0436295 100.1789547
  69.4402269  26.7984091  98.6857482  53.1153975  38.4079833 101.1576172
  52.9986359  39.3525266 101.0554862  52.2946421  38.1053395 101.5461971
  62.6576401  29.6362082  93.3689104  62.6025205  29.4706354  92.4277548
  62.0322457  30.3438115  93.5251293  47.4468916  24.8730147 107.1950526
  48.0927780  24.3629101 107.6837751  47.2386068  25.6098828 107.7693951
  59.9722309  31.9410994 112.6942666  60.8413468  32.1151646 112.3329301
  59.4929060  32.7605411 112.5718396  55.9672527  19.1370191  92.9474422
  55.9551197  20.0812031  93.1042693  56.8595949  18.9540337  92.6533883
  54.1408489  39.0608095 104.3732100  55.0435736  39.0931705 104.6898595
  53.9145859  38.1308546 104.3878436  55.8962091  37.8139082 101.0342179
  54.9457722  37.8140943 100.9206551  56.1994577  37.0671816 100.5178213
  59.7824646  15.7312968  97.2020359  59.0157042  15.1771455  97.3477041
  60.1935351  15.8034837  98.0634511  51.7866407  22.0197764 111.2925540
  52.6497869  21.6634569 111.5028865  51.2131818  21.6811659 111.9800944
  71.6314784  43.6499620 102.0987941  72.2693194  43.5306367 101.3951281
  71.5135627  44.5980464 102.1575893  68.4404491  43.6027048 102.0349466
  68.1023002  43.4868113 101.1470001  69.3094259  43.2018213 102.0150472
  68.9224274  44.7561900 107.9935671  68.9112914  44.3614698 107.1216175
  69.0844913  44.0227973 108.5869443  65.6431535  47.5399012 106.9414855
  65.3521401  48.4444643 106.8261522  66.2788519  47.5815539 107.6558925
  66.5687742  44.9175860 103.5316215  67.1651314  44.6931883 102.8173178
  66.6262713  44.1760606 104.1341663  71.1856053  41.3751074  99.1741149
  71.9719142  40.9570497  98.8231566  71.4494757  42.2797166  99.3422798
  76.5864480  41.3126307 100.0774128  77.3189652  40.7425524 100.3111957
  75.8303836  40.9247908 100.5180633  74.1089900  35.0247881 104.5368736
  73.7773225  35.8943292 104.3129951  73.5135514  34.7084165 105.2162767
  70.6021420  47.2260427 103.9364649  70.3022143  48.1285466 103.8280456
  70.2572479  46.9592610 104.7885802  64.0533901  43.6774224  99.9701353
  63.1284398  43.5450438 100.1779045  64.3018315  44.4568443 100.4671296
  74.0018564  39.7442967 101.6162086  73.0935441  39.6758376 101.3220847
  73.9506159  40.2214912 102.4443912  61.4142712  43.3207498 100.8045143
  61.5435094  43.5741977 101.7184554  60.7340164  43.9135206 100.4849798
  68.0759429  41.1632613 109.5596984  67.2992763  41.7226533 109.5499848
  68.7149992  41.6489396 110.0811854  75.8680210  37.9459406 103.3939960
  75.2254590  38.2391939 102.7479755  75.3635139  37.8312326 104.1993157
  66.3305802  43.9718066 109.1214951  67.0720486  44.5103110 108.8449774
  65.6242787  44.5984355 109.2786502  71.8061141  46.1147207 107.7187112
  72.2144497  45.6729617 106.9741744  71.0838403  45.5399834 107.9721305
  68.1592211  41.0519814 105.0920669  69.0053407  41.4759227 105.2355318
  68.0990849  40.3953438 105.7859232  72.1289956  46.6748397 101.4739401
  71.4998818  46.8394112 100.7715469  71.7415618  47.0890007 102.2450365
  71.3091657  38.7124182 106.7501843  71.0652589  39.4666243 106.2136118
  71.5851587  39.0909530 107.5849090  73.2630120  45.2562794 105.4279108
  73.4747015  45.8994554 104.7513489  73.2159868  44.4225111 104.9601038
  70.8656348  37.8680615 102.3315680  70.0040828  38.1661869 102.6232418
  70.8918783  38.0851014 101.3996713  65.0667165  41.1257715 109.9230261
  64.4365826  41.8073995 110.1565657  64.9603253  41.0140796 108.9783399
  60.3612138  40.7929511 100.8496185  59.5711192  41.0487039 100.3736295
  60.8523385  41.6077848 100.9548225  74.3775947  48.1334750 103.6001466
  75.1993391  47.7314937 103.3184147  74.3738350  48.0302984 104.5517581
  62.3126883  41.1574090  97.8079662  61.5158047  41.2692784  98.3263157
  62.0852476  41.4960742  96.9420552  68.1432551  47.6818793 105.7562176
  68.2076983  48.1439200 106.5920348  67.4343475  47.0516158 105.8844486
  58.6449841  41.0460001 103.2811176  58.8957879  41.9307011 103.5468752
  59.1809389  40.8664603 102.5086267  82.4681941  44.4773498  99.9486437
  81.7145649  43.9080896  99.7930442  82.6029482  44.4436163 100.8957072
  64.3447908  35.4278480 112.2855512  63.9514854  34.8744679 112.9603156
  65.1614049  35.7389059 112.6762029  67.2615869  36.8436360 109.8775768
  68.0025583  37.4443513 109.7980231  67.4933792  36.1013997 109.3193811
  62.4057207  42.0292727 108.1553998  62.2910722  41.1277984 108.4561097
  61.5501725  42.2756424 107.8038814  69.4849045  49.9710467 109.7541499
  69.0412899  49.1846846 109.4362403  70.1466259  50.1589618 109.0885389
  64.2436166  51.5006269 104.2802177  64.7943591  51.3723332 103.5079171
  63.4047642  51.8001158 103.9297070  71.5830283  50.2513267 107.7822900
  71.5648758  51.0722148 107.2903169  72.5050203  50.1267342 108.0073041
  68.0403337  47.7657396 108.6246408  68.5731674  47.0045685 108.3945716
  67.5117418  47.4731048 109.3670563  71.2073032  32.8717462 104.1540050
  70.8637302  33.7619104 104.0779161  71.5751995  32.6819120 103.2909635
  70.2869573  35.2422118 102.1189283  69.7834368  35.2052253 101.3057088
  70.5800179  36.1514860 102.1785940  66.5312458  35.3260847 101.1255465
  67.3965455  35.1303656 100.7661354  66.5989967  35.0971199 102.0524822
  74.3848896  45.0892409 101.2532267  73.7272570  45.7791671 101.3412395
  75.1889295  45.4788841 101.5966253  64.1374777  37.5563055  98.4971832
  64.7118529  37.3338237  97.7645025  64.7245760  37.6251750  99.2500433
  73.1954355  43.4436782  99.3036208  73.7086236  44.0766774  99.8057918
  73.8455579  42.8437978  98.9379568  66.4397445  34.4304304  97.2246901
  65.7861858  34.1153321  96.6003516  66.3977919  33.8080045  97.9506724
  69.6735186  40.9186238 101.5494549  68.7557747  41.1401185 101.3916237
  70.0895329  40.9932548 100.6906256  72.9049070  39.3534770  98.6616018
  72.1671827  38.8412156  98.9926261  73.1575844  38.9135151  97.8499295
  73.0060698  32.1311022  99.2557788  73.3119575  31.2708385  98.9683703
  73.7313303  32.7228642  99.0556782  59.2985054  42.5341708  97.6439386
  59.1009454  41.9411069  96.9190452  58.7431718  42.2293918  98.3615324
  67.2781778  42.4264815  99.7633979  67.3330387  41.4738651  99.6876455
  66.4672980  42.5824254 100.2475277  70.8148349  41.5083699 106.3539251
  71.1697737  41.7355172 107.2133717  71.4620480  41.8402076 105.7316507
  76.5446086  44.6302135  97.0588580  76.4063985  44.8203731  96.1309770
  76.1882305  45.3921518  97.5156632  64.7088212  38.6160230 103.1385592
  65.3487592  38.4748989 102.4408556  63.8765743  38.3294743 102.7624194
  76.5715466  46.6978662 102.0699852  77.0051972  46.6053951 102.9182906
  77.2847046  46.6736162 101.4319868  70.3043361  50.2980756 103.6032953
  70.3580383  50.8671692 104.3710668  69.4358142  50.4682641 103.2386990
  61.7116829  38.5860555  97.9158579  61.9723646  39.5005888  97.8067740
  62.5334001  38.1184998  98.0655192  63.1841754  39.9998312 105.0857404
  63.8564807  39.7915674 104.4370053  62.3571541  39.8020398 104.6462636
  77.4331015  46.7402362 104.6032737  77.6266905  47.6448173 104.8492012
  77.3331633  46.2809782 105.4371322  69.0867326  36.6260253 107.1023065
  68.4395241  37.3250203 107.0087541  69.8568341  37.0596397 107.4699313
  72.4946124  46.8909105 110.1773618  72.3431630  46.6619657 109.2603702
  72.4850803  47.8479707 110.1904963  69.2631460  44.4641018 105.1619884
  70.1923520  44.6152178 104.9888852  68.8422490  44.5525039 104.3068531
  68.0619792  48.4891682 102.9318422  67.9230878  48.1210467 103.8044360
  67.2734388  49.0039322 102.7602380  63.5869251  43.2740915 105.8459841
  63.4489049  42.5421154 106.4471380  64.4974175  43.1849815 105.5644029
  66.2151552  42.9860874 105.3343521  66.9251170  42.3454067 105.2930139
  66.1720860  43.2373769 106.2569701  74.2038331  49.9228228 108.2550100
  74.1450877  49.2387448 107.5880683  74.6057849  50.6647218 107.8030726
  64.9280486  39.9726092 107.1539160  64.3917843  39.5216831 107.8060756
  64.3397194  40.1072001 106.4109624  63.2229029  56.7390142 101.0483819
  63.4625628  57.3708666 101.7262837  62.3798226  56.3878182 101.3349178
  74.2055738  47.8867812 106.4864080  73.3182517  47.5493733 106.6090478
  74.7754289  47.1550843 106.7232845  60.6619607  39.1082100 104.2392155
  60.5777796  38.5007770 103.5042565  59.8402314  39.5991118 104.2401651
  67.7356891  52.5469264 103.4525323  67.6627063  53.3524236 103.9644627
  67.2934284  52.7461230 102.6273344  70.8343321  37.5935664  99.6062350
  71.3312021  36.8405626  99.2863420  70.0630302  37.6299980  99.0405559
  78.6873078  43.2976029 101.2480641  78.6762955  44.1800744 100.8774574
  77.8190458  42.9447580 101.0535178  70.1955575  52.4456098 105.6083481
  70.9083547  53.0803563 105.5359383  69.7045603  52.5419964 104.7923483
  67.4178290  39.7353047  99.3334034  67.0476077  39.1824087 100.0214940
  67.9137382  39.1311180  98.7809034  65.2467488  50.1950542 106.4289052
  65.9476948  50.8287025 106.5818446  64.7762603  50.5365273 105.6684691
  73.2762316  34.5605257 101.7541709  72.3625396  34.7909484 101.9223915
  73.7055417  34.6443701 102.6055741  73.0468774  42.7495149 104.2541603
  72.3940225  42.9971056 103.5994055  73.4249154  41.9359287 103.9204080
  69.0956347  43.4914960 110.7407640  68.4196984  43.3909089 111.4110015
  69.9183981  43.3354174 111.2043637  55.4352861  42.2992497 102.0824598
  55.4736961  41.7656087 102.8761716  54.9293154  41.7727702 101.4635575
  67.8379130  54.7981888 104.9765256  68.3897438  54.9613509 105.7414341
  68.1785324  55.3886325 104.3045280  62.8143623  37.1457037 105.5787140
  62.8784950  38.0071868 105.1664538  62.7510744  36.5331039 104.8459499
  62.2895896  39.2180170 109.2260175  62.9167935  38.8357247 109.8397699
  61.4323815  38.9994372 109.5915867  72.6890004  49.6243145 110.8313910
  73.2329908  50.2373103 110.3368865  72.1076849  50.1822723 111.3480923
  59.0661439  41.0256599  95.1578529  59.3614880  40.1167277  95.1045583
  58.1649474  41.0044338  94.8359532  62.5955686  39.1012596 101.1406078
  61.8742271  39.7148563 101.0013551  63.3848941  39.6370360 101.0622724
  73.0382426  50.5472883 103.5908488  72.0912761  50.4278234 103.5186815
  73.3865199  49.6595381 103.6734749  65.3981999  36.4367022 107.4146730
  65.9216401  36.6829319 108.1773039  65.1794332  37.2687057 106.9949867
  66.6034544  37.3780717 105.0996400  66.2631365  36.5788530 105.5017080
  65.8973551  37.6782428 104.5273233  67.2551016  34.4630030 103.5523723
  68.0777085  33.9890508 103.4302614  67.4989080  35.2420513 104.0522410
  64.7789595  41.1549150 101.3615702  64.6334176  41.4689453 102.2539983
  64.3014798  41.7734051 100.8086601  66.6385978  38.1451698 101.4096591
  66.6247546  37.2492791 101.0728889  67.3558406  38.1522362 102.0434878
  68.4912108  38.5789038 103.4549719  68.2329886  39.5006109 103.4534049
  67.9597149  38.1819473 104.1450183  59.2535257  43.6954495 104.3003363
  58.7088725  44.4714303 104.4323637  60.1314607  44.0425299 104.1422485
  68.9114064  34.7120989  99.8150881  68.9335761  34.7760322  98.8602861
  69.3282123  33.8725498 100.0091388  79.2897688  44.4476248  97.8530104
  79.7328834  43.6983574  97.4549227  78.4124199  44.4386385  97.4703836
  60.0401279  42.8224391 107.1933520  59.2983015  42.9707026 107.7798150
  59.7194023  43.0832656 106.3300269  67.9844941  52.3640369 106.9913910
  68.2932068  52.1189516 107.8636610  68.7820424  52.5687008 106.5032780
  65.4539426  50.0616288 101.2941588  64.8319435  49.3986993 100.9943816
  66.1244293  50.0877420 100.6115236  65.5263953  38.5398076 110.8874094
  65.5752109  39.4160199 110.5051864  66.0686467  37.9975469 110.3145737
  76.0118799  49.0839199 110.1675231  75.2214343  49.0663338 109.6279731
  75.7752153  49.6227493 110.9224268  76.1316674  45.9331665 107.4807960
  76.1814679  45.7681673 108.4223483  76.0230597  45.0658924 107.0905841
  73.4220436  41.9162593 108.7967267  74.3230299  41.7769058 108.5051264
  73.4968411  42.0817048 109.7365444  67.7563242  39.2929448 107.6420453
  66.8866551  39.5863014 107.3703041  67.9922722  39.8769893 108.3627717
  77.6334871  48.3528607 107.7249981  77.3419679  48.7158588 108.5613442
  77.0207002  47.6395615 107.5463313  78.8330553  45.9181487 100.2452552
  79.6677444  46.3571291 100.4090112  78.9689682  45.4420140  99.4260797
  75.8822059  43.4761222 106.1930039  76.3576181  43.6688868 105.3848891
  74.9587624  43.5320407 105.9473423  70.4602275  35.5109065 105.1585873
  70.9784219  36.2470092 104.8332362  70.1057408  35.8173058 105.9932632
  70.7114870  31.9309348 100.6786770  70.9916623  31.2632537 101.3047196
  71.4965477  32.1238443 100.1661434  74.5823728  40.3526982 104.4258345
  75.5341151  40.4525079 104.4470569  74.4127178  39.5605250 104.9356429
  72.6038107  37.4382565 104.6117746  72.0088040  37.7187578 103.9164235
  72.3187804  37.9276466 105.3834487  77.0611806  43.5733101 103.5400645
  77.0288126  42.6349102 103.7260328  77.6712429  43.6517138 102.8066470
  77.2106294  40.3644145 103.5858928  76.6945343  39.5802601 103.3988857
  78.0946243  40.0362861 103.7505447  74.8717021  34.1085160  99.5454740
  74.6741842  33.8000249 100.4298072  75.4816727  34.8346799  99.6752670
  82.8788356  44.6349108 102.6806681  83.6091744  44.3734396 103.2414385
  82.2695301  43.8977830 102.7208749  80.9603653  42.7756971 103.2781133
  80.2336816  42.6412936 102.6697624  80.5450940  43.0833799 104.0837851
  68.7833829  46.4946900 111.0428506  69.7036839  46.6725499 111.2368552
  68.7483412  45.5502946 110.8908205  58.0015994  41.6885494  99.9681780
  57.6818779  40.8350802  99.6756154  57.4549422  41.9034072 100.7239748
  61.7795902  44.4047935 103.6851287  61.9981911  45.3365043 103.7039321
  62.1921676  44.0455910 104.4706091  66.6523767  39.9781141 113.0754036
  66.5520494  40.9275498 113.0066127  66.4345309  39.6499380 112.2030106
  72.4573041  35.4999650  99.0051256  72.9572820  35.6116185  98.1965575
  73.1008649  35.1960703  99.6452065  66.5155037  43.4078280 111.8919097
  66.0322119  44.2078640 112.0982986  66.6015976  43.4186225 110.9386541
  59.7840997  45.2406659  99.8140917  59.7611685  45.3394347  98.8622800
  60.0941633  46.0871810 100.1358083  62.4428375  47.2982814 103.9287531
  63.3971628  47.2666757 103.8617463  62.2440898  46.8373438 104.7437757
  63.0327757  45.8683930 106.4958329  63.8520646  46.3628009 106.5193166
  63.3064564  44.9515899 106.4675896  76.1408889  38.2841204  99.5740624
  76.9169279  38.7737656  99.8465240  75.4157023  38.7099258 100.0312493
  78.5781448  38.9968823 100.6314564  79.1725938  38.7564559  99.9207872
  78.6508031  38.2775954 101.2588101  80.8852520  42.3035024  99.4057985
  80.3252078  42.3728213 100.1789547  80.2796024  42.1276008  98.6857482
  58.2862671  40.2022064 107.1950526  58.9321535  39.6921018 107.6837751
  58.0779822  40.9390746 107.7693951  70.8116063  47.2702912 112.6942666
  71.6807223  47.4443564 112.3329301  70.3322815  48.0897329 112.5718396
  64.9802243  54.3900013 104.3732100  65.8829490  54.4223623 104.6898595
  64.7539613  53.4600464 104.3878436  62.6260162  37.3489681 111.2925540
  63.4891623  36.9926486 111.5028865  62.0525573  37.0103576 111.9800944
  82.4708539  58.9791538 102.0987941  83.1086949  58.8598285 101.3951281
  82.3529382  59.9272382 102.1575893  79.2798245  58.9318966 102.0349466
  78.9416757  58.8160031 101.1470001  80.1488013  58.5310131 102.0150472
  79.7618028  60.0853818 107.9935671  79.7506669  59.6906616 107.1216175
  79.9238668  59.3519890 108.5869443  80.7184620  64.4525410  93.3360822
  80.0672599  65.0379490  92.9494835  81.5128982  64.9831605  93.3955859
  76.4825289  62.8690929 106.9414855  76.1915155  63.7736560 106.8261522
  77.1182274  62.9107457 107.6558925  77.4081496  60.2467778 103.5316215
  78.0045068  60.0223800 102.8173178  77.4656468  59.5052523 104.1341663
  82.0249807  56.7042992  99.1741149  82.8112897  56.2862415  98.8231566
  82.2888512  57.6089084  99.3422798  87.4258234  56.6418225 100.0774128
  88.1583406  56.0717442 100.3111957  86.6697590  56.2539825 100.5180633
  79.0434354  59.0645466  97.2737470  78.6792561  58.5376087  97.9850392
  79.9001470  58.6743935  97.1003956  84.9483655  50.3539799 104.5368736
  84.6166980  51.2235210 104.3129951  84.3529268  50.0376083 105.2162767
  81.4415174  62.5552345 103.9364649  81.1415897  63.4577384 103.8280456
  81.0966234  62.2884528 104.7885802  84.8412318  55.0734885 101.6162086
  83.9329195  55.0050294 101.3220847  84.7899914  55.5506830 102.4443912
  78.9153184  56.4924531 109.5596984  78.1386518  57.0518451 109.5499848
  79.5543747  56.9781314 110.0811854  86.7073965  53.2751324 103.3939960
  86.0648345  53.5683857 102.7479755  86.2028893  53.1604244 104.1993157
  84.3614128  57.0214497  94.0825820  85.2731984  57.2541883  93.9073517
  83.8523775  57.6051541  93.5200898  77.1699556  59.3009984 109.1214951
  77.9114241  59.8395028 108.8449774  76.4636542  59.9276273 109.2786502
  82.6454896  61.4439125 107.7187112  83.0538252  61.0021535 106.9741744
  81.9232157  60.8691752 107.9721305  78.9985966  56.3811731 105.0920669
  79.8447161  56.8051145 105.2355318  78.9384604  55.7245356 105.7859232
  82.9683711  62.0040315 101.4739401  82.3392573  62.1686029 100.7715469
  82.5809373  62.4181925 102.2450365  86.8472942  62.9394753  98.8283765
  86.1623981  63.3193654  98.2780798  86.9316792  63.5490080  99.5615713
  82.1485411  54.0416100 106.7501843  81.9046343  54.7958160 106.2136118
  82.4245342  54.4201447 107.5849090  84.1023874  60.5854712 105.4279108
  84.3140769  61.2286472 104.7513489  84.0553622  59.7517029 104.9601038
  81.7050103  53.1972533 102.3315680  80.8434582  53.4953786 102.6232418
  81.7312538  53.4142932 101.3996713  78.5211672  61.7414723  98.7389486
  78.9850018  62.0202426  97.9494109  78.2568471  60.8398168  98.5562577
  75.9060920  56.4549632 109.9230261  75.2759581  57.1365913 110.1565657
  75.7997008  56.3432714 108.9783399  85.2169702  63.4626667 103.6001466
  86.0387146  63.0606855 103.3184147  85.2132105  63.3594902 104.5517581
  78.9826305  63.0110711 105.7562176  79.0470738  63.4731118 106.5920348
  78.2737229  62.3808076 105.8844486  69.4843595  56.3751919 103.2811176
  69.7351634  57.2598929 103.5468752  70.0203144  56.1956520 102.5086267
  93.3075695  59.8065416  99.9486437  92.5539403  59.2372814  99.7930442
  93.4423236  59.7728080 100.8957072  78.6974323  64.6778818  95.6241156
  78.5619998  65.5230354  96.0526004  79.2384136  64.8798096  94.8607090
  75.1841663  50.7570398 112.2855512  74.7908608  50.2036597 112.9603156
  76.0007803  51.0680977 112.6762029  78.1009624  52.1728277 109.8775768
  78.8419337  52.7735430 109.7980231  78.3327547  51.4305915 109.3193811
  73.2450962  57.3584644 108.1553998  73.1304477  56.4569902 108.4561097
  72.3895479  57.6048341 107.8038814  80.3242799  65.3002385 109.7541499
  79.8806654  64.5138763 109.4362403  80.9860013  65.4881535 109.0885389
  75.0829921  66.8298186 104.2802177  75.6337346  66.7015250 103.5079171
  74.2441397  67.1293075 103.9297070  82.4224038  65.5805185 107.7822900
  82.4042513  66.4014066 107.2903169  83.3443958  65.4559260 108.0073041
  78.8797092  63.0949314 108.6246408  79.4125428  62.3337602 108.3945716
  78.3511173  62.8022966 109.3670563  82.0466787  48.2009380 104.1540050
  81.7031056  49.0911022 104.0779161  82.4145749  48.0111038 103.2909635
  81.1263327  50.5714035 102.1189283  80.6228123  50.5344170 101.3057088
  81.4193934  51.4806778 102.1785940  86.9851343  60.9450346  94.5965659
  86.2080786  60.6061505  94.1520821  87.6642824  60.9502969  93.9220624
  80.2449804  62.2235307  96.1365220  79.7171166  61.4888066  95.8238458
  79.7437307  63.0009983  95.8905189  85.2242650  60.4184327 101.2532267
  84.5666325  61.1083589 101.3412395  86.0283050  60.8080759 101.5966253
  84.0348109  58.7728700  99.3036208  84.5479991  59.4058692  99.8057918
  84.6849333  58.1729895  98.9379568  81.2970483  68.7513024  92.0596879
  80.6232182  69.0544721  92.6681837  81.6836305  69.5542104  91.7102336
  80.5128940  56.2478155 101.5494549  79.5951501  56.4693102 101.3916237
  80.9289084  56.3224466 100.6906256  81.2963988  57.6469571  96.6797229
  82.0435807  58.1590968  96.3704351  81.5655577  57.3253624  97.5401623
  79.5690638  60.1428112  93.6624183  78.6601857  59.8587145  93.7596653
  79.5985722  60.5627190  92.8027490  84.8009905  63.7534701  97.4315351
  84.3472233  62.9125611  97.4880541  84.1703872  64.3896100  97.7690131
  83.7442825  54.6826687  98.6616018  83.0065582  54.1704074  98.9926261
  83.9969599  54.2427069  97.8499295  83.2442845  65.5911198  98.3665169
  83.5365819  66.1516255  97.6477535  83.7541465  65.8839759  99.1218328
  83.8454452  47.4602939  99.2557788  84.1513329  46.6000303  98.9683703
  84.5707057  48.0520560  99.0556782  78.1175532  57.7556732  99.7633979
  78.1724142  56.8030569  99.6876455  77.3066734  57.9116171 100.2475277
  78.2076470  66.3691549  99.4558622  78.1652649  66.5952395  98.5267154
  79.1239169  66.1354924  99.6044423  81.6542104  56.8375617 106.3539251
  82.0091491  57.0647090 107.2133717  82.3014235  57.1693993 105.7316507
  87.3839841  59.9594052  97.0588580  87.2457739  60.1495648  96.1309770
  87.0276059  60.7213435  97.5156632  87.4109220  62.0270579 102.0699852
  87.8445727  61.9345869 102.9182906  88.1240801  62.0028080 101.4319868
  81.1437115  65.6272674 103.6032953  81.1974137  66.1963610 104.3710668
  80.2751896  65.7974559 103.2386990  74.0235508  55.3290230 105.0857404
  74.6958562  55.1207592 104.4370053  73.1965295  55.1312316 104.6462636
  88.2724770  62.0694280 104.6032737  88.4660660  62.9740091 104.8492012
  88.1725388  61.6101699 105.4371322  79.9261080  51.9552171 107.1023065
  79.2788996  52.6542120 107.0087541  80.6962096  52.3888315 107.4699313
  83.3339878  62.2201023 110.1773618  83.1825385  61.9911575 109.2603702
  83.3244558  63.1771624 110.1904963  80.1025215  59.7932936 105.1619884
  81.0317275  59.9444095 104.9888852  79.6816245  59.8816956 104.3068531
  78.9013547  63.8183600 102.9318422  78.7624632  63.4502384 103.8044360
  78.1128143  64.3331239 102.7602380  79.4961699  68.9192697  94.2743959
  79.6713454  68.4480740  95.0889581  78.8094487  69.5458463  94.5025219
  80.4518762  63.1965203 100.3207260  80.1168594  63.1565973 101.2164910
  79.9522707  62.5309919  99.8477670  74.4263006  58.6032833 105.8459841
  74.2882804  57.8713072 106.4471380  75.3367929  58.5141733 105.5644029
  77.0545306  58.3152792 105.3343521  77.7644925  57.6745984 105.2930139
  77.0114615  58.5665687 106.2569701  85.0432085  65.2520145 108.2550100
  84.9844631  64.5679366 107.5880683  85.4451603  65.9939135 107.8030726
  75.7674240  55.3018010 107.1539160  75.2311597  54.8508748 107.8060756
  75.1790949  55.4363919 106.4109624  74.0622784  72.0682059 101.0483819
  74.3019382  72.7000583 101.7262837  73.2191980  71.7170099 101.3349178
  85.0449492  63.2159729 106.4864080  84.1576271  62.8785651 106.6090478
  85.6148043  62.4842761 106.7232845  66.6978639  59.5483821  99.8107131
  67.3849679  59.2345551  99.2228146  66.5426768  60.4525186  99.5374382
  71.5013362  54.4374018 104.2392155  71.4171550  53.8299687 103.5042565
  70.6796068  54.9283036 104.2401651  78.5750646  67.8761182 103.4525323
  78.5020817  68.6816153 103.9644627  78.1328039  68.0753148 102.6273344
  78.3640425  67.1132952  96.9628144  77.5807947  67.6554632  97.0566369
  79.0633171  67.6306931  97.3622385  81.6737075  52.9227581  99.6062350
  82.1705775  52.1697544  99.2863420  80.9024057  52.9591898  99.0405559
  89.5266833  58.6267947 101.2480641  89.5156709  59.5092662 100.8774574
  88.6584212  58.2739498 101.0535178  81.0349329  67.7748016 105.6083481
  81.7477301  68.4095481 105.5359383  80.5439358  67.8711882 104.7923483
  82.7566856  61.6799268  97.1800773  81.8223135  61.8000731  97.0105477
  82.9343525  60.7771735  96.9160783  86.1439408  57.5216588  97.7150807
  86.6099860  58.3544579  97.6411110  86.5946908  57.0561569  98.4196066
  76.0861243  65.5242459 106.4289052  76.7870702  66.1578942 106.5818446
  75.6156358  65.8657191 105.6684691  84.2115639  63.8660409  94.7136959
  84.4875483  63.7517004  95.6230833  83.3420137  63.4677894  94.6749132
  84.1156070  49.8897175 101.7541709  83.2019150  50.1201402 101.9223915
  84.5449172  49.9735619 102.6055741  83.8862529  58.0787067 104.2541603
  83.2333979  58.3262974 103.5994055  84.2642909  57.2651205 103.9204080
  80.8469703  68.1146760  98.3569773  81.0292097  67.2968416  98.8197525
  81.6702689  68.3314452  97.9194663  81.1811868  67.0414945  95.6184821
  81.7099635  66.5307400  95.0054983  81.4440088  66.7257475  96.4830354
  79.9350102  58.8206878 110.7407640  79.2590739  58.7201007 111.4110015
  80.7577736  58.6646091 111.2043637  66.2746616  57.6284414 102.0824598
  66.3130715  57.0948005 102.8761716  65.7686908  57.1019620 101.4635575
  78.6772885  70.1273805 104.9765256  79.2291193  70.2905427 105.7414341
  79.0179078  70.7178243 104.3045280  73.6537378  52.4748955 105.5787140
  73.7178704  53.3363786 105.1664538  73.5904498  51.8622957 104.8459499
  73.1289650  54.5472088 109.2260175  73.7561689  54.1649165 109.8397699
  72.2717569  54.3286289 109.5915867  83.5283759  64.9535063 110.8313910
  84.0723663  65.5665021 110.3368865  82.9470604  65.5114641 111.3480923
  81.8141272  68.0755781 101.9628938  81.6892411  67.2745521 101.4539883
  82.4720363  68.5701974 101.4742908  83.8776180  65.8764801 103.5908488
  82.9306516  65.7570152 103.5186815  84.2258953  64.9887299 103.6734749
  76.2375754  51.7658940 107.4146730  76.7610156  52.0121236 108.1773039
  76.0188087  52.5978975 106.9949867  80.8822614  65.6717517  99.7912840
  80.7347576  64.7434224  99.9720410  81.7076107  65.6937608  99.3069915
  84.4856735  66.4946076 100.8777713  85.4103283  66.2888937 100.7402164
  84.3172039  66.2462477 101.7867054  77.4428299  52.7072635 105.0996400
  77.1025119  51.9080448 105.5017080  76.7367305  53.0074346 104.5273233
  78.0944771  49.7921947 103.5523723  78.9170840  49.3182425 103.4302614
  78.3382834  50.5712431 104.0522410  84.2752052  67.0131743  96.2339804
  84.4488929  66.4478166  95.4813657  84.7680943  67.8132638  96.0519294
  70.0929011  59.0246412 104.3003363  69.5482480  59.8006220 104.4323637
  70.9708361  59.3717217 104.1422485  90.1291443  59.7768166  97.8530104
  90.5722589  59.0275491  97.4549227  89.2517953  59.7678302  97.4703836
  85.2627224  66.3298508  93.3336703  85.9578129  66.9505200  93.5524017
  85.6050374  65.4793859  93.6089080  70.8795033  58.1516309 107.1933520
  70.1376769  58.2998944 107.7798150  70.5587778  58.4124574 106.3300269
  87.1618647  63.7798213  94.8624033  87.6869971  64.1185486  94.1373353
  87.0741000  62.8445228  94.6787168  78.8238696  67.6932287 106.9913910
  79.1325822  67.4481434 107.8636610  79.6214178  67.8978925 106.5032780
  78.8459308  69.8470196  99.2219287  78.4064298  69.3546575  99.9152143
  79.5967425  69.3043164  98.9811362  76.3657708  53.8689994 110.8874094
  76.4145863  54.7452116 110.5051864  76.9080222  53.3267387 110.3145737
  86.8512553  64.4131117 110.1675231  86.0608097  64.3955256 109.6279731
  86.6145908  64.9519410 110.9224268  86.9710428  61.2623583 107.4807960
  87.0208433  61.0973591 108.4223483  86.8624352  60.3950842 107.0905841
  84.2614191  57.2454511 108.7967267  85.1624054  57.1060976 108.5051264
  84.3362165  57.4108966 109.7365444  78.5956996  54.6221366 107.6420453
  77.7260306  54.9154932 107.3703041  78.8316476  55.2061811 108.3627717
  88.4728625  63.6820525 107.7249981  88.1813434  64.0450505 108.5613442
  87.8600757  62.9687533 107.5463313  89.6724308  61.2473404 100.2452552
  90.5071199  61.6863208 100.4090112  89.8083436  60.7712058  99.4260797
  86.7215813  58.8053139 106.1930039  87.1969935  58.9980786 105.3848891
  85.7981379  58.8612325 105.9473423  81.2996030  50.8400983 105.1585873
  81.8177974  51.5762010 104.8332362  80.9451163  51.1464976 105.9932632
  81.5508624  47.2601265 100.6786770  81.8310378  46.5924454 101.3047196
  82.3359231  47.4530361 100.1661434  79.3542093  66.4360259  92.2411796
  78.7816060  67.0550446  91.7882268  79.9274886  66.9859621  92.7751718
  85.4217482  55.6818899 104.4258345  86.3734905  55.7816997 104.4470569
  85.2520933  54.8897168 104.9356429  83.4431862  52.7674483 104.6117746
  82.8481794  53.0479495 103.9164235  83.1581559  53.2568384 105.3834487
  82.5739352  66.7197409  93.3720378  83.5070026  66.6542971  93.5753254
  82.4862565  67.5553676  92.9134911  87.9005560  58.9025019 103.5400645
  87.8681880  57.9641020 103.7260328  88.5106184  58.9809056 102.8066470
  88.0500049  55.6936062 103.5858928  87.5339097  54.9094519 103.3988857
  88.9339997  55.3654779 103.7505447  85.7110776  49.4377078  99.5454740
  85.5135597  49.1292166 100.4298072  86.3210481  50.1638717  99.6752670
  93.7182110  59.9641026 102.6806681  94.4485499  59.7026314 103.2414385
  93.1089056  59.2269748 102.7208749  91.7997407  58.1048888 103.2781133
  91.0730571  57.9704853 102.6697624  91.3844694  58.4125717 104.0837851
  79.6227584  61.8238818 111.0428506  80.5430593  62.0017417 111.2368552
  79.5877167  60.8794864 110.8908205  77.4917522  55.3073059 113.0754036
  77.3914248  56.2567416 113.0066127  77.2739064  54.9791297 112.2030106
  84.8463229  51.4286510  96.8029936  84.2661898  52.0871314  96.4207989
  84.5799162  50.6063855  96.3917354  83.2966796  50.8291568  99.0051256
  83.7966574  50.9408102  98.1965575  83.9402404  50.5252621  99.6452065
  77.3548792  58.7370197 111.8919097  76.8715873  59.5370558 112.0982986
  77.4409731  58.7478142 110.9386541  73.8721511  61.1975848 106.4958329
  74.6914400  61.6919927 106.5193166  74.1458319  60.2807816 106.4675896
  83.6288107  53.5886600  95.8586284  82.7413962  53.8736251  95.6406479
  84.0442096  53.4280364  95.0113561  86.9802644  53.6133121  99.5740624
  87.7563034  54.1029574  99.8465240  86.2550778  54.0391176 100.0312493
  89.4175202  54.3260741 100.6314564  90.0119693  54.0856477  99.9207872
  89.4901786  53.6067871 101.2588101  83.6029131  59.1041136  96.0736575
  83.5464333  59.5609688  95.2344207  84.1557474  58.3431821  95.8959417
  87.4133937  54.8930868  96.8986694  87.1570871  54.4927504  97.7294902
  86.7886805  55.6074662  96.7736833  91.7246275  57.6326942  99.4057985
  91.1645833  57.7020131 100.1789547  91.1189778  57.4567926  98.6857482
  74.7941484  69.0663669 101.1576172  74.6773868  70.0109101 101.0554862
  73.9733930  68.7637230 101.5461971  69.1256425  55.5313982 107.1950526
  69.7715289  55.0212936 107.6837751  68.9173577  56.2682664 107.7693951
  81.6509818  62.5994830 112.6942666  82.5200977  62.7735482 112.3329301
  81.1716569  63.4189246 112.5718396  75.8195998  69.7191931 104.3732100
  76.7223245  69.7515541 104.6898595  75.5933368  68.7892381 104.3878436
  77.5749600  68.4722917 101.0342179  76.6245231  68.4724779 100.9206551
  77.8782086  67.7255652 100.5178213  81.4612155  46.3896803  97.2020359
  80.6944551  45.8355290  97.3477041  81.8722860  46.4618672  98.0634511
  73.4653916  52.6781599 111.2925540  74.3285378  52.3218404 111.5028865
  72.8919327  52.3395494 111.9800944  93.3102293  74.3083455 102.0987941
  93.9480703  74.1890203 101.3951281  93.1923136  75.2564299 102.1575893
  90.1192000  74.2610884 102.0349466  89.7810511  74.1451948 101.1470001
  90.9881768  73.8602049 102.0150472  85.9778815  76.1146360  98.0246357
  85.4143680  76.0236297  97.2562645  85.8631210  75.2946264  98.5048849
  90.6011783  75.4145735 107.9935671  90.5900423  75.0198534 107.1216175
  90.7632422  74.6811808 108.5869443  83.5243247  77.6097552 100.8630577
  84.3164539  77.2688376 100.4476877  83.7639897  77.7192527 101.7832731
  85.4834001  76.8706465  93.7347956  86.2564877  76.3235452  93.5960832
  85.8359400  77.7350714  93.9462417  87.3219044  78.1982847 106.9414855
  87.0308910  79.1028478 106.8261522  87.9576028  78.2399375 107.6558925
  88.2475251  75.5759696 103.5316215  88.8438823  75.3515718 102.8173178
  88.3050222  74.8344441 104.1341663  92.8643562  72.0334909  99.1741149
  93.6506651  71.6154332  98.8231566  93.1282266  72.9381001  99.3422798
  98.2651989  71.9710143 100.0774128  98.9977161  71.4009359 100.3111957
  97.5091345  71.5831743 100.5180633  87.5396568  74.9327237  93.5690781
  87.4232826  74.2572140  94.2371865  87.6498828  74.4459611  92.7522934
  89.8828109  74.3937384  97.2737470  89.5186316  73.8668005  97.9850392
  90.7395225  74.0035853  97.1003956  95.7877409  65.6831717 104.5368736
  95.4560734  66.5527128 104.3129951  95.1923023  65.3668001 105.2162767
  89.5233596  69.4227284  92.2698819  89.6907998  70.2907520  92.6369290
  89.3330765  69.5854565  91.3460108  92.2808929  77.8844263 103.9364649
  91.9809652  78.7869301 103.8280456  91.9359988  77.6176446 104.7885802
  85.7321410  74.3358059  99.9701353  84.8071907  74.2034274 100.1779045
  85.9805824  75.1152279 100.4671296  95.6806073  70.4026803 101.6162086
  94.7722950  70.3342211 101.3220847  95.6293668  70.8798748 102.4443912
  89.5022817  71.8784941  93.2545485  89.3822442  72.3241992  94.0930966
  88.8075405  72.2270259  92.6959024  83.0930221  73.9791333 100.8045143
  83.2222603  74.2325812 101.7184554  82.4127673  74.5719041 100.4849798
  89.7546938  71.8216448 109.5596984  88.9780272  72.3810369 109.5499848
  90.3937501  72.3073231 110.0811854  97.5467719  68.6043241 103.3939960
  96.9042099  68.8975774 102.7479755  97.0422648  68.4896162 104.1993157
  95.2007883  72.3506414  94.0825820  96.1125739  72.5833801  93.9073517
  94.6917530  72.9343459  93.5200898  88.0093311  74.6301902 109.1214951
  88.7507995  75.1686946 108.8449774  87.3030296  75.2568190 109.2786502
  93.4848650  76.7731042 107.7187112  93.8932006  76.3313453 106.9741744
  92.7625912  76.1983670 107.9721305  89.8379720  71.7103649 105.0920669
  90.6840916  72.1343063 105.2355318  89.7778358  71.0537273 105.7859232
  93.8077465  77.3332233 101.4739401  93.1786327  77.4977947 100.7715469
  93.4203127  77.7473842 102.2450365  92.9879166  69.3708017 106.7501843
  92.7440098  70.1250078 106.2136118  93.2639096  69.7493365 107.5849090
  94.9417629  75.9146630 105.4279108  95.1534524  76.5578390 104.7513489
  94.8947377  75.0808946 104.9601038  92.5443857  68.5264450 102.3315680
  91.6828337  68.8245704 102.6232418  92.5706292  68.7434849 101.3996713
  89.3605427  77.0706641  98.7389486  89.8243772  77.3494344  97.9494109
  89.0962225  76.1690086  98.5562577  86.2529508  76.6178122 101.6769249
  86.8230865  77.0465391 101.0386734  86.8437620  76.3360707 102.3753435
  88.2974313  73.1929793  95.5479051  88.9998356  73.6450837  96.0152978
  87.9654941  72.5513612  96.1758944  86.7454674  71.7841550 109.9230261
  86.1153335  72.4657831 110.1565657  86.6390762  71.6724632 108.9783399
  82.0399647  71.4513346 100.8496185  81.2498701  71.7070874 100.3736295
  82.5310894  72.2661684 100.9548225  96.0563456  78.7918585 103.6001466
  96.8780900  78.3898772 103.3184147  96.0525859  78.6886819 104.5517581
  83.9914392  71.8157925  97.8079662  83.1945556  71.9276619  98.3263157
  83.7639984  72.1544577  96.9420552  89.8220060  78.3402628 105.7562176
  89.8864492  78.8023036 106.5920348  89.1130984  77.7099993 105.8844486
  80.3237350  71.7043836 103.2811176  80.5745388  72.5890846 103.5468752
  80.8596898  71.5248438 102.5086267 104.1469450  75.1357334  99.9486437
 103.3933158  74.5664732  99.7930442 104.2816991  75.1019998 100.8957072
  89.5368078  80.0070736  95.6241156  89.4013752  80.8522272  96.0526004
  90.0777890  80.2090014  94.8607090  86.0235417  66.0862316 112.2855512
  85.6302363  65.5328514 112.9603156  86.8401558  66.3972894 112.6762029
  82.9897475  77.5246174  96.1969082  83.5021996  78.3189424  96.3474646
  83.6420188  76.8272464  96.1302683  84.7992360  80.6411930  98.2791835
  84.9758988  81.5629895  98.0912819  85.5949193  80.3270349  98.7086215
  88.9403378  67.5020195 109.8775768  89.6813092  68.1027348 109.7980231
  89.1721301  66.7597833 109.3193811  84.0844716  72.6876562 108.1553998
  83.9698231  71.7861819 108.4561097  83.2289234  72.9340259 107.8038814
  91.1636554  80.6294302 109.7541499  90.7200408  79.8430681 109.4362403
  91.8253768  80.8173453 109.0885389  85.9223675  82.1590104 104.2802177
  86.4731100  82.0307167 103.5079171  85.0835151  82.4584993 103.9297070
  93.2617792  80.9097102 107.7822900  93.2436267  81.7305983 107.2903169
  94.1837712  80.7851178 108.0073041  89.7190846  78.4241232 108.6246408
  90.2519183  77.6629520 108.3945716  89.1904927  78.1314884 109.3670563
  92.8860541  63.5301298 104.1540050  92.5424811  64.4202939 104.0779161
  93.2539504  63.3402955 103.2909635  80.9546392  75.8534828  96.9728652
  81.7921614  76.2631837  96.7562360  81.1324659  74.9134270  96.9428846
  92.8510824  73.5209909  92.6612485  92.3357447  74.2914514  92.9000872
  92.5788132  72.8475045  93.2845546  90.4357935  68.3659610  97.7197723
  89.5799531  67.9766460  97.5403362  90.8484887  68.4451570  96.8597509
  91.9657082  65.9005953 102.1189283  91.4621877  65.8636088 101.3057088
  92.2587688  66.8098696 102.1785940  88.2099967  65.9844683 101.1255465
  89.0752964  65.7887491 100.7661354  88.2777476  65.7555034 102.0524822
  92.6397127  71.3937001  94.4872266  92.3347263  71.7083150  95.3382409
  93.5927569  71.4718421  94.5299599  96.0636405  75.7476245 101.2532267
  95.4060079  76.4375506 101.3412395  96.8676804  76.1372677 101.5966253
  85.8162286  68.2146891  98.4971832  86.3906038  67.9922072  97.7645025
  86.4033269  68.2835585  99.2500433  94.8741864  74.1020617  99.3036208
  95.3873745  74.7350609  99.8057918  95.5243088  73.5021813  98.9379568
  86.1431874  70.2451352  92.5167717  85.3069186  70.5826038  92.8376992
  86.0036643  70.1100331  91.5794854  88.1184954  65.0888139  97.2246901
  87.4649367  64.7737157  96.6003516  88.0765428  64.4663880  97.9506724
  91.3522695  71.5770073 101.5494549  90.4345256  71.7985020 101.3916237
  91.7682838  71.6516384 100.6906256  92.1357742  72.9761489  96.6797229
  92.8829561  73.4882886  96.3704351  92.4049332  72.6545541  97.5401623
  90.4084392  75.4720029  93.6624183  89.4995612  75.1879062  93.7596653
  90.4379476  75.8919108  92.8027490  94.5836579  70.0118605  98.6616018
  93.8459336  69.4995991  98.9926261  94.8363353  69.5718987  97.8499295
  94.6848207  62.7894857  99.2557788  94.9907084  61.9292220  98.9683703
  95.4100812  63.3812477  99.0556782  80.9772563  73.1925544  97.6439386
  80.7796963  72.5994904  96.9190452  80.4219227  72.8877754  98.3615324
  88.9569287  73.0848650  99.7633979  89.0117896  72.1322486  99.6876455
  88.1460489  73.2408089 100.2475277  86.8961646  71.7025710  97.5224358
  86.0829512  72.0019880  97.9289550  87.3920641  71.3081399  98.2398840
  89.0470224  81.6983467  99.4558622  89.0046403  81.9244313  98.5267154
  89.9632923  81.4646841  99.6044423  92.4935858  72.1667534 106.3539251
  92.8485246  72.3939007 107.2133717  93.1407989  72.4985911 105.7316507
  98.2233595  75.2885970  97.0588580  98.0851494  75.4787566  96.1309770
  97.8669814  76.0505353  97.5156632  86.3875721  69.2744065 103.1385592
  87.0275101  69.1332824 102.4408556  85.5553252  68.9878579 102.7624194
  98.2502975  77.3562497 102.0699852  98.6839481  77.2637786 102.9182906
  98.9634555  77.3319998 101.4319868  87.1636025  78.5746496  99.2520585
  87.9576624  78.0796816  99.0503160  86.4527717  78.0464359  98.8888291
  91.9830870  80.9564591 103.6032953  92.0367892  81.5255528 104.3710668
  91.1145651  81.1266476 103.2386990  83.4718789  72.7189577  95.3280338
  82.5416377  72.6574033  95.5450300  83.5676261  72.1965530  94.5316979
  83.3904338  69.2444390  97.9158579  83.6511155  70.1589724  97.8067740
  84.2121510  68.7768833  98.0655192  84.8629263  70.6582147 105.0857404
  85.5352316  70.4499510 104.4370053  84.0359049  70.4604233 104.6462636
  99.1118524  77.3986198 104.6032737  99.3054414  78.3032008 104.8492012
  99.0119142  76.9393617 105.4371322  90.7654835  67.2844088 107.1023065
  90.1182750  67.9834038 107.0087541  91.5355850  67.7180232 107.4699313
  94.1733633  77.5492941 110.1773618  94.0219139  77.3203492 109.2603702
  94.1638312  78.5063542 110.1904963  90.9418969  75.1224853 105.1619884
  91.8711029  75.2736013 104.9888852  90.5209999  75.2108874 104.3068531
  89.7407301  79.1475518 102.9318422  89.6018387  78.7794302 103.8044360
  88.9521897  79.6623157 102.7602380  91.2912516  78.5257120 100.3207260
  90.9562349  78.4857890 101.2164910  90.7916462  77.8601836  99.8477670
  85.2656760  73.9324750 105.8459841  85.1276558  73.2004989 106.4471380
  86.1761684  73.8433651 105.5644029  87.8939061  73.6444710 105.3343521
  88.6038679  73.0037902 105.2930139  87.8508369  73.8957605 106.2569701
  95.8825840  80.5812063 108.2550100  95.8238386  79.8971283 107.5880683
  96.2845358  81.3231053 107.8030726  86.6067995  70.6309928 107.1539160
  86.0705352  70.1800666 107.8060756  86.0184703  70.7655836 106.4109624
  95.8843247  78.5451647 106.4864080  94.9970026  78.2077569 106.6090478
  96.4541798  77.8134678 106.7232845  77.5372394  74.8775739  99.8107131
  78.2243434  74.5637469  99.2228146  77.3820523  75.7817103  99.5374382
  82.3407116  69.7665935 104.2392155  82.2565305  69.1591605 103.5042565
  81.5189822  70.2574954 104.2401651  89.4144400  83.2053099 103.4525323
  89.3414572  84.0108071 103.9644627  88.9721793  83.4045065 102.6273344
  89.2034180  82.4424869  96.9628144  88.4201702  82.9846550  97.0566369
  89.9026925  82.9598849  97.3622385  92.5130830  68.2519499  99.6062350
  93.0099530  67.4989461  99.2863420  91.7417811  68.2883816  99.0405559
 100.3660587  73.9559864 101.2480641 100.3550464  74.8384580 100.8774574
  99.4977967  73.6031415 101.0535178  91.8743084  83.1039933 105.6083481
  92.5871056  83.7387398 105.5359383  91.3833112  83.2003799 104.7923483
  93.5960611  77.0091186  97.1800773  92.6616889  77.1292649  97.0105477
  93.7737279  76.1063653  96.9160783  89.0965799  70.3936882  99.3334034
  88.7263586  69.8407922 100.0214940  89.5924891  69.7895015  98.7809034
  96.9833162  72.8508505  97.7150807  97.4493614  73.6836497  97.6411110
  97.4340663  72.3853487  98.4196066  86.9254997  80.8534377 106.4289052
  87.6264457  81.4870860 106.5818446  86.4550112  81.1949108 105.6684691
  94.9549825  65.2189092 101.7541709  94.0412905  65.4493319 101.9223915
  95.3842926  65.3027536 102.6055741  94.7256283  73.4078984 104.2541603
  94.0727733  73.6554892 103.5994055  95.1036663  72.5943123 103.9204080
  90.7743856  74.1498795 110.7407640  90.0984493  74.0492925 111.4110015
  91.5971490  73.9938009 111.2043637  82.5222715  80.3870732 103.3620155
  83.1076152  79.6414420 103.4948059  82.3247554  80.6974689 104.2456819
  77.1140370  72.9576332 102.0824598  77.1524470  72.4239923 102.8761716
  76.6080663  72.4311538 101.4635575  89.5166639  85.4565723 104.9765256
  90.0684947  85.6197344 105.7414341  89.8572833  86.0470161 104.3045280
  84.4931132  67.8040873 105.5787140  84.5572459  68.6655704 105.1664538
  84.4298253  67.1914874 104.8459499  83.9683405  69.8764005 109.2260175
  84.5955444  69.4941083 109.8397699  83.1111324  69.6578207 109.5915867
  94.3677513  80.2826980 110.8313910  94.9117417  80.8956939 110.3368865
  93.7864358  80.8406559 111.3480923  80.7448948  71.6840434  95.1578529
  81.0402389  70.7751113  95.1045583  79.8436983  71.6628174  94.8359532
  92.6535026  83.4047698 101.9628938  92.5286166  82.6037438 101.4539883
  93.3114118  83.8993892 101.4742908  84.2743195  69.7596431 101.1406078
  83.5529780  70.3732399 101.0013551  85.0636450  70.2954196 101.0622724
  94.7169935  81.2056718 103.5908488  93.7700270  81.0862070 103.5186815
  95.0652708  80.3179217 103.6734749  87.0769508  67.0950857 107.4146730
  87.6003910  67.3413154 108.1773039  86.8581841  67.9270892 106.9949867
  82.4736789  69.3654532  95.2817855  82.1449495  68.4851911  95.0992960
  82.8276160  69.3102201  96.1694244  91.7216368  81.0009435  99.7912840
  91.5741331  80.0726142  99.9720410  92.5469862  81.0229525  99.3069915
  85.5878612  69.6527502  95.6493332  85.9274685  70.1813423  94.9271941
  86.0350733  69.9907908  96.4251899  95.3250490  81.8237993 100.8777713
  96.2497037  81.6180855 100.7402164  95.1565793  81.5754395 101.7867054
  88.2822053  68.0364552 105.0996400  87.9418874  67.2372366 105.5017080
  87.5761059  68.3366263 104.5273233  88.9338525  65.1213865 103.5523723
  89.7564594  64.6474343 103.4302614  89.1776589  65.9004349 104.0522410
  87.5746760  68.1502123  93.8486625  88.2955122  68.5283376  93.3450342
  86.9512064  68.8691000  93.9521603  91.7177882  68.8547272  94.7844957
  91.9341497  69.7371910  94.4833786  91.2371950  68.4633486  94.0550599
  86.4577104  71.8132986 101.3615702  86.3121685  72.1273289 102.2539983
  85.9802307  72.4317886 100.8086601  88.3173487  68.8035534 101.4096591
  88.3035055  67.9076627 101.0728889  89.0345915  68.8106197 102.0434878
  90.1699617  69.2372874 103.4549719  89.9117395  70.1589944 103.4534049
  89.6384658  68.8403308 104.1450183  80.9322766  74.3538330 104.3003363
  80.3876234  75.1298138 104.4323637  81.8102116  74.7009134 104.1422485
  87.7210383  67.6849914  96.6784162  87.8426294  66.7566560  96.8775049
  87.4312425  67.6988600  95.7662477  90.5901573  65.3704824  99.8150881
  90.6123270  65.4344157  98.8602861  91.0069632  64.5309333 100.0091388
 100.9685197  75.1060084  97.8530104 101.4116343  74.3567409  97.4549227
 100.0911708  75.0970220  97.4703836  81.7188788  73.4808226 107.1933520
  80.9770524  73.6290862 107.7798150  81.3981532  73.7416492 106.3300269
  89.6632450  83.0224204 106.9913910  89.9719577  82.7773351 107.8636610
  90.4607932  83.2270843 106.5032780  82.1645401  81.3673655  99.2243915
  82.9903421  81.0677427  98.8442558  81.8139453  80.5981277  99.6733703
  87.1326935  80.7200123 101.2941588  86.5106944  80.0570828 100.9943816
  87.8031802  80.7461255 100.6115236  80.3654007  79.2859981 100.1832848
  79.5285915  78.8582156 100.0016849  80.3377652  79.4792425 101.1203639
  87.2051462  69.1981911 110.8874094  87.2539618  70.0744034 110.5051864
  87.7473976  68.6559304 110.3145737  97.6906308  79.7423034 110.1675231
  96.9001852  79.7247173 109.6279731  97.4539662  80.2811328 110.9224268
  97.8104183  76.5915501 107.4807960  97.8602188  76.4265508 108.4223483
  97.7018106  75.7242760 107.0905841  86.6940442  79.2704047  94.7700049
  86.8428562  79.9539511  94.1166721  87.5006885  79.2509137  95.2849504
  95.1007945  72.5746429 108.7967267  96.0017808  72.4352894 108.5051264
  95.1755920  72.7400884 109.7365444  89.4350751  69.9513284 107.6420453
  88.5654060  70.2446850 107.3703041  89.6710231  70.5353729 108.3627717
  99.3122380  79.0112442 107.7249981  99.0207188  79.3742423 108.5613442
  98.6994511  78.2979451 107.5463313 100.5118062  76.5765322 100.2452552
 101.3464953  77.0155126 100.4090112 100.6477191  76.1003975  99.4260797
  97.5609568  74.1345057 106.1930039  98.0363690  74.3272703 105.3848891
  96.6375133  74.1904243 105.9473423  84.4493075  75.2969224  95.7761118
  84.2039116  74.3931554  95.9741328  84.6188989  75.2986375  94.8340596
  92.1389784  66.1692901 105.1585873  92.6571728  66.9053927 104.8332362
  91.7844917  66.4756894 105.9932632  83.7188722  71.0297582  93.2747279
  83.0257967  71.1041937  92.6187315  83.4740474  70.2657925  93.7968796
  92.3902379  62.5893183 100.6786770  92.6704132  61.9216372 101.3047196
  93.1752986  62.7822279 100.1661434  96.2611237  71.0110817 104.4258345
  97.2128660  71.1108915 104.4470569  96.0914687  70.2189086 104.9356429
  94.2825616  68.0966400 104.6117746  93.6875549  68.3771413 103.9164235
  93.9975313  68.5860301 105.3834487  98.7399315  74.2316937 103.5400645
  98.7075635  73.2932937 103.7260328  99.3499938  74.3100973 102.8066470
  98.8893803  71.0227980 103.5858928  98.3732852  70.2386437 103.3988857
  99.7733752  70.6946697 103.7505447  96.5504530  64.7668996  99.5454740
  96.3529351  64.4584084 100.4298072  97.1604236  65.4930635  99.6752670
 104.5575865  75.2932944 102.6806681 105.2879253  75.0318232 103.2414385
 103.9482810  74.5561666 102.7208749 102.6391162  73.4340806 103.2781133
 101.9124325  73.2996771 102.6697624 102.2238449  73.7417635 104.0837851
  90.4621338  77.1530736 111.0428506  91.3824348  77.3309335 111.2368552
  90.4270921  76.2086781 110.8908205  79.6803503  72.3469330  99.9681780
  79.3606287  71.4934638  99.6756154  79.1336931  72.5617908 100.7239748
  83.4583411  75.0631771 103.6851287  83.6769420  75.9948878 103.7039321
  83.8709185  74.7039745 104.4706091  90.3787628  65.5699856  95.6726975
  89.5688357  65.2246941  96.0482221  91.0672045  65.2607400  96.2614587
  92.3078177  64.6477903  97.2951272  92.8609215  65.0673356  97.9541295
  92.5448263  63.7213651  97.3374228  88.3311276  70.6364976 113.0754036
  88.2308003  71.5859333 113.0066127  88.1132818  70.3083215 112.2030106
  87.5324347  67.8849901  89.6594713  88.3943511  68.2104800  89.9190530
  87.7174692  67.0981397  89.1467779  79.5491763  75.9672241 101.9374902
  78.8555235  75.5526194 101.4244856  80.2964754  76.0092778 101.3408321
  95.6856984  66.7578428  96.8029936  95.1055653  67.4163232  96.4207989
  95.4192917  65.9355772  96.3917354  94.1360550  66.1583485  99.0051256
  94.6360329  66.2700020  98.1965575  94.7796158  65.8544538  99.6452065
  88.1942546  74.0662115 111.8919097  87.7109628  74.8662475 112.0982986
  88.2803485  74.0770060 110.9386541  81.4628506  75.8990495  99.8140917
  81.4399194  75.9978182  98.8622800  81.7729142  76.7455646 100.1358083
  84.1215884  77.9566650 103.9287531  85.0759137  77.9250592 103.8617463
  83.9228407  77.4957274 104.7437757  84.7115266  76.5267766 106.4958329
  85.5308155  77.0211845 106.5193166  84.9852073  75.6099734 106.4675896
  94.4681862  68.9178518  95.8586284  93.5807717  69.2028169  95.6406479
  94.8835851  68.7572282  95.0113561  97.8196398  68.9425039  99.5740624
  98.5956788  69.4321492  99.8465240  97.0944532  69.3683093 100.0312493
 100.2568957  69.6552658 100.6314564 100.8513447  69.4148394  99.9207872
 100.3295540  68.9359789 101.2588101  82.4766112  83.4986269 100.9457729
  82.3420580  82.7386670 100.3795727  82.0598175  84.2227169 100.4786518
  94.4422886  74.4333054  96.0736575  94.3858087  74.8901606  95.2344207
  94.9951228  73.6723739  95.8959417  98.2527692  70.2222786  96.8986694
  97.9964626  69.8219422  97.7294902  97.6280560  70.9366580  96.7736833
 102.5640029  72.9618859  99.4057985 102.0039587  73.0312049 100.1789547
 101.9583533  72.7859844  98.6857482  95.1757665  75.6237835  93.3689104
  95.1206469  75.4582107  92.4277548  94.5503720  76.3313868  93.5251293
  79.9650180  70.8605900 107.1950526  80.6109044  70.3504854 107.6837751
  79.7567331  71.5974581 107.7693951  92.4903572  77.9286747 112.6942666
  93.3594732  78.1027399 112.3329301  92.0110324  78.7481164 112.5718396
  88.4853790  65.1245944  92.9474422  88.4732460  66.0687784  93.1042693
  89.3777212  64.9416090  92.6533883  92.3005910  61.7188721  97.2020359
  91.5338306  61.1647208  97.3477041  92.7116615  61.7910590  98.0634511
  84.3047671  68.0073517 111.2925540  85.1679132  67.6510322 111.5028865
  83.7313082  67.6687412 111.9800944 103.7037316  87.3626827  99.1741149
 104.4900406  86.9446250  98.8231566 103.9676021  88.2672919  99.3422798
 106.6271164  81.0123634 104.5368736 106.2954489  81.8819045 104.3129951
 106.0316777  80.6959918 105.2162767 106.5199827  85.7318720 101.6162086
 105.6116704  85.6634129 101.3220847 106.4687423  86.2090665 102.4443912
 108.3861474  83.9335159 103.3939960 107.7435854  84.2267692 102.7479755
 107.8816402  83.8188079 104.1993157 103.8272920  84.6999935 106.7501843
 103.5833852  85.4541996 106.2136118 104.1032851  85.0785283 107.5849090
 103.3837612  83.8556368 102.3315680 102.5222091  84.1537622 102.6232418
 103.4100047  84.0726767 101.3996713  96.8629172  81.4154233 112.2855512
  96.4696117  80.8620432 112.9603156  97.6795312  81.7264812 112.6762029
  99.7797133  82.8312113 109.8775768 100.5206846  83.4319266 109.7980231
 100.0115056  82.0889750 109.3193811 103.7254296  78.8593215 104.1540050
 103.3818565  79.7494857 104.0779161 104.0933258  78.6694873 103.2909635
 102.8050836  81.2297871 102.1189283 102.3015632  81.1928006 101.3057088
 103.0981443  82.1390613 102.1785940  99.0493722  81.3136600 101.1255465
  99.9146719  81.1179409 100.7661354  99.1171231  81.0846952 102.0524822
 102.1916449  86.9061991 101.5494549 101.2739010  87.1276938 101.3916237
 102.6076593  86.9808301 100.6906256 105.4230334  85.3410523  98.6616018
 104.6853091  84.8287909  98.9926261 105.6757107  84.9010904  97.8499295
 105.5241961  78.1186775  99.2557788 105.8300838  77.2584138  98.9683703
 106.2494566  78.7104395  99.0556782  97.2269476  84.6035983 103.1385592
  97.8668855  84.4624742 102.4408556  96.3947006  84.3170496 102.7624194
 109.9512279  92.7278115 104.6032737 110.1448169  93.6323926 104.8492012
 109.8512897  92.2685535 105.4371322 101.6048589  82.6136006 107.1023065
 100.9576505  83.3125956 107.0087541 102.3749605  83.0472150 107.4699313
 103.3524584  83.5811417  99.6062350 103.8493284  82.8281379  99.2863420
 102.5811566  83.6175733  99.0405559 105.7943579  80.5481010 101.7541709
 104.8806659  80.7785237 101.9223915 106.2236681  80.6319454 102.6055741
  95.3324887  83.1332790 105.5787140  95.3966213  83.9947621 105.1664538
  95.2692007  82.5206792 104.8459499  95.1136949  85.0888349 101.1406078
  94.3923535  85.7024316 101.0013551  95.9030205  85.6246113 101.0622724
  97.9163263  82.4242775 107.4146730  98.4397664  82.6705072 108.1773039
  97.6975596  83.2562810 106.9949867  99.1215808  83.3656470 105.0996400
  98.7812628  82.5664283 105.5017080  98.4154814  83.6658181 104.5273233
  99.7732280  80.4505783 103.5523723 100.5958349  79.9766261 103.4302614
 100.0170343  81.2296266 104.0522410  99.1567241  84.1327451 101.4096591
  99.1428810  83.2368545 101.0728889  99.8739669  84.1398115 102.0434878
 101.0093372  84.5664791 103.4549719 100.7511150  85.4881862 103.4534049
 100.4778412  84.1695226 104.1450183 101.4295327  80.6996742  99.8150881
 101.4517024  80.7636075  98.8602861 101.8463387  79.8601251 100.0091388
  98.0445217  84.5273829 110.8874094  98.0933372  85.4035952 110.5051864
  98.5867731  83.9851222 110.3145737 108.5300062  95.0714952 110.1675231
 107.7395606  95.0539091 109.6279731 108.2933417  95.6103246 110.9224268
 110.1516134  94.3404360 107.7249981 109.8600943  94.7034341 108.5613442
 109.5388265  93.6271368 107.5463313 102.9783539  81.4984818 105.1585873
 103.4965483  82.2345845 104.8332362 102.6238672  81.8048811 105.9932632
 103.2296133  77.9185101 100.6786770 103.5097887  77.2508290 101.3047196
 104.0146740  78.1114196 100.1661434 107.1004991  86.3402735 104.4258345
 108.0522414  86.4400832 104.4470569 106.9308442  85.5481003 104.9356429
 105.1219371  83.4258318 104.6117746 104.5269303  83.7063331 103.9164235
 104.8369068  83.9152219 105.3834487 109.7287558  86.3519898 103.5858928
 109.2126606  85.5678354 103.3988857 110.6127506  86.0238614 103.7505447
 107.3898285  80.0960913  99.5454740 107.1923106  79.7876002 100.4298072
 107.9997990  80.8222552  99.6752670 115.3969619  90.6224861 102.6806681
 116.1273008  90.3610149 103.2414385 114.7876565  89.8853583 102.7208749
  99.1705030  85.9656894 113.0754036  99.0701757  86.9151251 113.0066127
  98.9526573  85.6375133 112.2030106 106.5250738  82.0870345  96.8029936
 105.9449407  82.7455149  96.4207989 106.2586671  81.2647690  96.3917354
 104.9754305  81.4875403  99.0051256 105.4754083  81.5991938  98.1965575
 105.6189913  81.1836456  99.6452065 105.3075616  84.2470436  95.8586284
 104.4201471  84.5320086  95.6406479 105.7229605  84.0864199  95.0113561
 108.6590153  84.2716957  99.5740624 109.4350543  84.7613409  99.8465240
 107.9338287  84.6975011 100.0312493 109.0921446  85.5514704  96.8986694
 108.8358380  85.1511339  97.7294902 108.4674314  86.2658498  96.7736833
  95.1441425  83.3365434 111.2925540  96.0072887  82.9802239 111.5028865
  94.5706836  82.9979329 111.9800944 112.2799292 106.0729571 107.9935671
 112.2687932 105.6782369 107.1216175 112.4419931 105.3395643 108.5869443
 109.0006553 108.8566682 106.9414855 108.7096419 109.7612313 106.8261522
 109.6363537 108.8983210 107.6558925 109.9262760 106.2343531 103.5316215
 110.5226332 106.0099553 102.8173178 109.9837731 105.4928276 104.1341663
 119.9439498 102.6293978 100.0774128 120.6764670 102.0593195 100.3111957
 119.1878854 102.2415578 100.5180633 113.9596438 108.5428098 103.9364649
 113.6597161 109.4453137 103.8280456 113.6147497 108.2760281 104.7885802
 111.4334447 102.4800284 109.5596984 110.6567781 103.0394204 109.5499848
 112.0725010 102.9657067 110.0811854 109.6880820 105.2885737 109.1214951
 110.4295504 105.8270781 108.8449774 108.9817805 105.9152026 109.2786502
 115.1636159 107.4314878 107.7187112 115.5719515 106.9897288 106.9741744
 114.4413421 106.8567505 107.9721305 114.6666675 100.0291853 106.7501843
 114.4227607 100.7833913 106.2136118 114.9426605 100.4077200 107.5849090
 116.6205137 106.5730465 105.4279108 116.8322033 107.2162225 104.7513489
 116.5734886 105.7392782 104.9601038 108.4242183 102.4425385 109.9230261
 107.7940844 103.1241666 110.1565657 108.3178271 102.3308467 108.9783399
 117.7350965 109.4502420 103.6001466 118.5568409 109.0482608 103.3184147
 117.7313368 109.3470655 104.5517581 111.5007569 108.9986464 105.7562176
 111.5652001 109.4606871 106.5920348 110.7918493 108.3683829 105.8844486
 125.8256958 105.7941169  99.9486437 125.0720667 105.2248567  99.7930442
 125.9604500 105.7603833 100.8957072 107.7022926  96.7446151 112.2855512
 107.3089872  96.1912350 112.9603156 108.5189066  97.0556730 112.6762029
 110.6190887  98.1604030 109.8775768 111.3600601  98.7611183 109.7980231
 110.8508810  97.4181668 109.3193811 112.8424063 111.2878138 109.7541499
 112.3987917 110.5014516 109.4362403 113.5041276 111.4757288 109.0885389
 114.9405301 111.5680938 107.7822900 114.9223776 112.3889819 107.2903169
 115.8625221 111.4435013 108.0073041 111.3978355 109.0825067 108.6246408
 111.9306692 108.3213355 108.3945716 110.8692436 108.7898719 109.3670563
 114.1723367 102.8251370 106.3539251 114.5272755 103.0522843 107.2133717
 114.8195498 103.1569746 105.7316507 119.9290484 108.0146333 102.0699852
 120.3626990 107.9221622 102.9182906 120.6422064 107.9903833 101.4319868
 120.7906033 108.0570033 104.6032737 120.9841923 108.9615844 104.8492012
 120.6906651 107.5977452 105.4371322 112.4442344  97.9427924 107.1023065
 111.7970259  98.6417873 107.0087541 113.2143359  98.3764068 107.4699313
 115.8521142 108.2076776 110.1773618 115.7006648 107.9787328 109.2603702
 115.8425821 109.1647377 110.1904963 112.6206478 105.7808689 105.1619884
 113.5498538 105.9319848 104.9888852 112.1997508 105.8692709 104.3068531
 109.5726570 104.3028545 105.3343521 110.2826188 103.6621737 105.2930139
 109.5295878 104.5541440 106.2569701 117.5613349 111.2395898 108.2550100
 117.5025895 110.5555119 107.5880683 117.9632867 111.9814888 107.8030726
 108.2855504 101.2893763 107.1539160 107.7492861 100.8384501 107.8060756
 107.6972212 101.4239672 106.4109624 106.5804047 118.0557812 101.0483819
 106.8200646 118.6876336 101.7262837 105.7373244 117.7045852 101.3349178
 117.5630756 109.2035482 106.4864080 116.6757535 108.8661404 106.6090478
 118.1329307 108.4718514 106.7232845 122.0448096 104.6143700 101.2480641
 122.0337973 105.4968415 100.8774574 121.1765476 104.2615251 101.0535178
 116.4043792 104.0662820 104.2541603 115.7515242 104.3138727 103.5994055
 116.7824172 103.2526958 103.9204080 112.4531365 104.8082631 110.7407640
 111.7772002 104.7076760 111.4110015 113.2758999 104.6521844 111.2043637
 105.6470914 100.5347841 109.2260175 106.2742953 100.1524918 109.8397699
 104.7898833 100.3162042 109.5915867 116.0465022 110.9410816 110.8313910
 116.5904926 111.5540774 110.3368865 115.4651867 111.4990394 111.3480923
 116.3957444 111.8640554 103.5908488 115.4487779 111.7445905 103.5186815
 116.7440217 110.9763052 103.6734749 108.7557017  97.7534693 107.4146730
 109.2791419  97.9996989 108.1773039 108.5369350  98.5854728 106.9949867
 122.6472706 105.7643919  97.8530104 123.0903852 105.0151244  97.4549227
 121.7699217 105.7554056  97.4703836 117.7808488 112.3174261  93.3336703
 118.4759392 112.9380953  93.5524017 118.1231638 111.4669612  93.6089080
 119.6799911 109.7673966  94.8624033 120.2051235 110.1061239  94.1373353
 119.5922263 108.8320981  94.6787168 108.8838971  99.8565747 110.8874094
 108.9327127 100.7327869 110.5051864 109.4261485  99.3143140 110.3145737
 119.3693817 110.4006870 110.1675231 118.5789361 110.3831009 109.6279731
 119.1327171 110.9395163 110.9224268 119.4891692 107.2499336 107.4807960
 119.5389697 107.0849344 108.4223483 119.3805615 106.3826595 107.0905841
 116.7795454 103.2330264 108.7967267 117.6805317 103.0936729 108.5051264
 116.8543429 103.3984719 109.7365444 111.1138260 100.6097119 107.6420453
 110.2441569 100.9030685 107.3703041 111.3497740 101.1937564 108.3627717
 120.9909889 109.6696278 107.7249981 120.6994697 110.0326258 108.5613442
 120.3782020 108.9563286 107.5463313 122.1905571 107.2349157 100.2452552
 123.0252462 107.6738962 100.4090112 122.3264700 106.7587811  99.4260797
 119.2397077 104.7928892 106.1930039 119.7151199 104.9856539 105.3848891
 118.3162642 104.8488078 105.9473423 117.9398746 101.6694652 104.4258345
 118.8916169 101.7692750 104.4470569 117.7702196 100.8772921 104.9356429
 120.4186824 104.8900772 103.5400645 120.3863144 103.9516773 103.7260328
 121.0287447 104.9684809 102.8066470 120.5681312 101.6811816 103.5858928
 120.0520361 100.8970272 103.3988857 121.4521261 101.3530532 103.7505447
 126.2363374 105.9516779 102.6806681 126.9666762 105.6902067 103.2414385
 125.6270319 105.2145501 102.7208749 124.3178671 104.0924642 103.2781133
 123.5911834 103.9580606 102.6697624 123.9025958 104.4001470 104.0837851
 112.1408847 107.8114571 111.0428506 113.0611857 107.9893170 111.2368552
 112.1058430 106.8670617 110.8908205 110.0098785 101.2948812 113.0754036
 109.9095512 102.2443169 113.0066127 109.7920327 100.9667051 112.2030106
 109.8730055 104.7245950 111.8919097 109.3897137 105.5246311 112.0982986
 109.9590994 104.7353895 110.9386541 121.9356466 100.3136494 100.6314564
 122.5300956 100.0732230  99.9207872 122.0083049  99.5943624 101.2588101
 119.9315201 100.8806621  96.8986694 119.6752135 100.4803257  97.7294902
 119.3068069 101.5950415  96.7736833 124.2427538 103.6202695  99.4057985
 123.6827096 103.6895884 100.1789547 123.6371042 103.4443679  98.6857482
 114.1691081 108.5870583 112.6942666 115.0382241 108.7611235 112.3329301
 113.6897833 109.4064999 112.5718396 105.9835180  98.6657352 111.2925540
 106.8466641  98.3094157 111.5028865 105.4100591  98.3271247 111.9800944
 125.8283557 120.2959208 102.0987941 126.4661967 120.1765956 101.3951281
 125.7104400 121.2440052 102.1575893 122.6373263 120.2486637 102.0349466
 122.2991775 120.1327701 101.1470001 123.5063031 119.8477802 102.0150472
 118.4960079 122.1022113  98.0246357 117.9324944 122.0112050  97.2562645
 118.3812474 121.2822017  98.5048849 123.1193046 121.4021488 107.9935671
 123.1081687 121.0074287 107.1216175 123.2813686 120.6687561 108.5869443
 116.0424511 123.5973305 100.8630577 116.8345803 123.2564129 100.4476877
 116.2821161 123.7068280 101.7832731 124.0759638 125.7693081  93.3360822
 123.4247617 126.3547161  92.9494835 124.8704000 126.2999276  93.3955859
 118.0015265 122.8582218  93.7347956 118.7746141 122.3111205  93.5960832
 118.3540664 123.7226467  93.9462417 119.8400307 124.1858600 106.9414855
 119.5490173 125.0904231 106.8261522 120.4757292 124.2275128 107.6558925
 120.7656514 121.5635449 103.5316215 121.3620086 121.3391471 102.8173178
 120.8231486 120.8220194 104.1341663 120.3381542 119.0174884  91.3666406
 120.5907063 118.4956405  90.6049869 119.4006102 118.8541029  91.4693090
 125.3824825 118.0210662  99.1741149 126.1687915 117.6030086  98.8231566
 125.6463530 118.9256755  99.3422798 125.5534903 123.4583513  93.8729806
 124.9180736 123.5318139  94.5850711 125.2232309 124.0477111  93.1948885
 130.7833252 117.9585896 100.0774128 131.5158424 117.3885112 100.3111957
 130.0272608 117.5707496 100.5180633 120.0577831 120.9202990  93.5690781
 119.9414089 120.2447893  94.2371865 120.1680091 120.4335364  92.7522934
 122.4009372 120.3813137  97.2737470 122.0367579 119.8543758  97.9850392
 123.2576488 119.9911606  97.1003956 128.3058673 111.6707470 104.5368736
 127.9741998 112.5402881 104.3129951 127.7104286 111.3543754 105.2162767
 122.0414859 115.4103037  92.2698819 122.2089261 116.2783273  92.6369290
 121.8512028 115.5730318  91.3460108 124.7990192 123.8720016 103.9364649
 124.4990915 124.7745054 103.8280456 124.4541252 123.6052199 104.7885802
 118.2502674 120.3233812  99.9701353 117.3253170 120.1910027 100.1779045
 118.4987087 121.1028032 100.4671296 128.1987336 116.3902556 101.6162086
 127.2904213 116.3217964 101.3220847 128.1474932 116.8674501 102.4443912
 122.0204080 117.8660694  93.2545485 121.9003705 118.3117745  94.0930966
 121.3256668 118.2146012  92.6959024 115.6111485 119.9667086 100.8045143
 115.7403866 120.2201565 101.7184554 114.9308936 120.5594794 100.4849798
 119.7810972 130.6364336  96.9035617 119.7035002 131.5872161  96.9824097
 119.1772616 130.2910208  97.5610543 122.2728202 117.8092201 109.5596984
 121.4961536 118.3686122 109.5499848 122.9118765 118.2948984 110.0811854
 130.0648983 114.5918994 103.3939960 129.4223363 114.8851527 102.7479755
 129.5603911 114.4771915 104.1993157 127.7189146 118.3382167  94.0825820
 128.6307002 118.5709554  93.9073517 127.2098793 118.9219212  93.5200898
 120.5274574 120.6177655 109.1214951 121.2689259 121.1562699 108.8449774
 119.8211560 121.2443944 109.2786502 126.0029914 122.7606795 107.7187112
 126.4113270 122.3189206 106.9741744 125.2807175 122.1859423 107.9721305
 122.3560984 117.6979402 105.0920669 123.2022179 118.1218816 105.2355318
 122.2959622 117.0413026 105.7859232 126.3258728 123.3207986 101.4739401
 125.6967591 123.4853700 100.7715469 125.9384391 123.7349595 102.2450365
 130.2047960 124.2562424  98.8283765 129.5198999 124.6361325  98.2780798
 130.2891810 124.8657750  99.5615713 125.5060429 115.3583770 106.7501843
 125.2621361 116.1125831 106.2136118 125.7820360 115.7369118 107.5849090
 127.4598892 121.9022383 105.4279108 127.6715787 122.5454143 104.7513489
 127.4128640 121.0684699 104.9601038 125.0625121 114.5140203 102.3315680
 124.2009600 114.8121457 102.6232418 125.0887556 114.7310602 101.3996713
 121.8786690 123.0582394  98.7389486 122.3425036 123.3370097  97.9494109
 121.6143488 122.1565839  98.5562577 118.7710771 122.6053875 101.6769249
 119.3412128 123.0341144 101.0386734 119.3618883 122.3236460 102.3753435
 120.8155576 119.1805546  95.5479051 121.5179620 119.6326590  96.0152978
 120.4836205 118.5389365  96.1758944 119.2635938 117.7717303 109.9230261
 118.6334599 118.4533584 110.1565657 119.1572026 117.6600385 108.9783399
 114.5580910 117.4389099 100.8496185 113.7679964 117.6946628 100.3736295
 115.0492158 118.2537437 100.9548225 128.5744720 124.7794338 103.6001466
 129.3962164 124.3774525 103.3184147 128.5707123 124.6762572 104.5517581
 122.3401323 124.3278381 105.7562176 122.4045756 124.7898789 106.5920348
 121.6312247 123.6975746 105.8844486 112.8418613 117.6919589 103.2811176
 113.0926652 118.5766599 103.5468752 113.3778162 117.5124191 102.5086267
 136.6650713 121.1233087  99.9486437 135.9114421 120.5540485  99.7930442
 136.7998254 121.0895751 100.8957072 122.0549341 125.9946489  95.6241156
 121.9195016 126.8398025  96.0526004 122.5959154 126.1965767  94.8607090
 118.5416681 112.0738069 112.2855512 118.1483626 111.5204267 112.9603156
 119.3582821 112.3848647 112.6762029 115.5078738 123.5121927  96.1969082
 116.0203259 124.3065177  96.3474646 116.1601451 122.8148217  96.1302683
 117.3173623 126.6287683  98.2791835 117.4940251 127.5505648  98.0912819
 118.1130457 126.3146102  98.7086215 121.4584642 113.4895948 109.8775768
 122.1994355 114.0903101 109.7980231 121.6902564 112.7473586 109.3193811
 116.6025980 118.6752315 108.1553998 116.4879495 117.7737572 108.4561097
 115.7470497 118.9216012 107.8038814 123.6817817 126.6170055 109.7541499
 123.2381672 125.8306434 109.4362403 124.3435031 126.8049206 109.0885389
 118.4404939 128.1465857 104.2802177 118.9912364 128.0182920 103.5079171
 117.6016414 128.4460746 103.9297070 125.7799055 126.8972855 107.7822900
 125.7617531 127.7181736 107.2903169 126.7018976 126.7726931 108.0073041
 122.2372110 124.4116985 108.6246408 122.7700446 123.6505273 108.3945716
 121.7086191 124.1190637 109.3670563 125.4041805 109.5177051 104.1540050
 125.0606074 110.4078693 104.0779161 125.7720767 109.3278708 103.2909635
 113.4727655 121.8410581  96.9728652 114.3102877 122.2507590  96.7562360
 113.6505923 120.9010023  96.9428846 125.3692087 119.5085662  92.6612485
 124.8538711 120.2790267  92.9000872 125.0969396 118.8350798  93.2845546
 122.9539198 114.3535363  97.7197723 122.0980795 113.9642213  97.5403362
 123.3666150 114.4327324  96.8597509 124.4838345 111.8881706 102.1189283
 123.9803141 111.8511841 101.3057088 124.7768952 112.7974449 102.1785940
 120.7281231 111.9720436 101.1255465 121.5934228 111.7763244 100.7661354
 120.7958740 111.7430787 102.0524822 130.3426361 122.2618017  94.5965659
 129.5655804 121.9229176  94.1520821 131.0217842 122.2670640  93.9220624
 125.1578390 117.3812754  94.4872266 124.8528526 117.6958903  95.3382409
 126.1108833 117.4594174  94.5299599 123.6024822 123.5402977  96.1365220
 123.0746184 122.8055737  95.8238458 123.1012325 124.3177654  95.8905189
 128.5817668 121.7351998 101.2532267 127.9241343 122.4251259 101.3412395
 129.3858068 122.1248430 101.5966253 127.3923127 120.0896371  99.3036208
 127.9055009 120.7226362  99.8057918 128.0424351 119.4897566  98.9379568
 120.6366218 111.0763893  97.2246901 119.9830630 110.7612910  96.6003516
 120.5946692 110.4539633  97.9506724 121.7477423 121.3583188  89.1400193
 120.8404484 121.1272441  89.3391342 122.2448454 120.5620807  89.3274175
 124.6545501 130.0680695  92.0596879 123.9807200 130.3712392  92.6681837
 125.0411323 130.8709775  91.7102336 123.8703958 117.5645826 101.5494549
 122.9526519 117.7860773 101.3916237 124.2864102 117.6392137 100.6906256
 124.6539006 118.9637242  96.6797229 125.4010825 119.4758639  96.3704351
 124.9230595 118.6421294  97.5401623 122.9265656 121.4595782  93.6624183
 122.0176875 121.1754815  93.7596653 122.9560740 121.8794861  92.8027490
 128.1584923 125.0702372  97.4315351 127.7047250 124.2293282  97.4880541
 127.5278890 125.7063770  97.7690131 127.1017843 115.9994358  98.6616018
 126.3640600 115.4871744  98.9926261 127.3544616 115.5594740  97.8499295
 126.6017863 126.9078869  98.3665169 126.8940837 127.4683926  97.6477535
 127.1116483 127.2007430  99.1218328 127.2029470 108.7770610  99.2557788
 127.5088347 107.9167973  98.9683703 127.9282075 109.3688230  99.0556782
 113.4953826 119.1801297  97.6439386 113.2978226 118.5870657  96.9190452
 112.9400490 118.8753507  98.3615324 121.4750550 119.0724403  99.7633979
 121.5299160 118.1198239  99.6876455 120.6641752 119.2283842 100.2475277
 122.6241744 123.0004526  91.0012262 122.1861174 122.2840385  90.5417899
 123.3652185 123.2280641  90.4397353 119.4142910 117.6901463  97.5224358
 118.6010775 117.9895633  97.9289550 119.9101904 117.2957152  98.2398840
 121.5651488 127.6859220  99.4558622 121.5227667 127.9120066  98.5267154
 122.4814187 127.4522594  99.6044423 125.0117122 118.1543287 106.3539251
 125.3666509 118.3814760 107.2133717 125.6589253 118.4861664 105.7316507
 130.7414859 121.2761723  97.0588580 130.6032757 121.4663319  96.1309770
 130.3851077 122.0381106  97.5156632 118.9056985 115.2619818 103.1385592
 119.5456364 115.1208577 102.4408556 118.0734515 114.9754332 102.7624194
 130.7684238 123.3438250 102.0699852 131.2020745 123.2513539 102.9182906
 131.4815819 123.3195751 101.4319868 119.6817289 124.5622249  99.2520585
 120.4757887 124.0672569  99.0503160 118.9708981 124.0340112  98.8888291
 124.5012133 126.9440344 103.6032953 124.5549155 127.5131281 104.3710668
 123.6326914 127.1142229 103.2386990 117.3810526 116.6457901 105.0857404
 118.0533580 116.4375263 104.4370053 116.5540313 116.4479987 104.6462636
 131.6299788 123.3861951 104.6032737 131.8235678 124.2907761 104.8492012
 131.5300406 122.9269370 105.4371322 123.2836098 113.2719841 107.1023065
 122.6364013 113.9709791 107.0087541 124.0537114 113.7055985 107.4699313
 126.6914896 123.5368694 110.1773618 126.5400403 123.3079245 109.2603702
 126.6819576 124.4939295 110.1904963 123.4600233 121.1100606 105.1619884
 124.3892293 121.2611766 104.9888852 123.0391263 121.1984627 104.3068531
 122.2588565 125.1351271 102.9318422 122.1199650 124.7670055 103.8044360
 121.4703161 125.6498910 102.7602380 122.8536717 130.2360367  94.2743959
 123.0288472 129.7648410  95.0889581 122.1669505 130.8626133  94.5025219
 123.8093780 124.5132873 100.3207260 123.4743612 124.4733643 101.2164910
 123.3097725 123.8477589  99.8477670 117.7838024 119.9200503 105.8459841
 117.6457822 119.1880742 106.4471380 118.6942947 119.8309404 105.5644029
 126.7452971 121.8588908  90.5944319 126.1282142 121.1335736  90.4977372
 126.2769460 122.6198268  90.2511394 120.4120324 119.6320463 105.3343521
 121.1219943 118.9913655 105.2930139 120.3689633 119.8833358 106.2569701
 128.4007103 126.5687816 108.2550100 128.3419649 125.8847036 107.5880683
 128.8026621 127.3106806 107.8030726 119.1249258 116.6185681 107.1539160
 118.5886615 116.1676419 107.8060756 118.5365967 116.7531590 106.4109624
 117.4197802 133.3849730 101.0483819 117.6594400 134.0168254 101.7262837
 116.5766998 133.0337770 101.3349178 118.5351517 116.0774332  89.7165624
 117.6580984 115.9563133  89.3527870 119.0109270 115.2860410  89.4644512
 128.4024510 124.5327400 106.4864080 127.5151289 124.1953322 106.6090478
 128.9723061 123.8010431 106.7232845 110.0553657 120.8651492  99.8107131
 110.7424697 120.5513222  99.2228146 109.9001786 121.7692856  99.5374382
 114.8588380 115.7541688 104.2392155 114.7746568 115.1467358 103.5042565
 114.0371086 116.2450707 104.2401651 121.9325664 129.1928852 103.4525323
 121.8595835 129.9983824 103.9644627 121.4903057 129.3920818 102.6273344
 121.7215443 128.4300622  96.9628144 120.9382965 128.9722303  97.0566369
 122.4208188 128.9474602  97.3622385 125.0312093 114.2395252  99.6062350
 125.5280793 113.4865214  99.2863420 124.2599075 114.2759569  99.0405559
 132.8841851 119.9435617 101.2480641 132.8731727 120.8260333 100.8774574
 132.0159230 119.5907168 101.0535178 124.3924347 129.0915686 105.6083481
 125.1052319 129.7263151 105.5359383 123.9014376 129.1879552 104.7923483
 126.1141874 122.9966939  97.1800773 125.1798153 123.1168402  97.0105477
 126.2918543 122.0939406  96.9160783 121.6147062 116.3812635  99.3334034
 121.2444850 115.8283675 100.0214940 122.1106155 115.7770768  98.7809034
 129.5014425 118.8384258  97.7150807 129.9674878 119.6712250  97.6411110
 129.9521926 118.3729240  98.4196066 119.4436261 126.8410130 106.4289052
 120.1445720 127.4746613 106.5818446 118.9731376 127.1824861 105.6684691
 127.5690657 125.1828080  94.7136959 127.8450500 125.0684674  95.6230833
 126.6995155 124.7845565  94.6749132 127.4731088 111.2064845 101.7541709
 126.5594168 111.4369072 101.9223915 127.9024190 111.2903289 102.6055741
 127.2437547 119.3954737 104.2541603 126.5908997 119.6430645 103.5994055
 127.6217927 118.5818876 103.9204080 124.2044721 129.4314431  98.3569773
 124.3867115 128.6136086  98.8197525 125.0277707 129.6482123  97.9194663
 124.5386886 128.3582616  95.6184821 125.0674653 127.8475070  95.0054983
 124.8015106 128.0425146  96.4830354 123.2925120 120.1374548 110.7407640
 122.6165757 120.0368678 111.4110015 124.1152754 119.9813762 111.2043637
 115.0403979 126.3746485 103.3620155 115.6257416 125.6290173 103.4948059
 114.8428817 126.6850442 104.2456819 117.8942634 129.4097732  98.3782597
 117.2253009 129.8943860  97.8946637 117.7555504 129.6566953  99.2925976
 109.6321634 118.9452085 102.0824598 109.6705733 118.4115676 102.8761716
 109.1261926 118.4187291 101.4635575 122.0347903 131.4441476 104.9765256
 122.5866211 131.6073097 105.7414341 122.3754096 132.0345914 104.3045280
 117.0112396 113.7916626 105.5787140 117.0753722 114.6531457 105.1664538
 116.9479516 113.1790627 104.8459499 116.4864668 115.8639758 109.2260175
 117.1136707 115.4816836 109.8397699 115.6292587 115.6453960 109.5915867
 126.8858777 126.2702733 110.8313910 127.4298681 126.8832692 110.3368865
 126.3045622 126.8282312 111.3480923 125.1716290 129.3923451 101.9628938
 125.0467429 128.5913191 101.4539883 125.8295381 129.8869645 101.4742908
 127.2351198 127.1932471 103.5908488 126.2881534 127.0737823 103.5186815
 127.5833971 126.3054970 103.6734749 119.5950772 113.0826610 107.4146730
 120.1185173 113.3288907 108.1773039 119.3763105 113.9146645 106.9949867
 124.2397632 126.9885188  99.7912840 124.0922594 126.0601895  99.9720410
 125.0651125 127.0105278  99.3069915 127.8431753 127.8113746 100.8777713
 128.7678301 127.6056608 100.7402164 127.6747057 127.5630148 101.7867054
 120.8003317 114.0240306 105.0996400 120.4600137 113.2248119 105.5017080
 120.0942323 114.3242016 104.5273233 121.4519789 111.1089618 103.5523723
 122.2745858 110.6350096 103.4302614 121.6957852 111.8880102 104.0522410
 120.0928023 114.1377876  93.8486625 120.8136386 114.5159129  93.3450342
 119.4693327 114.8566753  93.9521603 124.2359146 114.8423025  94.7844957
 124.4522760 115.7247663  94.4833786 123.7553213 114.4509239  94.0550599
 118.9758367 117.8008739 101.3615702 118.8302948 118.1149042 102.2539983
 118.4983571 118.4193639 100.8086601 120.8354750 114.7911287 101.4096591
 120.8216319 113.8952380 101.0728889 121.5527178 114.7981950 102.0434878
 122.6880881 115.2248627 103.4549719 122.4298659 116.1465697 103.4534049
 122.1565921 114.8279061 104.1450183 127.6327070 128.3299414  96.2339804
 127.8063947 127.7645836  95.4813657 128.1255961 129.1300309  96.0519294
 113.4504029 120.3414083 104.3003363 112.9057498 121.1173891 104.4323637
 114.3283379 120.6884887 104.1422485 120.2391646 113.6725667  96.6784162
 120.3607557 112.7442313  96.8775049 119.9493688 113.6864353  95.7662477
 123.1082836 111.3580577  99.8150881 123.1304533 111.4219910  98.8602861
 123.5250895 110.5185086 100.0091388 133.4866461 121.0935837  97.8530104
 133.9297607 120.3443162  97.4549227 132.6092971 121.0845973  97.4703836
 128.6202242 127.6466178  93.3336703 129.3153147 128.2672871  93.5524017
 128.9625392 126.7961530  93.6089080 114.2370051 119.4683979 107.1933520
 113.4951787 119.6166615 107.7798150 113.9162796 119.7292245 106.3300269
 130.5193665 125.0965884  94.8624033 131.0444989 125.4353157  94.1373353
 130.4316018 124.1612899  94.6787168 122.1813714 129.0099957 106.9913910
 122.4900840 128.7649104 107.8636610 122.9789196 129.2146596 106.5032780
 122.2034326 131.1637867  99.2219287 121.7639316 130.6714246  99.9152143
 122.9542443 130.6210835  98.9811362 114.6826665 127.3549408  99.2243915
 115.5084685 127.0553180  98.8442558 114.3320717 126.5857030  99.6733703
 119.6508198 126.7075876 101.2941588 119.0288207 126.0446581 100.9943816
 120.3213065 126.7337008 100.6115236 112.8835270 125.2735734 100.1832848
 112.0467178 124.8457909 100.0016849 112.8558915 125.4668178 101.1203639
 119.7232726 115.1857664 110.8874094 119.7720881 116.0619787 110.5051864
 120.2655240 114.6435057 110.3145737 130.2087571 125.7298787 110.1675231
 129.4183115 125.7122926 109.6279731 129.9720926 126.2687081 110.9224268
 130.3285446 122.5791254 107.4807960 130.3783451 122.4141261 108.4223483
 130.2199370 121.7118513 107.0905841 119.2121705 125.2579800  94.7700049
 119.3609825 125.9415264  94.1166721 120.0188149 125.2384890  95.2849504
 127.6189209 118.5622182 108.7967267 128.5199072 118.4228647 108.5051264
 127.6937183 118.7276637 109.7365444 121.9532014 115.9389037 107.6420453
 121.0835323 116.2322603 107.3703041 122.1891494 116.5229482 108.3627717
 131.8303643 124.9988195 107.7249981 131.5388451 125.3618176 108.5613442
 131.2175774 124.2855204 107.5463313 133.0299325 122.5641075 100.2452552
 133.8646217 123.0030879 100.4090112 133.1658454 122.0879728  99.4260797
 130.0790831 120.1220810 106.1930039 130.5544953 120.3148456 105.3848891
 129.1556397 120.1779996 105.9473423 116.9674338 121.2844977  95.7761118
 116.7220380 120.3807307  95.9741328 117.1370253 121.2862128  94.8340596
 124.6571048 112.1568654 105.1585873 125.1752992 112.8929680 104.8332362
 124.3026181 112.4632647 105.9932632 124.9083642 108.5768936 100.6786770
 125.1885396 107.9092125 101.3047196 125.6934249 108.7698032 100.1661434
 122.7117111 127.7527930  92.2411796 122.1391078 128.3718117  91.7882268
 123.2849904 128.3027292  92.7751718 128.7792500 116.9986570 104.4258345
 129.7309923 117.0984668 104.4470569 128.6095951 116.2064839 104.9356429
 126.8006880 114.0842153 104.6117746 126.2056812 114.3647166 103.9164235
 126.5156577 114.5736054 105.3834487 125.9314370 128.0365080  93.3720378
 126.8645044 127.9710642  93.5753254 125.8437583 128.8721347  92.9134911
 128.5602387 127.3530950  90.3324326 128.4816019 127.0190814  91.2260084
 129.3812054 127.8452718  90.3315798 131.2580578 120.2192690 103.5400645
 131.2256898 119.2808690 103.7260328 131.8681202 120.2976726 102.8066470
 123.0963909 119.0888743  89.5827849 124.0423014 118.9594951  89.6516267
 122.7178154 118.3503405  90.0597277 131.4075067 117.0103733 103.5858928
 130.8914115 116.2262190 103.3988857 132.2915015 116.6822450 103.7505447
 129.0685794 110.7544749  99.5454740 128.8710615 110.4459837 100.4298072
 129.6785499 111.4806388  99.6752670 137.0757128 121.2808697 102.6806681
 137.8060517 121.0193985 103.2414385 136.4664074 120.5437419 102.7208749
 135.1572425 119.4216559 103.2781133 134.4305589 119.2872524 102.6697624
 134.7419712 119.7293388 104.0837851 122.9802602 123.1406489 111.0428506
 123.9005611 123.3185088 111.2368552 122.9452185 122.1962534 110.8908205
 121.2806826 117.0138719  89.5182734 120.3738282 116.7171832  89.5945448
 121.5582807 116.7168537  88.6517020 112.1984767 118.3345083  99.9681780
 111.8787551 117.4810391  99.6756154 111.6518195 118.5493661 100.7239748
 115.9764674 121.0507524 103.6851287 116.1950684 121.9824631 103.7039321
 116.3890448 120.6915498 104.4706091 122.8968892 111.5575609  95.6726975
 122.0869620 111.2122694  96.0482221 123.5853309 111.2483153  96.2614587
 124.8259440 110.6353656  97.2951272 125.3790479 111.0549109  97.9541295
 125.0629527 109.7089404  97.3374228 120.8492539 116.6240729 113.0754036
 120.7489266 117.5735086 113.0066127 120.6314082 116.2958968 112.2030106
 120.0505611 113.8725654  89.6594713 120.9124775 114.1980553  89.9190530
 120.2355955 113.0857150  89.1467779 112.0673027 121.9547994 101.9374902
 111.3736498 121.5401947 101.4244856 112.8146018 121.9968531 101.3408321
 128.2038247 112.7454181  96.8029936 127.6236916 113.4038985  96.4207989
 127.9374180 111.9231525  96.3917354 126.6541814 112.1459239  99.0051256
 127.1541592 112.2575773  98.1965575 127.2977422 111.8420291  99.6452065
 120.7123810 120.0537868 111.8919097 120.2290891 120.8538228 112.0982986
 120.7984749 120.0645813 110.9386541 113.9809769 121.8866248  99.8140917
 113.9580457 121.9853935  98.8622800 114.2910406 122.7331399 100.1358083
 116.6397147 123.9442403 103.9287531 117.5940401 123.9126345 103.8617463
 116.4409671 123.4833027 104.7437757 117.2296529 122.5143519 106.4958329
 118.0489418 123.0087598 106.5193166 117.5033337 121.5975487 106.4675896
 126.9863125 114.9054271  95.8586284 126.0988980 115.1903922  95.6406479
 127.4017114 114.7448035  95.0113561 130.3377661 114.9300792  99.5740624
 131.1138052 115.4197245  99.8465240 129.6125796 115.3558846 100.0312493
 132.7750220 115.6428411 100.6314564 133.3694711 115.4024147  99.9207872
 132.8476804 114.9235542 101.2588101 114.9947376 129.4862022 100.9457729
 114.8601844 128.7262423 100.3795727 114.5779438 130.2102922 100.4786518
 126.1306339 124.6698946  89.9534304 126.8342189 124.8748948  90.5691960
 125.4068988 125.2375708  90.2183388 126.9604149 120.4208807  96.0736575
 126.9039350 120.8777359  95.2344207 127.5132492 119.6599492  95.8959417
 130.7708955 116.2098539  96.8986694 130.5145889 115.8095175  97.7294902
 130.1461823 116.9242333  96.7736833 135.0821293 118.9494612  99.4057985
 134.5220851 119.0187802 100.1789547 134.4764796 118.7735597  98.6857482
 118.1516502 130.3831339 101.1576172 118.0348886 131.3276772 101.0554862
 117.3308948 130.0804901 101.5461971 128.0393036 125.1081475  92.0032764
 128.8738640 124.6762674  91.8210239 127.8777379 124.9363489  92.9309659
 127.6938928 121.6113588  93.3689104 127.6387732 121.4457860  92.4277548
 127.0684984 122.3189621  93.5251293 112.4831443 116.8481653 107.1950526
 113.1290307 116.3380607 107.6837751 112.2748594 117.5850334 107.7693951
 125.0084836 123.9162500 112.6942666 125.8775995 124.0903153 112.3329301
 124.5291587 124.7356917 112.5718396 121.0035054 111.1121697  92.9474422
 120.9913724 112.0563537  93.1042693 121.8958476 110.9291843  92.6533883
 119.1771016 131.0359601 104.3732100 120.0798263 131.0683212 104.6898595
 118.9508386 130.1060052 104.3878436 120.9324618 129.7890588 101.0342179
 119.9820249 129.7892449 100.9206551 121.2357104 129.0423322 100.5178213
 124.8187173 107.7064474  97.2020359 124.0519569 107.1522961  97.3477041
 125.2297878 107.7786343  98.0634511 116.8228934 113.9949270 111.2925540
 117.6860396 113.6386075 111.5028865 116.2494345 113.6563165 111.9800944
 133.4767018 135.5778554 102.0349466 133.1385529 135.4619619 101.1470001
 134.3456786 135.1769719 102.0150472 129.3353833 137.4314031  98.0246357
 128.7718698 137.3403968  97.2562645 129.2206228 136.6113935  98.5048849
 126.8818265 138.9265222 100.8630577 127.6739557 138.5856047 100.4476877
 127.1214915 139.0360197 101.7832731 128.8409019 138.1874136  93.7347956
 129.6139895 137.6403123  93.5960832 129.1934418 139.0518385  93.9462417
 131.6050269 136.8927366 103.5316215 132.2013841 136.6683389 102.8173178
 131.6625240 136.1512112 104.1341663 131.1775297 134.3466802  91.3666406
 131.4300818 133.8248323  90.6049869 130.2399856 134.1832947  91.4693090
 136.2218580 133.3502580  99.1741149 137.0081669 132.9322003  98.8231566
 136.4857284 134.2548672  99.3422798 130.8971586 136.2494908  93.5690781
 130.7807844 135.5739811  94.2371865 131.0073846 135.7627282  92.7522934
 133.2403127 135.7105055  97.2737470 132.8761334 135.1835676  97.9850392
 134.0970243 135.3203524  97.1003956 139.1452427 126.9999387 104.5368736
 138.8135752 127.8694798 104.3129951 138.5498041 126.6835671 105.2162767
 132.8808614 130.7394954  92.2698819 133.0483016 131.6075191  92.6369290
 132.6905783 130.9022236  91.3460108 129.0896428 135.6525730  99.9701353
 128.1646925 135.5201944 100.1779045 129.3380841 136.4319949 100.4671296
 139.0381091 131.7194474 101.6162086 138.1297968 131.6509882 101.3220847
 138.9868686 132.1966418 102.4443912 132.8597835 133.1952612  93.2545485
 132.7397460 133.6409663  94.0930966 132.1650423 133.5437930  92.6959024
 126.4505239 135.2959004 100.8045143 126.5797620 135.5493483 101.7184554
 125.7702691 135.8886712 100.4849798 140.9042737 129.9210912 103.3939960
 140.2617117 130.2143445 102.7479755 140.3997666 129.8063832 104.1993157
 133.1954738 133.0271320 105.0920669 134.0415934 133.4510733 105.2355318
 133.1353376 132.3704944 105.7859232 135.9018875 129.8432121 102.3315680
 135.0403354 130.1413375 102.6232418 135.9281310 130.0602520 101.3996713
 129.6104526 137.9345793 101.6769249 130.1805883 138.3633062 101.0386734
 130.2012638 137.6528378 102.3753435 131.6549331 134.5097464  95.5479051
 132.3573374 134.9618508  96.0152978 131.3229959 133.8681283  96.1758944
 125.3974665 132.7681017 100.8496185 124.6073719 133.0238545 100.3736295
 125.8885912 133.5829355 100.9548225 127.3489410 133.1325596  97.8079662
 126.5520574 133.2444290  98.3263157 127.1215002 133.4712248  96.9420552
 123.6812368 133.0211507 103.2811176 123.9320406 133.9058517 103.5468752
 124.2171916 132.8416109 102.5086267 126.3472493 138.8413845  96.1969082
 126.8597013 139.6357095  96.3474646 126.9995206 138.1440135  96.1302683
 127.4419734 134.0044233 108.1553998 127.3273249 133.1029490 108.4561097
 126.5864252 134.2507930 107.8038814 136.2435559 124.8468969 104.1540050
 135.8999828 125.7370610 104.0779161 136.6114522 124.6570626 103.2909635
 124.3121410 137.1702499  96.9728652 125.1496632 137.5799507  96.7562360
 124.4899677 136.2301941  96.9428846 133.7932953 129.6827280  97.7197723
 132.9374549 129.2934131  97.5403362 134.2059905 129.7619241  96.8597509
 135.3232099 127.2173624 102.1189283 134.8196895 127.1803759 101.3057088
 135.6162706 128.1266366 102.1785940 131.5674985 127.3012353 101.1255465
 132.4327982 127.1055162 100.7661354 131.6352494 127.0722705 102.0524822
 135.9972145 132.7104672  94.4872266 135.6922281 133.0250821  95.3382409
 136.9502587 132.7886092  94.5299599 129.1737304 129.5314561  98.4971832
 129.7481056 129.3089743  97.7645025 129.7608287 129.6003256  99.2500433
 129.5006892 131.5619022  92.5167717 128.6644204 131.8993709  92.8376992
 129.3611661 131.4268002  91.5794854 131.4759972 126.4055810  97.2246901
 130.8224384 126.0904827  96.6003516 131.4340446 125.7831551  97.9506724
 132.5871177 136.6875105  89.1400193 131.6798239 136.4564359  89.3391342
 133.0842209 135.8912725  89.3274175 134.7097713 132.8937744 101.5494549
 133.7920274 133.1152691 101.3916237 135.1257856 132.9684054 100.6906256
 137.9411597 131.3286276  98.6616018 137.2034354 130.8163662  98.9926261
 138.1938371 130.8886657  97.8499295 138.0423225 124.1062528  99.2557788
 138.3482102 123.2459891  98.9683703 138.7675830 124.6980148  99.0556782
 124.3347581 134.5093214  97.6439386 124.1371981 133.9162575  96.9190452
 123.7794245 134.2045424  98.3615324 132.3144304 134.4016321  99.7633979
 132.3692914 133.4490157  99.6876455 131.5035507 134.5575760 100.2475277
 130.2536664 133.0193380  97.5224358 129.4404530 133.3187551  97.9289550
 130.7495659 132.6249069  98.2398840 129.7450739 130.5911736 103.1385592
 130.3850118 130.4500495 102.4408556 128.9128270 130.3046249 102.7624194
 126.8293807 134.0357248  95.3280338 125.8991395 133.9741704  95.5450300
 126.9251279 133.5133201  94.5316979 126.7479356 130.5612061  97.9158579
 127.0086173 131.4757394  97.8067740 127.5696528 130.0936504  98.0655192
 128.2204281 131.9749818 105.0857404 128.8927334 131.7667180 104.4370053
 127.3934067 131.7771904 104.6462636 134.1229853 128.6011759 107.1023065
 133.4757768 129.3001709 107.0087541 134.8930868 129.0347903 107.4699313
 128.6231778 135.2492421 105.8459841 128.4851576 134.5172660 106.4471380
 129.5336702 135.1601321 105.5644029 129.9643013 131.9477598 107.1539160
 129.4280370 131.4968337 107.8060756 129.3759721 132.0823507 106.4109624
 129.3745272 131.4066250  89.7165624 128.4974738 131.2855051  89.3527870
 129.8503025 130.6152328  89.4644512 120.8947412 136.1943409  99.8107131
 121.5818452 135.8805140  99.2228146 120.7395541 137.0984774  99.5374382
 125.6982134 131.0833606 104.2392155 125.6140323 130.4759276 103.5042565
 124.8764840 131.5742624 104.2401651 135.8705848 129.5687170  99.6062350
 136.3674547 128.8157132  99.2863420 135.0992829 129.6051486  99.0405559
 132.4540817 131.7104553  99.3334034 132.0838604 131.1575593 100.0214940
 132.9499909 131.1062686  98.7809034 138.3124843 126.5356763 101.7541709
 137.3987923 126.7660990 101.9223915 138.7417944 126.6195207 102.6055741
 125.8797733 141.7038403 103.3620155 126.4651170 140.9582091 103.4948059
 125.6822572 142.0142359 104.2456819 120.4715388 134.2744003 102.0824598
 120.5099488 133.7407594 102.8761716 119.9655681 133.7479208 101.4635575
 127.8506150 129.1208543 105.5787140 127.9147477 129.9823374 105.1664538
 127.7873271 128.5082545 104.8459499 127.3258423 131.1931676 109.2260175
 127.9530462 130.8108753 109.8397699 126.4686342 130.9745878 109.5915867
 124.1023966 133.0008105  95.1578529 124.3977407 132.0918783  95.1045583
 123.2012001 132.9795844  94.8359532 127.6318213 131.0764102 101.1406078
 126.9104798 131.6900069 101.0013551 128.4211468 131.6121866 101.0622724
 130.4344526 128.4118528 107.4146730 130.9578928 128.6580825 108.1773039
 130.2156859 129.2438563 106.9949867 125.8311807 130.6822203  95.2817855
 125.5024513 129.8019582  95.0992960 126.1851178 130.6269871  96.1694244
 128.9453630 130.9695172  95.6493332 129.2849703 131.4981094  94.9271941
 129.3925751 131.3075579  96.4251899 131.6397071 129.3532223 105.0996400
 131.2993892 128.5540036 105.5017080 130.9336077 129.6533934 104.5273233
 132.2913543 126.4381536 103.5523723 133.1139612 125.9642014 103.4302614
 132.5351607 127.2172019 104.0522410 130.9321777 129.4669794  93.8486625
 131.6530140 129.8451047  93.3450342 130.3087082 130.1858671  93.9521603
 135.0752900 130.1714943  94.7844957 135.2916515 131.0539581  94.4833786
 134.5946968 129.7801156  94.0550599 129.8152122 133.1300656 101.3615702
 129.6696702 133.4440959 102.2539983 129.3377325 133.7485557 100.8086601
 131.6748505 130.1203204 101.4096591 131.6610073 129.2244298 101.0728889
 132.3920933 130.1273868 102.0434878 133.5274635 130.5540544 103.4549719
 133.2692413 131.4757615 103.4534049 132.9959676 130.1570979 104.1450183
 124.2897784 135.6706001 104.3003363 123.7451252 136.4465809 104.4323637
 125.1677134 136.0176805 104.1422485 131.0785401 129.0017585  96.6784162
 131.2001312 128.0734231  96.8775049 130.7887443 129.0156270  95.7662477
 133.9476591 126.6872495  99.8150881 133.9698288 126.7511828  98.8602861
 134.3644650 125.8477004 100.0091388 125.0763806 134.7975897 107.1933520
 124.3345542 134.9458532 107.7798150 124.7556550 135.0584163 106.3300269
 123.7229025 140.6027652 100.1832848 122.8860933 140.1749826 100.0016849
 123.6952670 140.7960095 101.1203639 127.8068093 136.6136895  95.7761118
 127.5614134 135.7099225  95.9741328 127.9764007 136.6154045  94.8340596
 135.4964802 127.4860571 105.1585873 136.0146746 128.2221598 104.8332362
 135.1419935 127.7924565 105.9932632 127.0763740 132.3465252  93.2747279
 126.3832985 132.4209607  92.6187315 126.8315492 131.5825596  93.7968796
 135.7477397 123.9060854 100.6786770 136.0279150 123.2384043 101.3047196
 136.5328003 124.0989949 100.1661434 137.6400634 129.4134071 104.6117746
 137.0450566 129.6939084 103.9164235 137.3550331 129.9027972 105.3834487
 133.9357664 134.4180660  89.5827849 134.8816768 134.2886869  89.6516267
 133.5571909 133.6795322  90.0597277 139.9079548 126.0836666  99.5454740
 139.7104369 125.7751755 100.4298072 140.5179254 126.8098305  99.6752670
 132.1200581 132.3430637  89.5182734 131.2132036 132.0463750  89.5945448
 132.3976562 132.0460455  88.6517020 123.0378521 133.6637000  99.9681780
 122.7181305 132.8102308  99.6756154 122.4911949 133.8785578 100.7239748
 126.8158429 136.3799441 103.6851287 127.0344438 137.3116549 103.7039321
 127.2284202 136.0207416 104.4706091 133.7362646 126.8867527  95.6726975
 132.9263375 126.5414611  96.0482221 134.4247063 126.5775070  96.2614587
 135.6653195 125.9645573  97.2951272 136.2184233 126.3841027  97.9541295
 135.9023281 125.0381321  97.3374228 130.8899365 129.2017572  89.6594713
 131.7518529 129.5272470  89.9190530 131.0749709 128.4149068  89.1467779
 122.9066781 137.2839912 101.9374902 122.2130253 136.8693864 101.4244856
 123.6539772 137.3260448 101.3408321 139.0432002 128.0746098  96.8029936
 138.4630671 128.7330903  96.4207989 138.7767934 127.2523443  96.3917354
 137.4935568 127.4751156  99.0051256 137.9935347 127.5867691  98.1965575
 138.1371176 127.1712209  99.6452065 124.8203524 137.2158165  99.8140917
 124.7974212 137.3145853  98.8622800 125.1304160 138.0623316 100.1358083
 127.4790902 139.2734321 103.9287531 128.4334155 139.2418263 103.8617463
 127.2803425 138.8124944 104.7437757 137.8256880 130.2346189  95.8586284
 136.9382735 130.5195839  95.6406479 138.2410869 130.0739952  95.0113561
 141.1771416 130.2592710  99.5740624 141.9531806 130.7489162  99.8465240
 140.4519550 130.6850764 100.0312493 123.3225198 132.1773570 107.1950526
 123.9684061 131.6672524 107.6837751 123.1142349 132.9142252 107.7693951
 131.8428808 126.4413615  92.9474422 131.8307478 127.3855455  93.1042693
 132.7352230 126.2583760  92.6533883 135.6580928 123.0356392  97.2020359
 134.8913324 122.4814878  97.3477041 136.0691633 123.1078260  98.0634511
  49.9527277 -10.0022093  88.8233248  50.5905687 -10.1215345  88.1196588
  49.8348120  -9.0541249  88.8821200  46.7616983 -10.0494665  88.7594772
  46.4235494 -10.1653600  87.8715307  47.6306751 -10.4503499  88.7395779
  47.2436766  -8.8959813  94.7180978  47.2325407  -9.2907015  93.8461482
  47.4057405  -9.6293740  95.3114749  48.2003357  -4.5288220  80.0606128
  47.5491337  -3.9434140  79.6740142  48.9947720  -3.9982026  80.1201166
  43.9644027  -6.1122701  93.6660162  43.6733893  -5.2077070  93.5506828
  44.6001011  -6.0706173  94.3804232  49.6778622  -6.8397788  80.5975113
  49.0424455  -6.7663162  81.3096017  49.3476029  -6.2504190  79.9194192
  48.9233912  -6.4261285  90.6609956  48.6234635  -5.5236247  90.5525763
  48.5784972  -6.6929102  91.5131109  43.9054692   0.3383035  83.6280923
  43.8278722   1.2890860  83.7069404  43.3016336  -0.0071093  84.2855850
  50.1273634  -7.5374506  94.4432419  50.5356990  -7.9792095  93.6987051
  49.4050895  -8.1121878  94.6966612  50.4502448  -6.9773315  88.1984708
  49.8211311  -6.8127601  87.4960775  50.0628110  -6.5631706  88.9695672
  54.3291680  -6.0418877  85.5529071  53.6442718  -5.6619976  85.0026105
  54.4135530  -5.4323551  86.2861019  51.5842612  -8.3958918  92.1524415
  51.7959507  -7.7527159  91.4758796  51.5372360  -9.2296602  91.6846345
  46.0030410  -7.2398907  85.4634793  46.4668756  -6.9611204  84.6739415
  45.7387208  -8.1415463  85.2807883  42.8954491  -7.6927426  88.4014556
  43.4655848  -7.2640157  87.7632040  43.4862603  -7.9744841  89.0998742
  52.6988440  -5.5186963  90.3246772  53.5205883  -5.9206776  90.0429454
  52.6950843  -5.6218729  91.2762888  46.4645043  -5.9702920  92.4807483
  46.5289476  -5.5082512  93.3165655  45.7555967  -6.6005555  92.6089793
  46.1793061  -4.3034812  82.3486463  46.0438736  -3.4583276  82.7771311
  46.7202873  -4.1015535  81.5852397  41.4417343  -3.6693618  85.0037141
  41.6183971  -2.7475653  84.8158125  42.2374176  -3.9835199  85.4331521
  47.8061537  -3.6811246  96.4786805  47.3625391  -4.4674867  96.1607710
  48.4678751  -3.4932095  95.8130696  42.5648658  -2.1515444  91.0047484
  43.1156084  -2.2798381  90.2324478  41.7260134  -1.8520555  90.6542376
  49.9042775  -3.4008446  94.5068206  49.8861251  -2.5799565  94.0148476
  50.8262695  -3.5254371  94.7318348  46.3615829  -5.8864316  95.3491715
  46.8944166  -6.6476028  95.1191023  45.8329911  -6.1790664  96.0915869
  49.4935807 -10.7895639  79.3857792  48.9782431 -10.0191035  79.6246179
  49.2213116 -11.4630503  80.0090853  54.4670081  -8.0363285  81.3210965
  53.6899524  -8.3752125  80.8766127  55.1461562  -8.0310661  80.6465930
  47.7268542  -6.7578324  82.8610527  47.1989904  -7.4925564  82.5483764
  47.2256045  -5.9803647  82.6150495  52.7061388  -8.5629303  87.9777573
  52.0485063  -7.8730042  88.0657702  53.5101787  -8.1732871  88.3211559
  51.5166847 -10.2084931  86.0281515  52.0298729  -9.5754939  86.5303225
  52.1668071 -10.8083735  85.6624875  45.8721142  -8.9398114  75.8645500
  44.9648204  -9.1708860  76.0636649  46.3692174  -9.7360494  76.0519481
  48.7789221  -0.2300606  78.7842186  48.1050920   0.0731090  79.3927144
  49.1655043   0.5728474  78.4347643  48.7782726 -11.3344059  83.4042536
  49.5254545 -10.8222662  83.0949658  49.0474315 -11.6560007  84.2646929
  47.0509376  -8.8385519  80.3869490  46.1420595  -9.1226486  80.4841960
  47.0804460  -8.4186440  79.5272797  52.2828643  -5.2278929  84.1560658
  51.8290970  -6.0688019  84.2125848  51.6522610  -4.5917531  84.4935438
  50.7261582  -3.3902432  85.0910476  51.0184557  -2.8297375  84.3722841
  51.2360203  -3.0973871  85.8463635  46.7485464  -7.2976775  77.7257569
  46.3104894  -8.0140916  77.2663206  47.4895904  -7.0700660  77.1642660
  45.6895208  -2.6122081  86.1803929  45.6471386  -2.3861235  85.2512461
  46.6057906  -2.8458707  86.3289730  49.1360841 -12.1438014  93.0784558
  49.4910229 -11.9166541  93.9379024  49.7832973 -11.8119637  92.4561813
  54.8658578  -9.0219578  83.7833887  54.7276477  -8.8317982  82.8555076
  54.5094797  -8.2600195  84.2401938  54.8927958  -6.9543051  88.7945159
  55.3264465  -7.0467762  89.6428213  55.6059539  -6.9785550  88.1565175
  43.8061008  -5.7359052  85.9765892  44.6001607  -6.2308732  85.7748467
  43.0952701  -6.2641189  85.6133597  48.6255853  -3.3540957  90.3278259
  48.6792875  -2.7850021  91.0955975  47.7570634  -3.1839072  89.9632296
  55.7543508  -6.9119350  91.3278044  55.9479398  -6.0073540  91.5737319
  55.6544126  -7.3711931  92.1616629  50.8158616  -6.7612608  96.9018925
  50.6644123  -6.9902056  95.9849008  50.8063296  -5.8042006  96.9150270
  47.5843953  -9.1880695  91.8865191  48.5136013  -9.0369535  91.7134158
  47.1634983  -9.0996674  91.0313838  46.3832284  -5.1630030  89.6563729
  46.2443370  -5.5311246  90.5289667  45.5946881  -4.6482391  89.4847686
  46.9780436  -0.0620934  80.9989265  47.1532192  -0.5332891  81.8134888
  46.2913224   0.5644832  81.2270526  47.9337500  -5.7848428  87.0452566
  47.5987332  -5.8247658  87.9410216  47.4341445  -6.4503712  86.5722977
  50.8696691  -8.4392393  77.3189626  50.2525862  -9.1645565  77.2222679
  50.4013180  -7.6783033  76.9756700  52.5250823  -3.7293485  94.9795406
  52.4663369  -4.4134265  94.3125990  52.9270341  -2.9874495  94.5276032
  41.5441522   3.0868429  87.7729125  41.7838120   3.7186953  88.4508144
  40.7010718   2.7356469  88.0594485  52.5268230  -5.7653901  93.2109386
  51.6395009  -6.1027979  93.3335785  53.0966781  -6.4970870  93.4478152
  46.0569384  -1.1052449  90.1770629  45.9839555  -0.2997477  90.6889934
  45.6146777  -0.9060483  89.3518651  45.8459163  -1.8680679  83.6873451
  45.0626685  -1.3258998  83.7811675  46.5451908  -1.3506699  84.0867692
  48.5168067  -1.2065615  92.3328788  49.2296039  -0.5718150  92.2604689
  48.0258096  -1.1101749  91.5168790  50.2385594  -7.3014362  83.9046080
  49.3041873  -7.1812900  83.7350784  50.4162262  -8.2041895  83.6406090
  43.5679981  -3.4571171  93.1534359  44.2689440  -2.8234688  93.3063753
  43.0975096  -3.1156440  92.3929998  51.6934376  -5.1153221  81.4382266
  51.9694220  -5.2296627  82.3476140  50.8238875  -5.5135737  81.3994439
  48.3288440  -0.8666871  85.0815079  48.5110835  -1.6845215  85.5442832
  49.1521426  -0.6499178  84.6439969  48.6630606  -1.9398685  82.3430128
  49.1918372  -2.4506231  81.7300290  48.9258826  -2.2556155  83.2075661
  47.4168840 -10.1606753  97.4652946  46.7409477 -10.2612623  98.1355321
  48.2396473 -10.3167539  97.9288943  39.1647699  -3.9234816  90.0865462
  39.7501135  -4.6691128  90.2193366  38.9672537  -3.6130859  90.9702125
  42.0186354  -0.8883569  85.1027904  41.3496729  -0.4037441  84.6191944
  41.8799224  -0.6414348  86.0171282  46.1591622   1.1460175  91.7010562
  46.7109930   1.3091796  92.4659647  46.4997816   1.7364613  91.0290587
  51.0102497  -4.0278568  97.5559217  51.5542401  -3.4148609  97.0614171
  50.4289342  -3.4698989  98.0726230  49.2960010  -0.9057850  88.6874244
  49.1711149  -1.7068110  88.1785190  49.9539101  -0.4111656  88.1988214
  51.3594918  -3.1048830  90.3153795  50.4125254  -3.2243478  90.2432121
  51.7077691  -3.9926332  90.3980056  48.3641351  -3.3096113  86.5158147
  48.2166314  -4.2379406  86.6965717  49.1894845  -3.2876023  86.0315222
  51.9675473  -2.4867555  87.6023020  52.8922021  -2.6924693  87.4647471
  51.7990777  -2.7351154  88.5112361  51.7570789  -1.9681887  82.9585111
  51.9307667  -2.5335465  82.2058963  52.2499681  -1.1680992  82.7764601
  52.7445962  -2.6515123  80.0582009  53.4396867  -2.0308430  80.2769324
  53.0869112  -3.5019772  80.3334387  54.6437385  -5.2015417  81.5869340
  55.1688709  -4.8628145  80.8618660  54.5559738  -6.1368402  81.4032475
  46.3057434  -1.2881344  93.7159217  46.6144560  -1.5332197  94.5881916
  47.1032916  -1.0834705  93.2278087  46.3278046   0.8656566  85.9464593
  45.8883036   0.3732945  86.6397450  47.0786163   0.3229534  85.7056668
  38.8070385  -2.9431893  85.9489221  39.6328405  -3.2428121  85.5687865
  38.4564437  -3.7124271  86.3979010  43.7751918  -3.5905425  88.0186895
  43.1531927  -4.2534720  87.7189123  44.4456785  -3.5644293  87.3360543
  54.3331291  -4.5682514  96.8920538  53.5426835  -4.5858375  96.3525037
  54.0964646  -4.0294220  97.6469575  54.4529166  -7.7190047  94.2053266
  54.5027171  -7.8840040  95.1468789  54.3443090  -8.5862788  93.8151147
  43.3365425  -5.0401502  81.4945355  43.4853545  -4.3566037  80.8412028
  44.1431868  -5.0596412  82.0094811  55.9547363  -5.2993106  94.4495288
  55.6632171  -4.9363125  95.2858749  55.3419494  -6.0126097  94.2708620
  57.1543045  -7.7340226  86.9697858  57.9889937  -7.2950422  87.1335419
  57.2902174  -8.2101573  86.1506104  54.2034551 -10.1760491  92.9175346
  54.6788673  -9.9832845  92.1094197  53.2800117 -10.1201305  92.6718730
  46.8360830  -2.5453371  78.9657103  46.2634797  -1.9263184  78.5127575
  47.4093624  -1.9954009  79.4997025  50.0558090  -2.2616221  80.0965685
  50.9888763  -2.3270659  80.2998561  49.9681303  -1.4259954  79.6380218
  52.6846107  -2.9450351  77.0569633  52.6059738  -3.2790487  77.9505391
  53.5055774  -2.4528583  77.0561105  47.1046321  -7.1574812  97.7673812
  48.0249331  -6.9796213  97.9613859  47.0695904  -8.1018767  97.6153512
  39.1191096  -0.8119279  87.6703036  38.9845564  -1.5718878  87.1041034
  38.7023158  -0.0878379  87.2031825  50.2550059  -5.6282355  76.6779611
  50.9585909  -5.4232353  77.2937267  49.5312707  -5.0605593  76.9428695
  51.0847869  -9.8772494  82.7981881  51.0283070  -9.4203943  81.9589514
  51.6376211 -10.6381809  82.6204724  42.2760222   0.0850038  87.8821478
  42.1592606   1.0295471  87.7800169  41.4552668  -0.2176400  88.2707278
  52.1636756  -5.1899826  78.7278071  52.9982360  -5.6218628  78.5455546
  52.0021099  -5.3617812  79.6554966  51.8182648  -8.6867713  80.0934410
  51.7631452  -8.8523441  79.1522854  51.1928703  -7.9791680  80.2496600
  49.1328555  -6.3818801  99.4187973  50.0019715  -6.2078149  99.0574608
  48.6535307  -5.5624384  99.2963702  43.3014736   0.7378300  91.0977407
  44.2041982   0.7701910  91.4143902  43.0752106  -0.1921249  91.1123743
  45.0568338  -0.5090713  87.7587485  44.1063969  -0.5088852  87.6451858
  45.3600824  -1.2557979  87.2423520  60.7921031   5.3269825  88.8233248
  61.4299441   5.2076572  88.1196588  60.6741874   6.2750669  88.8821200
  57.6010737   5.2797253  88.7594772  57.2629249   5.1638318  87.8715307
  58.4700506   4.8788418  88.7395779  53.4597553   7.1332730  84.7491663
  52.8962418   7.0422666  83.9807951  53.3449948   6.3132634  85.2294156
  58.0830520   6.4332105  94.7180978  58.0719161   6.0384903  93.8461482
  58.2451160   5.6998177  95.3114749  51.0061985   8.6283921  87.5875884
  51.7983277   8.2874746  87.1722183  51.2458635   8.7378896  88.5078037
  59.0397112  10.8003697  80.0606128  58.3885092  11.3857778  79.6740142
  59.8341475  11.3309892  80.1201166  52.9652739   7.8892834  80.4593263
  53.7383615   7.3421821  80.3206138  53.3178138   8.7537084  80.6707724
  54.8037782   9.2169217  93.6660162  54.5127648  10.1214848  93.5506828
  55.4394766   9.2585744  94.3804232  55.7293988   6.5946065  90.2561522
  56.3257561   6.3702088  89.5418485  55.7868960   5.8530811  90.8586969
  55.3019017   4.0485501  78.0911713  55.5544537   3.5267022  77.3295176
  54.3643576   3.8851646  78.1938396  60.3462300   3.0521279  85.8986456
  61.1325389   2.6340702  85.5476873  60.6101004   3.9567371  86.0668104
  60.5172377   8.4894129  80.5975113  59.8818210   8.5628756  81.3096017
  60.1869783   9.0787728  79.9194192  65.7470727   2.9896512  86.8019434
  66.4795899   2.4195729  87.0357264  64.9910082   2.6018113  87.2425940
  55.0215306   5.9513606  80.2936088  54.9051564   5.2758510  80.9617172
  55.1317565   5.4645980  79.4768241  57.3646846   5.4123754  83.9982777
  57.0005054   4.8854375  84.7095698  58.2213962   5.0222223  83.8249262
  63.2696147  -3.2981914  91.2614043  62.9379472  -2.4286503  91.0375258
  62.6741760  -3.6145630  91.9408073  57.0052333   0.4413653  78.9944125
  57.1726736   1.3093890  79.3614596  56.8149503   0.6040935  78.0705415
  59.7627667   8.9030632  90.6609956  59.4628390   9.8055671  90.5525763
  59.4178726   8.6362815  91.5131109  53.2140148   5.3544429  86.6946660
  52.2890645   5.2220643  86.9024352  53.4624561   6.1338648  87.1916603
  63.1624810   1.4213172  88.3407393  62.2541688   1.3528581  88.0466154
  63.1112406   1.8985117  89.1689218  56.9841554   2.8971311  79.9790792
  56.8641180   3.3428362  80.8176272  56.2894143   3.2456628  79.4204330
  50.5748959   4.9977703  87.5290449  50.7041340   5.2512182  88.4429861
  49.8946410   5.5905411  87.2095104  54.7448446  15.6674953  83.6280923
  54.6672476  16.6182778  83.7069404  54.1410090  15.3220825  84.2855850
  57.2365676   2.8402818  96.2842290  56.4599010   3.3996738  96.2745155
  57.8756239   3.3259601  96.8057160  65.0286457  -0.3770389  90.1185267
  64.3860837  -0.0837856  89.4725061  64.5241385  -0.4917469  90.9238464
  62.6826620   3.3692784  80.8071126  63.5944477   3.6020171  80.6318824
  62.1736268   3.9529828  80.2446205  55.4912049   5.6488271  95.8460257
  56.2326733   6.1873315  95.5695081  54.7849034   6.2754560  96.0031809
  60.9667388   7.7917412  94.4432419  61.3750744   7.3499822  93.6987051
  60.2444650   7.2170039  94.6966612  57.3198458   2.7290019  91.8165976
  58.1659653   3.1529432  91.9600625  57.2597096   2.0723643  92.5104539
  61.2896203   8.3518602  88.1984708  60.6605065   8.5164317  87.4960775
  60.9021865   8.7660212  88.9695672  65.1685435   9.2873040  85.5529071
  64.4836473   9.6671942  85.0026105  65.2529284   9.8968367  86.2861019
  60.4697904   0.3894387  93.4747149  60.2258835   1.1436447  92.9381425
  60.7457834   0.7679735  94.3094396  62.4236366   6.9332999  92.1524415
  62.6353262   7.5764759  91.4758796  62.3766115   6.0995316  91.6846345
  60.0262595  -0.4549180  89.0560987  59.1647074  -0.1567927  89.3477725
  60.0525030  -0.2378781  88.1242020  56.8424165   8.0893010  85.4634793
  57.3062510   8.3680713  84.6739415  56.5780963   7.1876455  85.2807883
  53.7348246   7.6364492  88.4014556  54.3049603   8.0651760  87.7632040
  54.3256358   7.3547077  89.0998742  55.7793051   4.2116163  82.2724358
  56.4817094   4.6637207  82.7398284  55.4473679   3.5699982  82.9004251
  54.2273412   2.8027919  96.6475567  53.5972073   3.4844200  96.8810964
  54.1209500   2.6911001  95.7028706  49.5218385   2.4699716  87.5741491
  48.7317439   2.7257244  87.0981602  50.0129632   3.2848053  87.6793532
  63.5382194   9.8104955  90.3246772  64.3599638   9.4085142  90.0429454
  63.5344597   9.7073189  91.2762888  51.4733130   2.8344295  84.5324968
  50.6764293   2.9462989  85.0508464  51.2458722   3.1730947  83.6665859
  57.3038798   9.3588998  92.4807483  57.3683230   9.8209405  93.3165655
  56.5949722   8.7286363  92.6089793  47.8056088   2.7230206  90.0056482
  48.0564126   3.6077216  90.2714058  48.3415636   2.5434808  89.2331574
  71.6288187   6.1543703  86.6731744  70.8751896   5.5851101  86.5175748
  71.7635729   6.1206368  87.6202378  57.0186815  11.0257105  82.3486463
  56.8832490  11.8708641  82.7771311  57.5596628  11.2276383  81.5852397
  53.5054155  -2.8951315  99.0100818  53.1121101  -3.4485116  99.6848463
  54.3220295  -2.5840736  99.4007336  50.4716213   8.5432544  82.9214388
  50.9840733   9.3375794  83.0719953  51.1238926   7.8458834  82.8547990
  52.2811097  11.6598300  85.0037141  52.4577726  12.5816264  84.8158125
  53.0767931  11.3456719  85.4331521  56.4222116  -1.4793436  96.6021075
  57.1631829  -0.8786282  96.5225537  56.6540039  -2.2215798  96.0439117
  51.5663454   3.7062932  94.8799305  51.4516969   2.8048189  95.1806403
  50.7107972   3.9526628  94.5284121  58.6455292  11.6480672  96.4786805
  58.2019146  10.8617051  96.1607710  59.3072505  11.8359822  95.8130696
  53.4042413  13.1776474  91.0047484  53.9549838  13.0493537  90.2324478
  52.5653889  13.4771363  90.6542376  60.7436530  11.9283472  94.5068206
  60.7255005  12.7492353  94.0148476  61.6656450  11.8037547  94.7318348
  57.2009584   9.4427601  95.3491715  57.7337921   8.6815890  95.1191023
  56.6723665   9.1501253  96.0915869  60.3679279  -5.4512333  90.8785357
  60.0243548  -4.5610691  90.8024467  60.7358242  -5.6410675  90.0154942
  48.4365130   6.8721198  83.6973959  49.2740352   7.2818206  83.4807666
  48.6143397   5.9320640  83.6674153  60.3329562   4.5396278  79.3857792
  59.8176185   5.3100883  79.6246179  60.0606870   3.8661415  80.0090853
  57.9176673  -0.6154021  84.4443030  57.0618269  -1.0047170  84.2648669
  58.3303624  -0.5362060  83.5842816  59.4475819  -3.0807677  88.8434590
  58.9440615  -3.1177542  88.0302395  59.7406426  -2.1714935  88.9031246
  55.6918705  -2.9968948  87.8500772  56.5571702  -3.1926139  87.4906661
  55.7596214  -3.2258596  88.7770128  65.3063836   7.2928633  81.3210965
  64.5293279   6.9539793  80.8766127  65.9855317   7.2981256  80.6465930
  60.1215865   2.4123371  81.2117573  59.8166000   2.7269520  82.0627716
  61.0746307   2.4904790  81.2544906  58.5662297   8.5713594  82.8610527
  58.0383658   7.8366353  82.5483764  58.0649799   9.3488270  82.6150495
  63.5455143   6.7662614  87.9777573  62.8878817   7.4561876  88.0657702
  64.3495542   7.1559046  88.3211559  53.2981024  -0.7666740  85.2217138
  53.8724776  -0.9891558  84.4890331  53.8852007  -0.6978045  85.9745740
  62.3560601   5.1206987  86.0281515  62.8692483   5.7536979  86.5303225
  63.0061825   4.5208183  85.6624875  53.6250611   1.2637721  79.2413024
  52.7887924   1.6012408  79.5622298  53.4855381   1.1286701  78.3040161
  55.6003692  -3.8925491  83.9492208  54.9468104  -4.2076474  83.3248823
  55.5584166  -4.5149750  84.6752031  56.7114897   6.3893804  75.8645500
  55.8041959   6.1583058  76.0636649  57.2085929   5.5931423  76.0519481
  58.8341432   2.5956443  88.2739855  57.9163994   2.8171390  88.1161543
  59.2501576   2.6702753  87.4151563  59.6176480   3.9947858  83.4042536
  60.3648299   4.5069256  83.0949658  59.8868070   3.6731911  84.2646929
  57.8903130   6.4906399  80.3869490  56.9814350   6.2065432  80.4841960
  57.9198214   6.9105478  79.5272797  63.1222398  10.1012989  84.1560658
  62.6684725   9.2603898  84.2125848  62.4916364  10.7374387  84.4935438
  62.0655317   1.0304975  85.3861325  61.3278074   0.5182361  85.7171568
  62.3182091   0.5905356  84.5744602  61.5655337  11.9389485  85.0910476
  61.8578311  12.4994542  84.3722841  62.0753958  12.2318046  85.8463635
  62.1666945  -6.1918773  85.9803094  62.4725821  -7.0521410  85.6929009
  62.8919549  -5.6001153  85.7802088  48.4591301   4.2111913  84.3684692
  48.2615700   3.6181274  83.6435759  47.9037965   3.9064123  85.0860631
  56.4388024   4.1035020  86.4879285  56.4936634   3.1508856  86.4121762
  55.6279226   4.2594459  86.9720584  57.5879218   8.0315143  77.7257569
  57.1498648   7.3151002  77.2663206  58.3289659   8.2591258  77.1642660
  54.3780384   2.7212079  84.2469664  53.5648250   3.0206250  84.6534856
  54.8739378   2.3267768  84.9644146  56.5288962  12.7169836  86.1803929
  56.4865141  12.9430683  85.2512461  57.4451661  12.4833211  86.3289730
  59.9754596   3.1853904  93.0784558  60.3303984   3.4125377  93.9379024
  60.6226727   3.5172281  92.4561813  65.7052333   6.3072340  83.7833887
  65.5670231   6.4973936  82.8555076  65.3488552   7.0691723  84.2401938
  53.8694459   0.2930435  89.8630899  54.5093838   0.1519194  89.1653862
  53.0371990   0.0064948  89.4869501  65.7321712   8.3748867  88.7945159
  66.1658219   8.2824156  89.6428213  66.4453293   8.3506367  88.1565175
  54.6454763   9.5932865  85.9765892  55.4395361   9.0983185  85.7748467
  53.9346455   9.0650728  85.6133597  59.4649607  11.9750961  90.3278259
  59.5186630  12.5441897  91.0955975  58.5964389  12.1452846  89.9632296
  50.9537526   3.7375947  82.0525644  50.0235114   3.6760403  82.2695606
  51.0494998   3.2151900  81.2562286  50.8723075   0.2630760  84.6403886
  51.1329893   1.1776093  84.5313046  51.6940248  -0.2044798  84.7900499
  52.3448001   1.6768517  91.8102710  53.0171054   1.4685879  91.1615359
  51.5177787   1.4790603  91.3707943  66.5937262   8.4172567  91.3278044
  66.7873152   9.3218378  91.5737319  66.4937880   7.9579986  92.1616629
  58.2473573  -1.6969542  93.8268371  57.6001488  -0.9979592  93.7332848
  59.0174588  -1.2633398  94.1944620  61.6552371   8.5679310  96.9018925
  61.5037877   8.3389862  95.9849008  61.6457050   9.5249912  96.9150270
  58.4237707   6.1411223  91.8865191  59.3529767   6.2922382  91.7134158
  58.0028737   6.2295244  91.0313838  57.2226039  10.1661887  89.6563729
  57.0837125   9.7980672  90.5289667  56.4340635  10.6809527  89.4847686
  57.8174191  15.2670984  80.9989265  57.9925947  14.7959027  81.8134888
  57.1306979  15.8936750  81.2270526  58.7731254   9.5443490  87.0452566
  58.4381087   9.5044260  87.9410216  58.2735200   8.8788206  86.5722977
  52.7475498   4.9511120  92.5705148  52.6095296   4.2191359  93.1716687
  53.6580421   4.8620020  92.2889335  61.7090446   6.8899524  77.3189626
  61.0919616   6.1646352  77.2222679  61.2406934   7.6508885  76.9756700
  55.3757799   4.6631079  92.0588827  56.0857417   4.0224272  92.0175446
  55.3327107   4.9143974  92.9815008  63.3644577  11.5998433  94.9795406
  63.3057124  10.9157653  94.3125990  63.7664096  12.3417423  94.5276032
  54.0886733   1.6496297  93.8784467  53.5524090   1.1987036  94.5306063
  53.5003441   1.7842206  93.1354931  52.3835276  18.4160347  87.7729125
  52.6231874  19.0478871  88.4508144  51.5404473  18.0648387  88.0594485
  53.4988992   1.1084949  76.4410930  52.6218458   0.9873749  76.0773177
  53.9746745   0.3171027  76.1889819  63.3661985   9.5638017  93.2109386
  62.4788763   9.2263938  93.3335785  63.9360536   8.8321048  93.4478152
  45.0191132   5.8962108  86.5352438  45.7062172   5.5823838  85.9473453
  44.8639260   6.8003473  86.2619689  49.8225854   0.7852305  90.9637461
  49.7384043   0.1777974  90.2287871  49.0008560   1.2761323  90.9646958
  56.8963138  14.2239469  90.1770629  56.8233309  15.0294440  90.6889934
  56.4540531  14.4231435  89.3518651  56.6852918  13.4611239  83.6873451
  55.9020440  14.0032919  83.7811675  57.3845663  13.9785219  84.0867692
  59.9949568  -0.7294132  86.3307656  60.4918267  -1.4824169  86.0108727
  59.2236549  -0.6929815  85.7650866  67.8479325   4.9746234  87.9725948
  67.8369201   5.8570949  87.6019881  66.9796705   4.6217785  87.7780485
  59.3561822  14.1226303  92.3328788  60.0689794  14.7573768  92.2604689
  58.8651850  14.2190169  91.5168790  61.0779348   8.0277556  83.9046080
  60.1435627   8.1479018  83.7350784  61.2556017   7.1250022  83.6406090
  56.5784537   1.4123251  86.0579341  56.2082324   0.8594292  86.7460246
  57.0743629   0.8081385  85.5054341  64.4651900   3.8694875  84.4396114
  64.9312352   4.7022867  84.3656416  64.9159400   3.4039857  85.1441372
  54.4073735  11.8720746  93.1534359  55.1083195  12.5057229  93.3063753
  53.9368850  12.2135478  92.3929998  62.5328131  10.2138696  81.4382266
  62.8087975  10.0995291  82.3476140  61.6632630   9.8156181  81.3994439
  62.4368563  -3.7624538  88.4787015  61.5231642  -3.5320311  88.6469222
  62.8661664  -3.6786094  89.3301048  62.2075021   4.4265354  90.9786909
  61.5546471   4.6741261  90.3239362  62.5855401   3.6129492  90.6449386
  59.1682195  14.4625047  85.0815079  59.3504589  13.6446703  85.5442832
  59.9915181  14.6792739  84.6439969  58.2562594   5.1685165  97.4652946
  57.5803231   5.0679294  98.1355321  59.0790228   5.0124379  97.9288943
  50.0041453  11.4057102  90.0865462  50.5894890  10.6600789  90.2193366
  49.8066292  11.7161058  90.9702125  52.8580108  14.4408349  85.1027904
  52.1890484  14.9254477  84.6191944  52.7192978  14.6877569  86.0171282
  44.5959108   3.9762702  88.8069905  44.6343207   3.4426292  89.6007023
  44.0899401   3.4497907  88.1880882  56.9985377  16.4752092  91.7010562
  57.5503685  16.6383714  92.4659647  57.3391570  17.0656530  91.0290587
  51.9749870  -1.1772758  92.3032447  52.0391197  -0.3157927  91.8909845
  51.9116990  -1.7898756  91.5704805  51.4502143   0.8950375  95.9505481
  52.0774182   0.5127452  96.5643006  50.5930062   0.6764577  96.3161174
  61.8496251  11.3013350  97.5559217  62.3936155  11.9143308  97.0614171
  61.2683096  11.8592928  98.0726230  48.2267685   2.7026804  81.8823836
  48.5221127   1.7937482  81.8290890  47.3255721   2.6814543  81.5604838
  60.1353764  14.4234068  88.6874244  60.0104904  13.6223808  88.1785190
  60.7932855  14.9180261  88.1988214  51.7561932   0.7782800  87.8651385
  51.0348518   1.3918768  87.7258858  52.5455188   1.3140565  87.7868031
  62.1988673  12.2243088  90.3153795  61.2519008  12.1048439  90.2432121
  62.5471446  11.3365586  90.3980056  54.5588246  -1.8862773  94.1392036
  55.0822648  -1.6400477  94.9018346  54.3400579  -1.0542738  93.7195174
  49.9555527   0.3840902  82.0063161  49.6268233  -0.4961720  81.8238267
  50.3094898   0.3288570  82.8939550  59.2035106  12.0195804  86.5158147
  59.0560068  11.0912512  86.6965717  60.0288599  12.0415895  86.0315222
  53.0697350   0.6713871  82.3738639  53.4093423   1.1999793  81.6517247
  53.5169471   1.0094277  83.1497205  62.8069228  12.8424363  87.6023020
  63.7315775  12.6367224  87.4647471  62.6384531  12.5940764  88.5112361
  55.7640791  -0.9449078  91.8241707  55.4237611  -1.7441265  92.2262387
  55.0579797  -0.6447367  91.2518540  56.4157263  -3.8599766  90.2769030
  57.2383332  -4.3339287  90.1547920  56.6595326  -3.0809282  90.7767716
  55.0565497  -0.8311507  80.5731932  55.7773860  -0.4530254  80.0695649
  54.4330801  -0.1122630  80.6766910  59.1996620  -0.1266358  81.5090264
  59.4160235   0.7558280  81.2079092  58.7190687  -0.5180145  80.7795906
  53.9395842   2.8319355  88.0861009  53.7940422   3.1459658  88.9785290
  53.4621045   3.4504255  87.5331907  55.7992224  -0.1778097  88.1341898
  55.7853793  -1.0737004  87.7974196  56.5164653  -0.1707433  88.7680184
  57.6518355   0.2559243  90.1795026  57.3936133   1.1776314  90.1779356
  57.1203396  -0.1410322  90.8695490  48.4141504   5.3724700  91.0248670
  47.8694972   6.1484507  91.1568944  49.2920854   5.7195504  90.8667791
  55.2029120  -1.2963717  83.4029468  55.3245032  -2.2247070  83.6020356
  54.9131163  -1.2825031  82.4907784  58.0720311  -3.6108806  86.5396188
  58.0942008  -3.5469473  85.5848168  58.4888370  -4.4504298  86.7336694
  68.4503935   6.1246453  84.5775411  68.8935081   5.3753779  84.1794534
  67.5730445   6.1156590  84.1949143  49.2007526   4.4994596  93.9178827
  48.4589262   4.6477231  94.5043457  48.8800270   4.7602861  93.0545576
  65.4831140  10.1276500  81.5869340  66.0082464  10.4663773  80.8618660
  65.3953492   9.1923516  81.4032475  57.1451188  14.0410574  93.7159217
  57.4538315  13.7959721  94.5881916  57.9426670  14.2457212  93.2278087
  57.1671800  16.1948484  85.9464593  56.7276791  15.7024862  86.6397450
  57.9179917  15.6521451  85.7056668  49.6464139  12.3860024  85.9489221
  50.4722159  12.0863796  85.5687865  49.2958191  11.6167647  86.3979010
  54.6145672  11.7386493  88.0186895  53.9925682  11.0757198  87.7189123
  55.2850539  11.7647625  87.3360543  47.8472744  10.3046351  86.9078155
  47.0104653   9.8768525  86.7262156  47.8196390  10.4978794  87.8448946
  54.6870200   0.2168281  97.6119401  54.7358355   1.0930404  97.2297170
  55.2292714  -0.3254326  97.0391044  65.1725046  10.7609404  96.8920538
  64.3820589  10.7433543  96.3525037  64.9358400  11.2997698  97.6469575
  65.2922921   7.6101870  94.2053266  65.3420926   7.4451878  95.1468789
  65.1836844   6.7429129  93.8151147  54.1759179  10.2890416  81.4945355
  54.3247300  10.9725880  80.8412028  54.9825623  10.2695506  82.0094811
  62.5826683   3.5932798  95.5212573  63.4836546   3.4539263  95.2296571
  62.6574658   3.7587253  96.4610751  56.9169488   0.9699653  94.3665760
  56.0472798   1.2633219  94.0948348  57.1528969   1.5540098  95.0873023
  66.7941118  10.0298812  94.4495288  66.5025926  10.3928792  95.2858749
  66.1813249   9.3165820  94.2708620  67.9936800   7.5951692  86.9697858
  68.8283691   8.0341496  87.1335419  68.1295929   7.1190345  86.1506104
  65.0428306   5.1531427  92.9175346  65.5182427   5.3459073  92.1094197
  64.1193871   5.2090612  92.6718730  51.9311812   6.3155594  82.5006424
  51.6857854   5.4117924  82.6986634  52.1007727   6.3172744  81.5585902
  59.6208522  -2.8120730  91.8831180  60.1390466  -2.0759703  91.5577668
  59.2663655  -2.5056737  92.7177939  51.2007460   2.0483951  79.9992586
  50.5076705   2.1228306  79.3432622  50.9559212   1.2844295  80.5214103
  59.8721116  -6.3920447  87.4032077  60.1522870  -7.0597258  88.0292503
  60.6571723  -6.1991352  86.8906740  57.6754585  12.7838547  78.9657103
  57.1028552  13.4028734  78.5127575  58.2487379  13.3337908  79.4997025
  63.7429975   2.0297187  91.1503652  64.6947398   2.1295284  91.1715876
  63.5733425   1.2375455  91.6601736  61.7644354  -0.8847230  91.3363053
  61.1694286  -0.6042217  90.6409541  61.4794051  -0.3953329  92.1079794
  63.5239861  12.3841567  77.0569633  63.4453493  12.0501431  77.9505391
  64.3449528  12.8763335  77.0561105  66.2218053   5.2503306  90.2645951
  66.1894373   4.3119307  90.4505635  66.8318676   5.3287343  89.5311776
  58.0601383   4.1199359  76.3073155  59.0060488   3.9905567  76.3761573
  57.6815628   3.3814021  76.7842583  66.3712541   2.0414350  90.3104234
  65.8551590   1.2572806  90.1234163  67.2552490   1.7133066  90.4750754
  64.0323268  -4.2144635  86.2700047  63.8348089  -4.5229547  87.1543379
  64.6422974  -3.4882996  86.3997977  72.0394602   6.3119313  89.4051988
  72.7697991   6.0504601  89.9659691  71.4301548   5.5748035  89.4454056
  70.1209900   4.4527176  90.0026439  69.3943063   4.3183141  89.3942931
  69.7057186   4.7604004  90.8083157  57.9440076   8.1717105  97.7673812
  58.8643085   8.3495704  97.9613859  57.9089659   7.2273151  97.6153512
  56.2444301   2.0449336  76.2428041  55.3375756   1.7482448  76.3190754
  56.5220282   1.7479154  75.3762327  47.1622241   3.3655699  86.6927087
  46.8425025   2.5121007  86.4001461  46.6155669   3.5804277  87.4485054
  50.9402148   6.0818140  90.4096593  51.1588158   7.0135248  90.4284627
  51.3527922   5.7226114  91.1951397  57.8606366  -3.4113775  82.3972282
  57.0507095  -3.7566690  82.7727528  58.5490783  -3.7206231  82.9859893
  59.7896915  -4.3335728  84.0196578  60.3427953  -3.9140274  84.6786602
  60.0267001  -5.2599980  84.0619534  55.8130014   1.6551346  99.7999342
  55.7126741   2.6045703  99.7311433  55.5951556   1.3269585  98.9275412
  55.0143085  -1.0963729  76.3840020  55.8762249  -0.7708831  76.6435837
  55.1993429  -1.8832233  75.8713086  47.0310501   6.9858611  88.6620209
  46.3373972   6.5712563  88.1490163  47.7783492   7.0279147  88.0653627
  63.1675722  -2.2235203  83.5275243  62.5874391  -1.5650399  83.1453295
  62.9011654  -3.0457858  83.1162660  61.6179288  -2.8230145  85.7296563
  62.1179066  -2.7113610  84.9210882  62.2614896  -3.1269092  86.3697372
  55.6761284   5.0848485  98.6164404  55.1928366   5.8848845  98.8228293
  55.7622223   5.0956430  97.6631848  48.9447243   6.9176864  86.5386223
  48.9217932   7.0164552  85.5868107  49.2547880   7.7642015  86.8603390
  51.6034621   8.9753019  90.6532838  52.5577875   8.9436962  90.5862769
  51.4047145   8.5143643  91.4683064  52.1934003   7.5454135  93.2203635
  53.0126892   8.0398214  93.2438473  52.4670811   6.6286104  93.1921203
  61.9500600  -0.0635112  82.5831591  61.0626455   0.2214538  82.3651786
  62.3654589  -0.2241349  81.7358868  65.3015136  -0.0388591  86.2985930
  66.0775526   0.4507861  86.5710547  64.5763270   0.3869463  86.7557800
  67.7387694   0.6739028  87.3559871  68.3332185   0.4334764  86.6453179
  67.8114278  -0.0453842  87.9833407  49.9584850  14.5172639  87.6703036
  49.8239318  13.7573040  87.1041034  49.5416912  15.2413539  87.2031825
  61.0943813   9.7009562  76.6779611  61.7979663   9.9059565  77.2937267
  60.3706462  10.2686324  76.9428695  61.9241623   5.4519424  82.7981881
  61.8676825   5.9087975  81.9589514  62.4769966   4.6910108  82.6204724
  65.7346429   1.2409156  83.6232001  65.4783364   0.8405791  84.4540208
  65.1099297   1.9552949  83.4982140  70.0458767   3.9805229  86.1303292
  69.4858325   4.0498418  86.9034854  69.4402271   3.8046213  85.4102788
  53.1153976  15.4141956  87.8821478  52.9986360  16.3587388  87.7800169
  52.2946422  15.1115517  88.2707278  63.0030511  10.1392092  78.7278071
  63.8376114   9.7073290  78.5455546  62.8414853   9.9674105  79.6554966
  62.6576403   6.6424205  80.0934410  62.6025207   6.4768476  79.1522854
  62.0322458   7.3500238  80.2496600  47.4468918   1.8792269  93.9195833
  48.0927781   1.3691223  94.4083058  47.2386069   2.6160951  94.4939258
  59.9722310   8.9473117  99.4187973  60.8413470   9.1213769  99.0574608
  59.4929061   9.7667534  99.2963702  55.9672528  -3.8567686  79.6719729
  55.9551198  -2.9125846  79.8288000  56.8595950  -4.0397541  79.3779190
  54.1408490  16.0670218  91.0977407  55.0435737  16.0993828  91.4143902
  53.9145860  15.1370669  91.1123743  55.8962092  14.8201204  87.7587485
  54.9457723  14.8203066  87.6451858  56.1994578  14.0733939  87.2423520
  59.7824648  -7.2624909  83.9265666  59.0157043  -7.8166423  84.0722348
  60.1935353  -7.1903041  84.7879817  51.7866409  -0.9740114  98.0170847
  52.6497870  -1.3303309  98.2274171  51.2131819  -1.3126219  98.7046251
  71.6314786  20.6561743  88.8233248  72.2693196  20.5368490  88.1196588
  71.5135629  21.6042587  88.8821200  68.4404492  20.6089171  88.7594772
  68.1023003  20.4930236  87.8715307  69.3094260  20.2080336  88.7395779
  68.9224275  21.7624023  94.7180978  68.9112916  21.3676821  93.8461482
  69.0844914  21.0290095  95.3114749  65.6431536  24.5461134  93.6660162
  65.3521402  25.4506765  93.5506828  66.2788520  24.5877662  94.3804232
  66.5687743  21.9237983  90.2561522  67.1651315  21.6994005  89.5418485
  66.6262714  21.1822728  90.8586969  71.1856054  18.3813197  85.8986456
  71.9719143  17.9632620  85.5476873  71.4494758  19.2859289  86.0668104
  71.3566131  23.8186047  80.5975113  70.7211964  23.8920673  81.3096017
  71.0263538  24.4079646  79.9194192  76.5864481  18.3188430  86.8019434
  77.3189653  17.7487647  87.0357264  75.8303837  17.9310030  87.2425940
  68.2040601  20.7415671  83.9982777  67.8398808  20.2146292  84.7095698
  69.0607717  20.3514140  83.8249262  74.1089902  12.0310004  91.2614043
  73.7773226  12.9005415  91.0375258  73.5135515  11.7146288  91.9408073
  67.8446088  15.7705571  78.9944125  68.0120490  16.6385807  79.3614596
  67.6543257  15.9332853  78.0705415  70.6021421  24.2322550  90.6609956
  70.3022144  25.1347589  90.5525763  70.2572481  23.9654733  91.5131109
  64.0533903  20.6836347  86.6946660  63.1284399  20.5512561  86.9024352
  64.3018316  21.4630566  87.1916603  74.0018565  16.7505090  88.3407393
  73.0935442  16.6820498  88.0466154  73.9506161  17.2277035  89.1689218
  67.8235309  18.2263228  79.9790792  67.7034934  18.6720279  80.8176272
  67.1287897  18.5748546  79.4204330  61.4142714  20.3269620  87.5290449
  61.5435095  20.5804099  88.4429861  60.7340165  20.9197328  87.2095104
  68.0759431  18.1694736  96.2842290  67.2992765  18.7288656  96.2745155
  68.7149994  18.6551519  96.8057160  75.8680211  14.9521528  90.1185267
  75.2254592  15.2454062  89.4725061  75.3635140  14.8374449  90.9238464
  73.5220375  18.6984702  80.8071126  74.4338231  18.9312088  80.6318824
  73.0130022  19.2821746  80.2446205  66.3305803  20.9780189  95.8460257
  67.0720487  21.5165233  95.5695081  65.6242788  21.6046478  96.0031809
  71.8061143  23.1209329  94.4432419  72.2144499  22.6791740  93.6987051
  71.0838404  22.5461957  94.6966612  68.1592213  18.0581936  91.8165976
  69.0053408  18.4821350  91.9600625  68.0990850  17.4015561  92.5104539
  76.0079189  24.6164958  85.5529071  75.3230227  24.9963859  85.0026105
  76.0923038  25.2260285  86.2861019  71.3091658  15.7186305  93.4747149
  71.0652590  16.4728365  92.9381425  71.5851589  16.0971652  94.3094396
  73.2630121  22.2624917  92.1524415  73.4747016  22.9056677  91.4758796
  73.2159869  21.4287234  91.6846345  70.8656350  14.8742738  89.0560987
  70.0040829  15.1723991  89.3477725  70.8918784  15.0913136  88.1242020
  67.6817919  23.4184928  85.4634793  68.1456265  23.6972631  84.6739415
  67.4174717  22.5168373  85.2807883  64.5742000  22.9656410  88.4014556
  65.1443357  23.3943678  87.7632040  65.1650112  22.6838994  89.0998742
  65.0667167  18.1319837  96.6475567  64.4365827  18.8136118  96.8810964
  64.9603255  18.0202919  95.7028706  60.3612139  17.7991633  87.5741491
  59.5711193  18.0549162  87.0981602  60.8523387  18.6139971  87.6793532
  68.1432552  24.6880916  92.4807483  68.2076985  25.1501323  93.3165655
  67.4343476  24.0578281  92.6089793  58.6449842  18.0522124  90.0056482
  58.8957881  18.9369134  90.2714058  59.1809391  17.8726725  89.2331574
  82.4681942  21.4835621  86.6731744  81.7145650  20.9143019  86.5175748
  82.6029483  21.4498285  87.6202378  64.3447909  12.4340603  99.0100818
  63.9514855  11.8806802  99.6848463  65.1614050  12.7451181  99.4007336
  67.2615870  13.8498482  96.6021075  68.0025584  14.4505635  96.5225537
  67.4933793  13.1076120  96.0439117  62.4057208  19.0354849  94.8799305
  62.2910724  18.1340107  95.1806403  61.5501726  19.2818546  94.5284121
  69.4849046  26.9772590  96.4786805  69.0412900  26.1908968  96.1607710
  70.1466260  27.1651740  95.8130696  64.2436167  28.5068391  91.0047484
  64.7943593  28.3785455  90.2324478  63.4047643  28.8063280  90.6542376
  71.5830284  27.2575390  94.5068206  71.5648760  28.0784271  94.0148476
  72.5050204  27.1329465  94.7318348  68.0403338  24.7719519  95.3491715
  68.5731675  24.0107807  95.1191023  67.5117420  24.4793171  96.0915869
  71.2073033   9.8779585  90.8785357  70.8637303  10.7681227  90.8024467
  71.5751996   9.6881243  90.0154942  71.1723316  19.8688196  79.3857792
  70.6569940  20.6392801  79.6246179  70.9000625  19.1953332  80.0090853
  68.7570427  14.7137897  84.4443030  67.9012024  14.3244747  84.2648669
  69.1697379  14.7929858  83.5842816  70.2869574  12.2484240  88.8434590
  69.7834369  12.2114375  88.0302395  70.5800181  13.1576983  88.9031246
  66.5312460  12.3322970  87.8500772  67.3965456  12.1365779  87.4906661
  66.5989969  12.1033322  88.7770128  76.1457590  22.6220551  81.3210965
  75.3687033  22.2831710  80.8766127  76.8249071  22.6273174  80.6465930
  70.9609619  17.7415288  81.2117573  70.6559755  18.0561437  82.0627716
  71.9140061  17.8196708  81.2544906  69.4056051  23.9005512  82.8610527
  68.8777413  23.1658271  82.5483764  68.9043554  24.6780188  82.6150495
  74.3848897  22.0954532  87.9777573  73.7272572  22.7853793  88.0657702
  75.1889296  22.4850964  88.3211559  64.1374779  14.5625178  85.2217138
  64.7118531  14.3400359  84.4890331  64.7245761  14.6313872  85.9745740
  73.1954356  20.4498905  86.0281515  73.7086238  21.0828897  86.5303225
  73.8455580  19.8500100  85.6624875  66.4397446  11.4366427  83.9492208
  65.7861859  11.1215444  83.3248823  66.3977921  10.8142167  84.6752031
  69.6735187  17.9248360  88.2739855  68.7557748  18.1463307  88.1161543
  70.0895330  17.9994671  87.4151563  70.4570235  19.3239776  83.4042536
  71.2042054  19.8361173  83.0949658  70.7261824  19.0023829  84.2646929
  68.7296885  21.8198317  80.3869490  67.8208104  21.5357350  80.4841960
  68.7591969  22.2397395  79.5272797  73.9616152  25.4304906  84.1560658
  73.5078479  24.5895816  84.2125848  73.3310119  26.0666305  84.4935438
  72.9049072  16.3596892  85.3861325  72.1671829  15.8474278  85.7171568
  73.1575845  15.9197274  84.5744602  73.0060699   9.1373144  85.9803094
  73.3119576   8.2770508  85.6929009  73.7313304   9.7290764  85.7802088
  67.2781779  19.4326937  86.4879285  67.3330389  18.4800774  86.4121762
  66.4672981  19.5886376  86.9720584  70.8148350  18.5145822  93.0784558
  71.1697738  18.7417295  93.9379024  71.4620482  18.8464198  92.4561813
  76.5446087  21.6364257  83.7833887  76.4063986  21.8265853  82.8555076
  76.1882306  22.3983640  84.2401938  64.7088213  15.6222353  89.8630899
  65.3487593  15.4811112  89.1653862  63.8765744  15.3356866  89.4869501
  76.5715467  23.7040784  88.7945159  77.0051974  23.6116074  89.6428213
  77.2847048  23.6798285  88.1565175  65.4848517  24.9224783  85.9765892
  66.2789116  24.4275103  85.7748467  64.7740210  24.3942646  85.6133597
  63.1841755  17.0060435  91.8102710  63.8564809  16.7977797  91.1615359
  62.3571542  16.8082521  91.3707943  77.4331017  23.7464485  91.3278044
  77.6266907  24.6510296  91.5737319  77.3331635  23.2871904  92.1616629
  69.0867327  13.6322376  93.8268371  68.4395242  14.3312325  93.7332848
  69.8568343  14.0658520  94.1944620  72.4946125  23.8971228  96.9018925
  72.3431632  23.6681780  95.9849008  72.4850805  24.8541829  96.9150270
  69.2631462  21.4703141  91.8865191  70.1923522  21.6214300  91.7134158
  68.8422492  21.5587161  91.0313838  68.0619793  25.4953805  89.6563729
  67.9230879  25.1272589  90.5289667  67.2734390  26.0101444  89.4847686
  69.6125009  24.8735408  87.0452566  69.2774841  24.8336178  87.9410216
  69.1128954  24.2080124  86.5722977  63.5869252  20.2803038  92.5705148
  63.4489050  19.5483277  93.1716687  64.4974176  20.1911938  92.2889335
  72.5484200  22.2191442  77.3189626  71.9313371  21.4938270  77.2222679
  72.0800689  22.9800802  76.9756700  66.2151553  19.9922997  92.0588827
  66.9251172  19.3516189  92.0175446  66.1720861  20.2435892  92.9815008
  74.2038332  26.9290350  94.9795406  74.1450878  26.2449570  94.3125990
  74.6057850  27.6709340  94.5276032  64.9280487  16.9788215  93.8784467
  64.3917844  16.5278953  94.5306063  64.3397196  17.1134124  93.1354931
  74.2055739  24.8929934  93.2109386  73.3182518  24.5555856  93.3335785
  74.7754290  24.1612966  93.4478152  60.6619608  16.1144223  90.9637461
  60.5777797  15.5069892  90.2287871  59.8402315  16.6053241  90.9646958
  70.8343322  14.5997786  86.3307656  71.3312022  13.8467748  86.0108727
  70.0630304  14.6362103  85.7650866  78.6873080  20.3038152  87.9725948
  78.6762956  21.1862867  87.6019881  77.8190459  19.9509702  87.7780485
  70.1955576  29.4518221  92.3328788  70.9083548  30.0865685  92.2604689
  69.7045605  29.5482087  91.5168790  71.9173103  23.3569473  83.9046080
  70.9829382  23.4770936  83.7350784  72.0949771  22.4541940  83.6406090
  67.4178291  16.7415169  86.0579341  67.0476079  16.1886210  86.7460246
  67.9137383  16.1373303  85.5054341  75.3045654  19.1986793  84.4396114
  75.7706106  20.0314784  84.3656416  75.7553155  18.7331774  85.1441372
  65.2467490  27.2012664  93.1534359  65.9476949  27.8349147  93.3063753
  64.7762605  27.5427396  92.3929998  73.3721885  25.5430614  81.4382266
  73.6481729  25.4287209  82.3476140  72.5026384  25.1448099  81.3994439
  73.2762317  11.5667380  88.4787015  72.3625397  11.7971606  88.6469222
  73.7055418  11.6505824  89.3301048  73.0468776  19.7557272  90.9786909
  72.3940226  20.0033179  90.3239362  73.4249155  18.9421410  90.6449386
  69.0956349  20.4977083  97.4652946  68.4196986  20.3971212  98.1355321
  69.9183982  20.3416296  97.9288943  55.4352862  19.3054619  88.8069905
  55.4736962  18.7718210  89.6007023  54.9293155  18.7789825  88.1880882
  62.8143625  14.1519160  92.3032447  62.8784951  15.0133991  91.8909845
  62.7510745  13.5393162  91.5704805  62.2895897  16.2242292  95.9505481
  62.9167936  15.8419370  96.5643006  61.4323816  16.0056494  96.3161174
  72.6890006  26.6305268  97.5559217  73.2329910  27.2435226  97.0614171
  72.1076851  27.1884846  98.0726230  62.5955687  16.1074718  87.8651385
  61.8742273  16.7210686  87.7258858  63.3848943  16.6432483  87.7868031
  65.3982000  13.4429145  94.1392036  65.9216402  13.6891441  94.9018346
  65.1794334  14.2749179  93.7195174  66.6034546  14.3842840  91.8241707
  66.2631366  13.5850653  92.2262387  65.8973552  14.6844551  91.2518540
  67.2551017  11.4692152  90.2769030  68.0777087  10.9952630  90.1547920
  67.4989081  12.2482636  90.7767716  70.0390375  15.2025560  81.5090264
  70.2553989  16.0850197  81.2079092  69.5584442  14.8111773  80.7795906
  64.7789596  18.1611273  88.0861009  64.6334177  18.4751576  88.9785290
  64.3014800  18.7796173  87.5331907  66.6385979  15.1513821  88.1341898
  66.6247548  14.2554914  87.7974196  67.3558407  15.1584485  88.7680184
  68.4912110  15.5851161  90.1795026  68.2329888  16.5068232  90.1779356
  67.9597150  15.1881596  90.8695490  73.4358298  28.6901948  82.9585111
  73.6095176  28.1248371  82.2058963  73.9287190  29.4902843  82.7764601
  59.2535258  20.7016617  91.0248670  58.7088726  21.4776425  91.1568944
  60.1314608  21.0487422  90.8667791  66.0422875  14.0328201  83.4029468
  66.1638786  13.1044847  83.6020356  65.7524917  14.0466887  82.4907784
  68.9114065  11.7183111  86.5396188  68.9335762  11.7822445  85.5848168
  69.3282124  10.8787620  86.7336694  79.2897690  21.4538371  84.5775411
  79.7328836  20.7045696  84.1794534  78.4124200  21.4448507  84.1949143
  74.4233471  28.0068713  80.0582009  75.1184376  28.6275405  80.2769324
  74.7656621  27.1564064  80.3334387  60.0401280  19.8286513  93.9178827
  59.2983016  19.9769149  94.5043457  59.7194024  20.0894779  93.0545576
  76.3224894  25.4568418  81.5869340  76.8476218  25.7955691  80.8618660
  76.2347247  24.5215433  81.4032475  67.9844943  29.3702492  93.7159217
  68.2932069  29.1251638  94.5881916  68.7820425  29.5749130  93.2278087
  65.5263954  15.5460198  97.6119401  65.5752110  16.4222321  97.2297170
  66.0686469  15.0037591  97.0391044  76.0118800  26.0901322  96.8920538
  75.2214344  26.0725461  96.3525037  75.7752155  26.6289615  97.6469575
  76.1316675  22.9393788  94.2053266  76.1814680  22.7743795  95.1468789
  76.0230599  22.0721047  93.8151147  73.4220438  18.9224716  95.5212573
  74.3230300  18.7831181  95.2296571  73.4968412  19.0879171  96.4610751
  67.7563243  16.2991571  94.3665760  66.8866552  16.5925137  94.0948348
  67.9922723  16.8832016  95.0873023  77.6334872  25.3590730  94.4495288
  77.3419680  25.7220710  95.2858749  77.0207003  24.6457738  94.2708620
  78.8330554  22.9243609  86.9697858  79.6677446  23.3633413  87.1335419
  78.9689683  22.4482263  86.1506104  75.8822060  20.4823344  92.9175346
  76.3576182  20.6750991  92.1094197  74.9587626  20.5382530  92.6718730
  70.4602277  12.5171188  91.8831180  70.9784221  13.2532215  91.5577668
  70.1057409  12.8235181  92.7177939  70.7114871   8.9371470  87.4032077
  70.9916625   8.2694659  88.0292503  71.4965478   9.1300566  86.8906740
  74.5823729  17.3589104  91.1503652  75.5341152  17.4587202  91.1715876
  74.4127180  16.5667373  91.6601736  72.6038109  14.4444687  91.3363053
  72.0088041  14.7249700  90.6409541  72.3187805  14.9338588  92.1079794
  71.7345599  28.3967614  80.0965685  72.6676272  28.3313176  80.2998561
  71.6468812  29.2323881  79.6380218  74.3633616  27.7133485  77.0569633
  74.2847247  27.3793348  77.9505391  75.1843283  28.2055253  77.0561105
  77.0611807  20.5795224  90.2645951  77.0288127  19.6411225  90.4505635
  77.6712431  20.6579261  89.5311776  77.2106296  17.3706267  90.3104234
  76.6945344  16.5864724  90.1234163  78.0946244  17.0424984  90.4750754
  74.8717022  11.1147283  86.2700047  74.6741844  10.8062371  87.1543379
  75.4816728  11.8408922  86.3997977  82.8788357  21.6411231  89.4051988
  83.6091745  21.3796519  89.9659691  82.2695302  20.9039953  89.4454056
  80.9603654  19.7819093  90.0026439  80.2336818  19.6475058  89.3942931
  80.5450941  20.0895922  90.8083157  68.7833830  23.5009023  97.7673812
  69.7036840  23.6787622  97.9613859  68.7483413  22.5565068  97.6153512
  67.0838055  17.3741253  76.2428041  66.1769510  17.0774366  76.3190754
  67.3614036  17.0771071  75.3762327  58.0015995  18.6947617  86.6927087
  57.6818780  17.8412925  86.4001461  57.4549424  18.9096195  87.4485054
  61.7795903  21.4110058  90.4096593  61.9981913  22.3427166  90.4284627
  62.1921677  21.0518032  91.1951397  68.7000121  11.9178143  82.3972282
  67.8900849  11.5725228  82.7727528  69.3884538  11.6085687  82.9859893
  70.6290669  10.9956190  84.0196578  71.1821708  11.4151643  84.6786602
  70.8660755  10.0691938  84.0619534  66.6523768  16.9843263  99.7999342
  66.5520495  17.9337620  99.7311433  66.4345310  16.6561502  98.9275412
  65.8536840  14.2328189  76.3840020  66.7156004  14.5583087  76.6435837
  66.0387184  13.4459684  75.8713086  74.0069476  13.1056715  83.5275243
  73.4268145  13.7641519  83.1453295  73.7405409  12.2834060  83.1162660
  72.4573043  12.5061773  85.7296563  72.9572821  12.6178307  84.9210882
  73.1008650  12.2022826  86.3697372  66.5155038  20.4140402  98.6164404
  66.0322120  21.2140762  98.8228293  66.6015977  20.4248347  97.6631848
  62.4428376  24.3044937  90.6532838  63.3971629  24.2728879  90.5862769
  62.2440899  23.8435561  91.4683064  63.0327758  22.8746053  93.2203635
  63.8520647  23.3690132  93.2438473  63.3064566  21.9578021  93.1921203
  72.7894354  15.2656805  82.5831591  71.9020209  15.5506456  82.3651786
  73.2048343  15.1050569  81.7358868  76.1408890  15.2903326  86.2985930
  76.9169280  15.7799779  86.5710547  75.4157024  15.7161381  86.7557800
  78.5781449  16.0030946  87.3559871  79.1725940  15.7626682  86.6453179
  78.6508033  15.2838076  87.9833407  72.7635378  20.7811341  82.7981881
  72.7070579  21.2379893  81.9589514  73.3163720  20.0202026  82.6204724
  76.5740184  16.5701073  83.6232001  76.3177118  16.1697709  84.4540208
  75.9493052  17.2844867  83.4982140  80.8852522  19.3097146  86.1303292
  80.3252080  19.3790336  86.9034854  80.2796025  19.1338131  85.4102788
  73.8424265  25.4684009  78.7278071  74.6769869  25.0365208  78.5455546
  73.6808608  25.2966023  79.6554966  73.4970157  21.9716123  80.0934410
  73.4418961  21.8060394  79.1522854  72.8716212  22.6792155  80.2496600
  58.2862672  17.2084187  93.9195833  58.9321536  16.6983141  94.4083058
  58.0779823  17.9452869  94.4939258  70.8116064  24.2765034  99.4187973
  71.6807224  24.4505687  99.0574608  70.3322816  25.0959451  99.2963702
  66.8066283  11.4724232  79.6719729  66.7944952  12.4166072  79.8288000
  67.6989705  11.2894377  79.3779190  70.6218402   8.0667008  83.9265666
  69.8550798   7.5125495  84.0722348  71.0329107   8.1388877  84.7879817
  62.6260163  14.3551804  98.0170847  63.4891625  13.9988609  98.2274171
  62.0525574  14.0165699  98.7046251  76.9806526  34.7069336  78.0911713
  77.2332046  34.1850857  77.3295176  76.0431085  34.5435481  78.1938396
  82.0249809  33.7105114  85.8986456  82.8112898  33.2924537  85.5476873
  82.2888513  34.6151206  86.0668104  87.4258236  33.6480347  86.8019434
  88.1583408  33.0779564  87.0357264  86.6697591  33.2601948  87.2425940
  76.7002815  36.6097442  80.2936088  76.5839073  35.9342345  80.9617172
  76.8105074  36.1229816  79.4768241  84.9483656  27.3601922  91.2614043
  84.6166981  28.2297333  91.0375258  84.3529269  27.0438206  91.9408073
  78.6839842  31.0997489  78.9944125  78.8514245  31.9677725  79.3614596
  78.4937012  31.2624770  78.0705415  84.8412319  32.0797008  88.3407393
  83.9329197  32.0112416  88.0466154  84.7899915  32.5568953  89.1689218
  78.6629063  33.5555146  79.9790792  78.5428689  34.0012197  80.8176272
  77.9681652  33.9040464  79.4204330  86.7073966  30.2813446  90.1185267
  86.0648346  30.5745979  89.4725061  86.2028894  30.1666366  90.9238464
  84.3614129  34.0276619  80.8071126  85.2731986  34.2604006  80.6318824
  83.8523777  34.6113664  80.2446205  82.1485413  31.0478222  93.4747149
  81.9046344  31.8020283  92.9381425  82.4245343  31.4263570  94.3094396
  81.7050104  30.2034655  89.0560987  80.8434583  30.5015909  89.3477725
  81.7312539  30.4205054  88.1242020  93.3075696  36.8127539  86.6731744
  92.5539405  36.2434937  86.5175748  93.4423237  36.7790203  87.6202378
  75.1841664  27.7632521  99.0100818  74.7908610  27.2098719  99.6848463
  76.0007804  28.0743099  99.4007336  82.0466788  25.2071503  90.8785357
  81.7031057  26.0973144  90.8024467  82.4145751  25.0173160  90.0154942
  82.0117071  35.1980114  79.3857792  81.4963694  35.9684718  79.6246179
  81.7394379  34.5245250  80.0090853  79.5964182  30.0429815  84.4443030
  78.7405778  29.6536665  84.2648669  80.0091133  30.1221775  83.5842816
  81.1263328  27.5776158  88.8434590  80.6228124  27.5406293  88.0302395
  81.4193935  28.4868901  88.9031246  77.3706214  27.6614888  87.8500772
  78.2359211  27.4657696  87.4906661  77.4383723  27.4325239  88.7770128
  86.9851345  37.9512468  81.3210965  86.2080788  37.6123628  80.8766127
  87.6642826  37.9565092  80.6465930  81.8003374  33.0707206  81.2117573
  81.4953509  33.3853355  82.0627716  82.7533816  33.1488626  81.2544906
  85.2242652  37.4246450  87.9777573  84.5666326  38.1145711  88.0657702
  86.0283051  37.8142882  88.3211559  84.0348110  35.7790822  86.0281515
  84.5479992  36.4120814  86.5303225  84.6849334  35.1792018  85.6624875
  75.3038120  31.9221557  79.2413024  74.4675433  32.2596243  79.5622298
  75.1642890  31.7870536  78.3040161  77.2791201  26.7658344  83.9492208
  76.6255613  26.4507362  83.3248823  77.2371675  26.1434085  84.6752031
  78.3902406  37.0477640  75.8645500  77.4829468  36.8166893  76.0636649
  78.8873438  36.2515259  76.0519481  81.2963989  34.6531694  83.4042536
  82.0435808  35.1653091  83.0949658  81.5655579  34.3315746  84.2646929
  84.8009907  40.7596824  84.1560658  84.3472234  39.9187734  84.2125848
  84.1703873  41.3958222  84.4935438  83.7442826  31.6888810  85.3861325
  83.0065583  31.1766196  85.7171568  83.9969600  31.2489192  84.5744602
  83.8454454  24.4665062  85.9803094  84.1513330  23.6062425  85.6929009
  84.5707058  25.0582682  85.7802088  79.2666727  38.6898978  77.7257569
  78.8286157  37.9734837  77.2663206  80.0077168  38.9175093  77.1642660
  87.3839842  36.9656175  83.7833887  87.2457740  37.1557771  82.8555076
  87.0276061  37.7275558  84.2401938  87.4109221  39.0332702  88.7945159
  87.8445728  38.9407991  89.6428213  88.1240802  39.0090203  88.1565175
  88.2724771  39.0756403  91.3278044  88.4660661  39.9802213  91.5737319
  88.1725389  38.6163822  92.1616629  83.3339880  39.2263145  96.9018925
  83.1825386  38.9973697  95.9849008  83.3244559  40.1833747  96.9150270
  83.3877955  37.5483360  77.3189626  82.7707125  36.8230188  77.2222679
  82.9194443  38.3092720  76.9756700  85.0432086  42.2582268  94.9795406
  84.9844632  41.5741488  94.3125990  85.4451605  43.0001258  94.5276032
  75.1776501  31.7668784  76.4410930  74.3005967  31.6457585  76.0773177
  75.6534254  30.9754862  76.1889819  85.0449494  40.2221852  93.2109386
  84.1576272  39.8847774  93.3335785  85.6148045  39.4904883  93.4478152
  81.6737077  29.9289704  86.3307656  82.1705776  29.1759666  86.0108727
  80.9024058  29.9654020  85.7650866  89.5266834  35.6330069  87.9725948
  89.5156710  36.5154785  87.6019881  88.6584214  35.2801620  87.7780485
  78.2572045  32.0707087  86.0579341  77.8869833  31.5178127  86.7460246
  78.7531138  31.4665220  85.5054341  86.1439409  34.5278710  84.4396114
  86.6099861  35.3606702  84.3656416  86.5946909  34.0623692  85.1441372
  84.1156072  26.8959297  88.4787015  83.2019151  27.1263524  88.6469222
  84.5449173  26.9797741  89.3301048  79.9350103  35.8269000  97.4652946
  79.2590740  35.7263130  98.1355321  80.7577737  35.6708214  97.9288943
  83.5283760  41.9597185  97.5559217  84.0723664  42.5727144  97.0614171
  82.9470605  42.5176764  98.0726230  78.0944772  26.7984070  90.2769030
  78.9170841  26.3244548  90.1547920  78.3382835  27.5774554  90.7767716
  76.7353006  29.8272328  80.5731932  77.4561369  30.2053581  80.0695649
  76.1118310  30.5461205  80.6766910  80.8784129  30.5317477  81.5090264
  81.0947744  31.4142115  81.2079092  80.3978196  30.1403691  80.7795906
  76.8816629  29.3620119  83.4029468  77.0032541  28.4336765  83.6020356
  76.5918672  29.3758805  82.4907784  79.7507820  27.0475029  86.5396188
  79.7729517  27.1114362  85.5848168  80.1675879  26.2079538  86.7336694
  90.1291444  36.7830289  84.5775411  90.5722590  36.0337614  84.1794534
  89.2517954  36.7740425  84.1949143  86.8512555  41.4193239  96.8920538
  86.0608098  41.4017378  96.3525037  86.6145909  41.9581533  97.6469575
  86.9710430  38.2685706  94.2053266  87.0208435  38.1035713  95.1468789
  86.8624353  37.4012965  93.8151147  84.2614192  34.2516634  95.5212573
  85.1624055  34.1123099  95.2296571  84.3362167  34.4171089  96.4610751
  88.4728626  40.6882647  94.4495288  88.1813435  41.0512628  95.2858749
  87.8600758  39.9749656  94.2708620  89.6724309  38.2535527  86.9697858
  90.5071200  38.6925331  87.1335419  89.8083438  37.7774180  86.1506104
  86.7215815  35.8115262  92.9175346  87.1969936  36.0042908  92.1094197
  85.7981380  35.8674448  92.6718730  81.2996031  27.8463105  91.8831180
  81.8177975  28.5824132  91.5577668  80.9451164  28.1527099  92.7177939
  81.5508625  24.2663388  87.4032077  81.8310379  23.5986577  88.0292503
  82.3359232  24.4592484  86.8906740  85.4217484  32.6881022  91.1503652
  86.3734907  32.7879120  91.1715876  85.2520934  31.8959291  91.6601736
  83.4431863  29.7736605  91.3363053  82.8481795  30.0541618  90.6409541
  83.1581560  30.2630506  92.1079794  87.9005562  35.9087142  90.2645951
  87.8681882  34.9703142  90.4505635  88.5106185  35.9871178  89.5311776
  79.7388892  34.7783195  76.3073155  80.6847997  34.6489403  76.3761573
  79.3603137  34.0397857  76.7842583  88.0500050  32.6998185  90.3104234
  87.5339099  31.9156642  90.1234163  88.9339999  32.3716902  90.4750754
  85.7110777  26.4439201  86.2700047  85.5135598  26.1354289  87.1543379
  86.3210482  27.1700840  86.3997977  93.7182111  36.9703148  89.4051988
  94.4485500  36.7088437  89.9659691  93.1089057  36.2331870  89.4454056
  91.7997408  35.1111011  90.0026439  91.0730572  34.9766976  89.3942931
  91.3844695  35.4187840  90.8083157  79.6227585  38.8300941  97.7673812
  80.5430594  39.0079540  97.9613859  79.5877168  37.8856986  97.6153512
  77.9231810  32.7033171  76.2428041  77.0163265  32.4066284  76.3190754
  78.2007791  32.4062989  75.3762327  79.5393875  27.2470061  82.3972282
  78.7294604  26.9017146  82.7727528  80.2278292  26.9377604  82.9859893
  81.4684424  26.3248108  84.0196578  82.0215462  26.7443561  84.6786602
  81.7054510  25.3983856  84.0619534  77.4917523  32.3135181  99.7999342
  77.3914250  33.2629538  99.7311433  77.2739065  31.9853420  98.9275412
  76.6930594  29.5620106  76.3840020  77.5549758  29.8875005  76.6435837
  76.8780938  28.7751602  75.8713086  84.8463231  28.4348633  83.5275243
  84.2661900  29.0933437  83.1453295  84.5799163  27.6125977  83.1162660
  83.2966797  27.8353690  85.7296563  83.7966575  27.9470225  84.9210882
  83.9402405  27.5314743  86.3697372  77.3548793  35.7432320  98.6164404
  76.8715875  36.5432680  98.8228293  77.4409732  35.7540265  97.6631848
  83.6288109  30.5948723  82.5831591  82.7413964  30.8798374  82.3651786
  84.0442098  30.4342486  81.7358868  86.9802645  30.6195244  86.2985930
  87.7563035  31.1091697  86.5710547  86.2550779  31.0453298  86.7557800
  89.4175203  31.3322863  87.3559871  90.0119694  31.0918599  86.6453179
  89.4901787  30.6129994  87.9833407  82.7731322  40.3593398  76.6779611
  83.4767172  40.5643400  77.2937267  82.0493971  40.9270160  76.9428695
  83.6029132  36.1103259  82.7981881  83.5464334  36.5671810  81.9589514
  84.1557475  35.3493944  82.6204724  87.4133938  31.8992991  83.6232001
  87.1570873  31.4989627  84.4540208  86.7886806  32.6136785  83.4982140
  91.7246276  34.6389064  86.1303292  91.1645834  34.7082253  86.9034854
  91.1189780  34.4630049  85.4102788  84.3363912  37.3008040  80.0934410
  84.2812715  37.1352312  79.1522854  83.7109967  38.0084073  80.2496600
  81.6509819  39.6056952  99.4187973  82.5200979  39.7797604  99.0574608
  81.1716570  40.4251369  99.2963702  77.6460037  26.8016149  79.6719729
  77.6338707  27.7457989  79.8288000  78.5383459  26.6186295  79.3779190
  81.4612157  23.3958926  83.9265666  80.6944552  22.8417413  84.0722348
  81.8722862  23.4680795  84.7879817  73.4653918  29.6843722  98.0170847
  74.3285379  29.3280527  98.2274171  72.8919328  29.3457617  98.7046251
  93.3102295  51.3145578  88.8233248  93.9480705  51.1952325  88.1196588
  93.1923137  52.2626422  88.8821200  90.6011784  52.4207858  94.7180978
  90.5900425  52.0260656  93.8461482  90.7632423  51.6873931  95.3114749
  87.3219045  55.2044970  93.6660162  87.0308911  56.1090601  93.5506828
  87.9576029  55.2461497  94.3804232  88.2475252  52.5821818  90.2561522
  88.8438824  52.3577841  89.5418485  88.3050223  51.8406564  90.8586969
  92.8643563  49.0397032  85.8986456  93.6506652  48.6216455  85.5476873
  93.1282267  49.9443124  86.0668104  93.0353640  54.4769882  80.5975113
  92.3999473  54.5504509  81.3096017  92.7051047  55.0663481  79.9194192
  98.2651990  48.9772265  86.8019434  98.9977162  48.4071482  87.0357264
  97.5091346  48.5893866  87.2425940  87.5396569  51.9389360  80.2936088
  87.4232827  51.2634263  80.9617172  87.6498829  51.4521733  79.4768241
  95.7877411  42.6893839  91.2614043  95.4560735  43.5589250  91.0375258
  95.1923024  42.3730123  91.9408073  92.2808930  54.8906385  90.6609956
  91.9809653  55.7931424  90.5525763  91.9359990  54.6238568  91.5131109
  95.6806074  47.4088925  88.3407393  94.7722951  47.3404334  88.0466154
  95.6293670  47.8860870  89.1689218  89.5022818  48.8847064  79.9790792
  89.3822443  49.3304115  80.8176272  88.8075406  49.2332381  79.4204330
  89.7546940  48.8278571  96.2842290  88.9780274  49.3872491  96.2745155
  90.3937503  49.3135354  96.8057160  97.5467720  45.6105364  90.1185267
  96.9042101  45.9037897  89.4725061  97.0422649  45.4958284  90.9238464
  95.2007884  49.3568537  80.8071126  96.1125740  49.5895924  80.6318824
  94.6917531  49.9405581  80.2446205  88.0093312  51.6364024  95.8460257
  88.7507996  52.1749068  95.5695081  87.3030297  52.2630313  96.0031809
  93.4848652  53.7793165  94.4432419  93.8932008  53.3375575  93.6987051
  92.7625913  53.2045792  94.6966612  89.8379722  48.7165772  91.8165976
  90.6840917  49.1405185  91.9600625  89.7778359  48.0599396  92.5104539
  93.8077466  54.3394355  88.1984708  93.1786329  54.5040070  87.4960775
  93.4203128  54.7535965  88.9695672  97.6866698  55.2748793  85.5529071
  97.0017736  55.6547695  85.0026105  97.7710547  55.8844120  86.2861019
  92.9879167  46.3770140  93.4747149  92.7440099  47.1312200  92.9381425
  93.2639098  46.7555488  94.3094396  94.9417630  52.9208752  92.1524415
  95.1534525  53.5640512  91.4758796  94.8947378  52.0871069  91.6846345
  92.5443859  45.5326573  89.0560987  91.6828338  45.8307827  89.3477725
  92.5706293  45.7496972  88.1242020  86.7454676  48.7903673  96.6475567
  86.1153336  49.4719953  96.8810964  86.6390764  48.6786754  95.7028706
  96.0563458  55.7980708  90.3246772  96.8780901  55.3960895  90.0429454
  96.0525861  55.6948942  91.2762888  89.8220061  55.3464751  92.4807483
  89.8864494  55.8085158  93.3165655  89.1130985  54.7162116  92.6089793
 104.1469451  52.1419456  86.6731744 103.3933159  51.5726854  86.5175748
 104.2816992  52.1082121  87.6202378  86.0235418  43.0924438  99.0100818
  85.6302364  42.5390637  99.6848463  86.8401559  43.4035017  99.4007336
  88.9403379  44.5082317  96.6021075  89.6813093  45.1089471  96.5225537
  89.1721302  43.7659955  96.0439117  84.0844717  49.6938685  94.8799305
  83.9698233  48.7923942  95.1806403  83.2289235  49.9402381  94.5284121
  91.1636555  57.6356425  96.4786805  90.7200409  56.8492804  96.1607710
  91.8253769  57.8235576  95.8130696  93.2617793  57.9159225  94.5068206
  93.2436269  58.7368106  94.0148476  94.1837713  57.7913300  94.7318348
  89.7190847  55.4303354  95.3491715  90.2519184  54.6691643  95.1191023
  89.1904929  55.1377006  96.0915869  92.8860542  40.5363420  90.8785357
  92.5424812  41.4265062  90.8024467  93.2539505  40.3465078  90.0154942
  92.8510825  50.5272031  79.3857792  92.3357449  51.2976636  79.6246179
  92.5788134  49.8537168  80.0090853  90.4357936  45.3721732  84.4443030
  89.5799532  44.9828583  84.2648669  90.8484888  45.4513693  83.5842816
  91.9657083  42.9068076  88.8434590  91.4621878  42.8698211  88.0302395
  92.2587690  43.8160818  88.9031246  88.2099969  42.9906805  87.8500772
  89.0752965  42.7949614  87.4906661  88.2777478  42.7617157  88.7770128
  97.8245099  53.2804386  81.3210965  97.0474542  52.9415546  80.8766127
  98.5036580  53.2857009  80.6465930  92.6397128  48.3999124  81.2117573
  92.3347264  48.7145273  82.0627716  93.5927570  48.4780543  81.2544906
  96.0636406  52.7538367  87.9777573  95.4060081  53.4437629  88.0657702
  96.8676805  53.1434799  88.3211559  94.8741865  51.1082740  86.0281515
  95.3873747  51.7412732  86.5303225  95.5243089  50.5083936  85.6624875
  88.1184955  42.0950262  83.9492208  87.4649368  41.7799279  83.3248823
  88.0765430  41.4726003  84.6752031  92.1364239  61.0867064  78.7842186
  91.4625938  61.3898761  79.3927144  92.5230061  61.8896145  78.4347643
  91.3522696  48.5832196  88.2739855  90.4345257  48.8047143  88.1161543
  91.7682839  48.6578506  87.4151563  92.1357744  49.9823611  83.4042536
  92.8829563  50.4945009  83.0949658  92.4049333  49.6607664  84.2646929
  90.4084394  52.4782152  80.3869490  89.4995613  52.1941185  80.4841960
  90.4379478  52.8981231  79.5272797  95.6403661  56.0888742  84.1560658
  95.1865988  55.2479651  84.2125848  95.0097628  56.7250140  84.4935438
  94.5836581  47.0180728  85.3861325  93.8459338  46.5058114  85.7171568
  94.8363354  46.5781109  84.5744602  94.6848208  39.7956980  85.9803094
  94.9907085  38.9354343  85.6929009  95.4100813  40.3874600  85.7802088
  92.4935859  49.1729657  93.0784558  92.8485247  49.4001130  93.9379024
  93.1407991  49.5048034  92.4561813  98.2233596  52.2948093  83.7833887
  98.0851495  52.4849689  82.8555076  97.8669815  53.0567476  84.2401938
  98.2502976  54.3624620  88.7945159  98.6839483  54.2699909  89.6428213
  98.9634557  54.3382120  88.1565175  91.9830871  57.9626714  90.3278259
  92.0367893  58.5317650  91.0955975  91.1145652  58.1328599  89.9632296
  99.1118526  54.4048320  91.3278044  99.3054416  55.3094131  91.5737319
  99.0119144  53.9455739  92.1616629  90.7654836  44.2906211  93.8268371
  90.1182751  44.9896161  93.7332848  91.5355852  44.7242355  94.1944620
  94.1733634  54.5555063  96.9018925  94.0219141  54.3265615  95.9849008
  94.1638314  55.5125665  96.9150270  90.9418971  52.1286976  91.8865191
  91.8711031  52.2798136  91.7134158  90.5210001  52.2170997  91.0313838
  89.7407302  56.1537640  89.6563729  89.6018388  55.7856425  90.5289667
  88.9521899  56.6685280  89.4847686  91.2912518  55.5319243  87.0452566
  90.9562350  55.4920013  87.9410216  90.7916463  54.8663959  86.5722977
  85.2656761  50.9386873  92.5705148  85.1276559  50.2067112  93.1716687
  86.1761685  50.8495773  92.2889335  94.2271709  52.8775277  77.3189626
  93.6100880  52.1522106  77.2222679  93.7588198  53.6384638  76.9756700
  87.8939062  50.6506832  92.0588827  88.6038681  50.0100025  92.0175446
  87.8508370  50.9019727  92.9815008  95.8825841  57.5874186  94.9795406
  95.8238387  56.9033406  94.3125990  96.2845359  58.3293176  94.5276032
  86.6067996  47.6372050  93.8784467  86.0705353  47.1862789  94.5306063
  86.0184705  47.7717959  93.1354931  95.8843248  55.5513770  93.2109386
  94.9970027  55.2139691  93.3335785  96.4541799  54.8196801  93.4478152
  89.4144401  60.2115222  90.1770629  89.3414573  61.0170193  90.6889934
  88.9721795  60.4107188  89.3518651  92.5130831  45.2581621  86.3307656
  93.0099531  44.5051584  86.0108727  91.7417813  45.2945938  85.7650866
 100.3660589  50.9621987  87.9725948 100.3550465  51.8446702  87.6019881
  99.4977968  50.6093538  87.7780485  91.8743085  60.1102056  92.3328788
  92.5871057  60.7449521  92.2604689  91.3833114  60.2065922  91.5168790
  93.5960612  54.0153309  83.9046080  92.6616891  54.1354771  83.7350784
  93.7737280  53.1125775  83.6406090  89.0965800  47.3999004  86.0579341
  88.7263587  46.8470045  86.7460246  89.5924892  46.7957138  85.5054341
  96.9833163  49.8570628  84.4396114  97.4493615  50.6898620  84.3656416
  97.4340664  49.3915610  85.1441372  86.9254999  57.8596499  93.1534359
  87.6264458  58.4932982  93.3063753  86.4550114  58.2011231  92.3929998
  95.0509394  56.2014449  81.4382266  95.3269238  56.0871044  82.3476140
  94.1813893  55.8031934  81.3994439  94.9549826  42.2251215  88.4787015
  94.0412906  42.4555442  88.6469222  95.3842927  42.3089659  89.3301048
  94.7256285  50.4141107  90.9786909  94.0727735  50.6617014  90.3239362
  95.1036664  49.6005245  90.6449386  90.7743858  51.1560918  97.4652946
  90.0984495  51.0555047  98.1355321  91.5971491  51.0000132  97.9288943
  89.5166640  62.4627845  91.7010562  90.0684948  62.6259467  92.4659647
  89.8572834  63.0532283  91.0290587  83.9683406  46.8826128  95.9505481
  84.5955445  46.5003205  96.5643006  83.1111325  46.6640330  96.3161174
  94.3677515  57.2889103  97.5559217  94.9117419  57.9019061  97.0614171
  93.7864360  57.8468681  98.0726230  94.7169936  58.2118841  90.3153795
  93.7700272  58.0924192  90.2432121  95.0652709  57.3241339  90.3980056
  87.0769509  44.1012980  94.1392036  87.6003911  44.3475277  94.9018346
  86.8581843  44.9333015  93.7195174  95.3250491  58.8300116  87.6023020
  96.2497039  58.6242977  87.4647471  95.1565795  58.5816517  88.5112361
  88.2822054  45.0426675  91.8241707  87.9418875  44.2434488  92.2262387
  87.5761061  45.3428386  91.2518540  88.9338526  42.1275987  90.2769030
  89.7564596  41.6536466  90.1547920  89.1776590  42.9066471  90.7767716
  91.7177884  45.8609395  81.5090264  91.9341498  46.7434033  81.2079092
  91.2371951  45.4695608  80.7795906  88.3173488  45.8097656  88.1341898
  88.3035057  44.9138749  87.7974196  89.0345916  45.8168320  88.7680184
  90.1699619  46.2434996  90.1795026  89.9117396  47.1652067  90.1779356
  89.6384659  45.8465431  90.8695490  95.1145807  59.3485783  82.9585111
  95.2882685  58.7832206  82.2058963  95.6074699  60.1486678  82.7764601
  87.7210384  44.6912036  83.4029468  87.8426295  43.7628683  83.6020356
  87.4312426  44.7050722  82.4907784  90.5901574  42.3766947  86.5396188
  90.6123271  42.4406280  85.5848168  91.0069633  41.5371455  86.7336694
 100.9685199  52.1122206  84.5775411 101.4116345  51.3629532  84.1794534
 100.0911709  52.1032343  84.1949143  96.1020980  58.6652548  80.0582009
  96.7971885  59.2859241  80.2769324  96.4444130  57.8147899  80.3334387
  98.0012403  56.1152253  81.5869340  98.5263727  56.4539526  80.8618660
  97.9134756  55.1799269  81.4032475  89.6632452  60.0286327  93.7159217
  89.9719578  59.7835474  94.5881916  90.4607934  60.2332966  93.2278087
  87.2051463  46.2044034  97.6119401  87.2539619  47.0806157  97.2297170
  87.7473978  45.6621427  97.0391044  97.6906309  56.7485157  96.8920538
  96.9001853  56.7309296  96.3525037  97.4539664  57.2873451  97.6469575
  97.8104184  53.5977623  94.2053266  97.8602189  53.4327631  95.1468789
  97.7018107  52.7304882  93.8151147  95.1007947  49.5808551  95.5212573
  96.0017809  49.4415016  95.2296571  95.1755921  49.7463006  96.4610751
  89.4350752  46.9575406  94.3665760  88.5654061  47.2508972  94.0948348
  89.6710232  47.5415851  95.0873023  99.3122381  56.0174565  94.4495288
  99.0207189  56.3804545  95.2858749  98.6994512  55.3041573  94.2708620
 100.5118063  53.5827445  86.9697858 101.3464955  54.0217249  87.1335419
 100.6477192  53.1066098  86.1506104  97.5609569  51.1407180  92.9175346
  98.0363691  51.3334826  92.1094197  96.6375135  51.1966365  92.6718730
  92.1389786  43.1755023  91.8831180  92.6571730  43.9116050  91.5577668
  91.7844918  43.4819016  92.7177939  92.3902380  39.5955306  87.4032077
  92.6704134  38.9278495  88.0292503  93.1752987  39.7884401  86.8906740
  96.2611238  48.0172940  91.1503652  97.2128661  48.1171037  91.1715876
  96.0914689  47.2251208  91.6601736  94.2825618  45.1028523  91.3363053
  93.6875550  45.3833536  90.6409541  93.9975314  45.5922424  92.1079794
  93.4133108  59.0551450  80.0965685  94.3463781  58.9897011  80.2998561
  93.3256321  59.8907717  79.6380218  96.0421125  58.3717320  77.0569633
  95.9634756  58.0377184  77.9505391  96.8630792  58.8639088  77.0561105
  98.7399316  51.2379059  90.2645951  98.7075636  50.2995060  90.4505635
  99.3499940  51.3163096  89.5311776  90.5782647  50.1075112  76.3073155
  91.5241752  49.9781320  76.3761573  90.1996892  49.3689774  76.7842583
  98.8893804  48.0290103  90.3104234  98.3732853  47.2448559  90.1234163
  99.7733753  47.7008819  90.4750754  96.5504531  41.7731118  86.2700047
  96.3529353  41.4646207  87.1543379  97.1604237  42.4992757  86.3997977
 104.5575866  52.2995066  89.4051988 105.2879254  52.0380354  89.9659691
 103.9482811  51.5623788  89.4454056 102.6391163  50.4402929  90.0026439
 101.9124327  50.3058894  89.3942931 102.2238450  50.7479757  90.8083157
  90.4621339  54.1592858  97.7673812  91.3824349  54.3371457  97.9613859
  90.4270922  53.2148904  97.6153512  90.3787630  42.5761978  82.3972282
  89.5688358  42.2309063  82.7727528  91.0672047  42.2669522  82.9859893
  92.3078178  41.6540025  84.0196578  92.8609217  42.0735479  84.6786602
  92.5448264  40.7275773  84.0619534  88.3311277  47.6427099  99.7999342
  88.2308004  48.5921456  99.7311433  88.1132819  47.3145338  98.9275412
  95.6856985  43.7640550  83.5275243  95.1055654  44.4225354  83.1453295
  95.4192918  42.9417895  83.1162660  94.1360551  43.1645608  85.7296563
  94.6360330  43.2762143  84.9210882  94.7796159  42.8606661  86.3697372
  88.1942547  51.0724238  98.6164404  87.7109629  51.8724598  98.8228293
  88.2803486  51.0832183  97.6631848  84.7115267  53.5329888  93.2203635
  85.5308156  54.0273967  93.2438473  84.9852075  52.6161857  93.1921203
  94.4681863  45.9240641  82.5831591  93.5807718  46.2090291  82.3651786
  94.8835852  45.7634404  81.7358868  97.8196399  45.9487162  86.2985930
  98.5956789  46.4383614  86.5710547  97.0944533  46.3745216  86.7557800
 100.2568958  46.6614781  87.3559871 100.8513449  46.4210517  86.6453179
 100.3295542  45.9421912  87.9833407  94.4422887  51.4395177  82.7981881
  94.3858088  51.8963728  81.9589514  94.9951229  50.6785861  82.6204724
  98.2527693  47.2284909  83.6232001  97.9964627  46.8281544  84.4540208
  97.6280561  47.9428702  83.4982140 102.5640031  49.9680982  86.1303292
 102.0039589  50.0374171  86.9034854 101.9583534  49.7921966  85.4102788
  95.5211774  56.1267845  78.7278071  96.3557378  55.6949043  78.5455546
  95.3596117  55.9549858  79.6554966  95.1757666  52.6299958  80.0934410
  95.1206470  52.4644229  79.1522854  94.5503721  53.3375991  80.2496600
  92.4903573  54.9348870  99.4187973  93.3594733  55.1089522  99.0574608
  92.0110325  55.7543287  99.2963702  92.3005911  38.7250844  83.9265666
  91.5338307  38.1709330  84.0722348  92.7116616  38.7972712  84.7879817
  84.3047672  45.0135639  98.0170847  85.1679134  44.6572444  98.2274171
  83.7313083  44.6749534  98.7046251 104.1496049  66.6437496  88.8233248
 104.7874459  66.5244243  88.1196588 104.0316892  67.5918340  88.8821200
 100.9585755  66.5964924  88.7594772 100.6204267  66.4805989  87.8715307
 101.8275524  66.1956089  88.7395779  96.8172571  68.4500400  84.7491663
  96.2537436  68.3590337  83.9807951  96.7024966  67.6300305  85.2294156
 101.4405538  67.7499776  94.7180978 101.4294179  67.3552574  93.8461482
 101.6026178  67.0165848  95.3114749  94.3637003  69.9451592  87.5875884
  95.1558295  69.6042416  87.1722183  94.6033653  70.0546567  88.5078037
  96.3227757  69.2060505  80.4593263  97.0958633  68.6589492  80.3206138
  96.6753156  70.0704754  80.6707724  98.1612800  70.5336887  93.6660162
  97.8702665  71.4382518  93.5506828  98.7969784  70.5753415  94.3804232
  99.0869006  67.9113736  90.2561522  99.6832579  67.6869758  89.5418485
  99.1443978  67.1698481  90.8586969 103.7037318  64.3688950  85.8986456
 104.4900407  63.9508373  85.5476873 103.9676022  65.2735042  86.0668104
 103.8747395  69.8061800  80.5975113 103.2393228  69.8796426  81.3096017
 103.5444801  70.3955399  79.9194192 109.1045745  64.3064183  86.8019434
 109.8370917  63.7363400  87.0357264 108.3485100  63.9185783  87.2425940
  98.3790324  67.2681277  80.2936088  98.2626582  66.5926181  80.9617172
  98.4892583  66.7813651  79.4768241 100.7221864  66.7291424  83.9982777
 100.3580072  66.2022045  84.7095698 101.5788980  66.3389893  83.8249262
 106.6271165  58.0185757  91.2614043 106.2954490  58.8881168  91.0375258
 106.0316778  57.7022041  91.9408073 100.3627351  61.7581324  78.9944125
 100.5301754  62.6261560  79.3614596 100.1724520  61.9208606  78.0705415
 103.1202685  70.2198303  90.6609956 102.8203408  71.1223342  90.5525763
 102.7753744  69.9530486  91.5131109  96.5715166  66.6712100  86.6946660
  95.6465663  66.5388314  86.9024352  96.8199579  67.4506319  87.1916603
 106.5199828  62.7380843  88.3407393 105.6116706  62.6696252  88.0466154
 106.4687424  63.2152788  89.1689218 100.3416572  64.2138981  79.9790792
 100.2216197  64.6596032  80.8176272  99.6469161  64.5624299  79.4204330
 100.5940694  64.1570489  96.2842290  99.8174028  64.7164409  96.2745155
 101.2331257  64.6427272  96.8057160 108.3861475  60.9397281  90.1185267
 107.7435855  61.2329815  89.4725061 107.8816403  60.8250202  90.9238464
 106.0401638  64.6860455  80.8071126 106.9519495  64.9187841  80.6318824
 105.5311286  65.2697499  80.2446205  98.8487066  66.9655942  95.8460257
  99.5901751  67.5040986  95.5695081  98.1424052  67.5922231  96.0031809
 104.3242406  69.1085082  94.4432419 104.7325762  68.6667493  93.6987051
 103.6019668  68.5337710  94.6966612 100.6773476  64.0457689  91.8165976
 101.5234671  64.4697103  91.9600625 100.6172114  63.3891314  92.5104539
 104.6471221  69.6686273  88.1984708 104.0180083  69.8331987  87.4960775
 104.2596883  70.0827883  88.9695672 108.5260453  70.6040711  85.5529071
 107.8411491  70.9839612  85.0026105 108.6104302  71.2136038  86.2861019
 103.8272921  61.7062058  93.4747149 103.5833853  62.4604118  92.9381425
 104.1032852  62.0847405  94.3094396 105.7811384  68.2500670  92.1524415
 105.9928279  68.8932430  91.4758796 105.7341133  67.4162987  91.6846345
 103.3837613  60.8618491  89.0560987 102.5222092  61.1599744  89.3477725
 103.4100048  61.0788890  88.1242020 100.1999183  69.4060681  85.4634793
 100.6637528  69.6848384  84.6739415  99.9355981  68.5044126  85.2807883
  97.0923264  68.9532163  88.4014556  97.6624621  69.3819431  87.7632040
  97.6831376  68.6714747  89.0998742  99.1368069  65.5283834  82.2724358
  99.8392112  65.9804877  82.7398284  98.8048697  64.8867652  82.9004251
  97.5848430  64.1195590  96.6475567  96.9547091  64.8011871  96.8810964
  97.4784518  64.0078672  95.7028706 106.8957212  71.1272625  90.3246772
 107.7174656  70.7252813  90.0429454 106.8919615  71.0240860  91.2762888
 100.6613816  70.6756669  92.4807483 100.7258248  71.1377076  93.3165655
  99.9524740  70.0454034  92.6089793 114.9863205  67.4711374  86.6731744
 114.2326914  66.9018772  86.5175748 115.1210746  67.4374038  87.6202378
  96.8629173  58.4216356  99.0100818  96.4696119  57.8682555  99.6848463
  97.6795313  58.7326935  99.4007336  99.7797134  59.8374235  96.6021075
 100.5206847  60.4381388  96.5225537 100.0115057  59.0951873  96.0439117
  94.9238472  65.0230602  94.8799305  94.8091987  64.1215860  95.1806403
  94.0682990  65.2694299  94.5284121 102.0030310  72.9648343  96.4786805
 101.5594164  72.1784721  96.1607710 102.6647523  73.1527493  95.8130696
  96.7617431  74.4944144  91.0047484  97.3124856  74.3661208  90.2324478
  95.9228907  74.7939033  90.6542376 104.1011548  73.2451143  94.5068206
 104.0830023  74.0660024  94.0148476 105.0231468  73.1205218  94.7318348
 100.5584602  70.7595272  95.3491715 101.0912939  69.9983560  95.1191023
 100.0298683  70.4668924  96.0915869 103.7254297  55.8655338  90.8785357
 103.3818566  56.7556980  90.8024467 104.0933259  55.6756996  90.0154942
 103.6904580  65.8563949  79.3857792 103.1751203  66.6268554  79.6246179
 103.4181888  65.1829085  80.0090853 101.2751691  60.7013650  84.4443030
 100.4193287  60.3120500  84.2648669 101.6878642  60.7805611  83.5842816
 102.8050837  58.2359993  88.8434590 102.3015633  58.1990128  88.0302395
 103.0981444  59.1452736  88.9031246  99.0493723  58.3198723  87.8500772
  99.9146720  58.1241532  87.4906661  99.1171232  58.0909075  88.7770128
 108.6638854  68.6096304  81.3210965 107.8868296  68.2707463  80.8766127
 109.3430335  68.6148927  80.6465930 103.4790883  63.7291041  81.2117573
 103.1741018  64.0437190  82.0627716 104.4321325  63.8072461  81.2544906
 101.9237315  69.8881265  82.8610527 101.3958676  69.1534024  82.5483764
 101.4224817  70.6655941  82.6150495 106.9030161  68.0830285  87.9777573
 106.2453835  68.7729546  88.0657702 107.7070560  68.4726717  88.3211559
  96.6556042  60.5500931  85.2217138  97.2299794  60.3276112  84.4890331
  97.2427025  60.6189625  85.9745740 105.7135619  66.4374658  86.0281515
 106.2267501  67.0704650  86.5303225 106.3636843  65.8375853  85.6624875
  96.9825629  62.5805392  79.2413024  96.1462942  62.9180078  79.5622298
  96.8430399  62.4454372  78.3040161  98.9578710  57.4242180  83.9492208
  98.3043122  57.1091197  83.3248823  98.9159184  56.8017920  84.6752031
 102.1916450  63.9124113  88.2739855 101.2739012  64.1339060  88.1161543
 102.6076594  63.9870424  87.4151563 102.9751498  65.3115529  83.4042536
 103.7223317  65.8236926  83.0949658 103.2443088  64.9899582  84.2646929
 101.2478148  67.8074070  80.3869490 100.3389367  67.5233103  80.4841960
 101.2773232  68.2273148  79.5272797 106.4797416  71.4180659  84.1560658
 106.0259743  70.5771569  84.2125848 105.8491382  72.0542058  84.4935438
 105.4230335  62.3472645  85.3861325 104.6853092  61.8350031  85.7171568
 105.6757109  61.9073027  84.5744602 104.9230355  73.2557156  85.0910476
 105.2153329  73.8162213  84.3722841 105.4328975  73.5485717  85.8463635
 105.5241963  55.1248897  85.9803094 105.8300839  54.2646261  85.6929009
 106.2494567  55.7166517  85.7802088  99.7963042  65.4202690  86.4879285
  99.8511652  64.4676527  86.4121762  98.9854244  65.5762129  86.9720584
  97.7355402  64.0379750  84.2469664  96.9223268  64.3373921  84.6534856
  98.2314396  63.6435439  84.9644146  99.8863980  74.0337507  86.1803929
  99.8440159  74.2598353  85.2512461 100.8026679  73.8000882  86.3289730
 103.3329614  64.5021575  93.0784558 103.6879002  64.7293048  93.9379024
 103.9801745  64.8339951  92.4561813 109.0627351  67.6240010  83.7833887
 108.9245249  67.8141606  82.8555076 108.7063570  68.3859393  84.2401938
 109.0896730  69.6916537  88.7945159 109.5233237  69.5991827  89.6428213
 109.8028311  69.6674038  88.1565175  98.0029781  70.9100536  85.9765892
  98.7970379  70.4150856  85.7748467  97.2921473  70.3818399  85.6133597
 102.8224625  73.2918632  90.3278259 102.8761648  73.8609568  91.0955975
 101.9539407  73.4620517  89.9632296 109.9512280  69.7340238  91.3278044
 110.1448170  70.6386049  91.5737319 109.8512898  69.2747657  92.1616629
 101.6048591  59.6198129  93.8268371 100.9576506  60.3188078  93.7332848
 102.3749606  60.0534273  94.1944620 105.0127389  69.8846981  96.9018925
 104.8612895  69.6557533  95.9849008 105.0032068  70.8417582  96.9150270
 101.7812725  67.4578894  91.8865191 102.7104785  67.6090053  91.7134158
 101.3603755  67.5462914  91.0313838 100.5801057  71.4829558  89.6563729
 100.4412143  71.1148342  90.5289667  99.7915653  71.9977197  89.4847686
 102.1306272  70.8611161  87.0452566 101.7956105  70.8211931  87.9410216
 101.6310218  70.1955877  86.5722977  96.1050516  66.2678791  92.5705148
  95.9670314  65.5359030  93.1716687  97.0155439  66.1787691  92.2889335
 105.0665464  68.2067195  77.3189626 104.4494634  67.4814023  77.2222679
 104.5981952  68.9676555  76.9756700  98.7332817  65.9798750  92.0588827
  99.4432435  65.3391942  92.0175446  98.6902125  66.2311645  92.9815008
 106.7219595  72.9166103  94.9795406 106.6632141  72.2325324  94.3125990
 107.1239114  73.6585093  94.5276032  97.4461751  62.9663968  93.8784467
  96.9099108  62.5154706  94.5306063  96.8578459  63.1009877  93.1354931
  95.7410294  79.7328017  87.7729125  95.9806892  80.3646541  88.4508144
  94.8979491  79.3816057  88.0594485 106.7237003  70.8805687  93.2109386
 105.8363781  70.5431609  93.3335785 107.2935554  70.1488719  93.4478152
 100.2538156  75.5407140  90.1770629 100.1808327  76.3462111  90.6889934
  99.8115549  75.7399105  89.3518651 103.3524586  60.5873539  86.3307656
 103.8493285  59.8343501  86.0108727 102.5811567  60.6237856  85.7650866
 111.2054343  66.2913905  87.9725948 111.1944219  67.1738620  87.6019881
 110.3371723  65.9385456  87.7780485 102.7136839  75.4393974  92.3328788
 103.4264812  76.0741439  92.2604689 102.2226868  75.5357840  91.5168790
 104.4354366  69.3445226  83.9046080 103.5010645  69.4646689  83.7350784
 104.6131035  68.4417693  83.6406090  99.9359554  62.7290922  86.0579341
  99.5657342  62.1761963  86.7460246 100.4318647  62.1249056  85.5054341
 107.8226918  65.1862546  84.4396114 108.2887370  66.0190537  84.3656416
 108.2734418  64.7207527  85.1441372  97.7648753  73.1888417  93.1534359
  98.4658213  73.8224900  93.3063753  97.2943868  73.5303149  92.3929998
 105.7943580  57.5543133  88.4787015 104.8806660  57.7847359  88.6469222
 106.2236682  57.6381577  89.3301048 105.5650039  65.7433025  90.9786909
 104.9121489  65.9908932  90.3239362 105.9430419  64.9297163  90.6449386
 101.6137612  66.4852836  97.4652946 100.9378249  66.3846965  98.1355321
 102.4365246  66.3292049  97.9288943  93.3616471  72.7224772  90.0865462
  93.9469908  71.9768460  90.2193366  93.1641310  73.0328729  90.9702125
  87.9534126  65.2930372  88.8069905  87.9918225  64.7593963  89.6007023
  87.4474419  64.7665578  88.1880882  94.8077161  62.2118045  95.9505481
  95.4349199  61.8295123  96.5643006  93.9505080  61.9932247  96.3161174
 105.2071269  72.6181021  97.5559217 105.7511173  73.2310979  97.0614171
 104.6258114  73.1760599  98.0726230 103.4928782  75.7401739  88.6874244
 103.3679922  74.9391478  88.1785190 104.1507873  76.2347932  88.1988214
 105.5563691  73.5410759  90.3153795 104.6094026  73.4216110  90.2432121
 105.9046464  72.6533257  90.3980056  97.9163264  59.4304898  94.1392036
  98.4397666  59.6767194  94.9018346  97.6975597  60.2624932  93.7195174
 102.5610124  73.3363475  86.5158147 102.4135086  72.4080182  86.6965717
 103.3863617  73.3583566  86.0315222  96.4272368  61.9881542  82.3738639
  96.7668441  62.5167463  81.6517247  96.8744489  62.3261948  83.1497205
 106.1644246  74.1592034  87.6023020 107.0890793  73.9534895  87.4647471
 105.9959549  73.9108435  88.5112361  99.1215809  60.3718593  91.8241707
  98.7812629  59.5726406  92.2262387  98.4154815  60.6720304  91.2518540
  99.7732281  57.4567905  90.2769030 100.5958350  56.9828383  90.1547920
 100.0170344  58.2358389  90.7767716  98.4140515  60.4856164  80.5731932
  99.1348878  60.8637416  80.0695649  97.7905819  61.2045040  80.6766910
 102.5571638  61.1901313  81.5090264 102.7735253  62.0725950  81.2079092
 102.0765705  60.7987526  80.7795906  99.1567242  61.1389574  88.1341898
  99.1428811  60.2430667  87.7974196  99.8739671  61.1460238  88.7680184
 101.0093373  61.5726914  90.1795026 100.7511151  62.4943985  90.1779356
 100.4778414  61.1757349  90.8695490  91.7716522  66.6892370  91.0248670
  91.2269990  67.4652178  91.1568944  92.6495872  67.0363175  90.8667791
  98.5604138  60.0203954  83.4029468  98.6820050  59.0920600  83.6020356
  98.2706181  60.0342640  82.4907784 101.4295329  57.7058865  86.5396188
 101.4517026  57.7698198  85.5848168 101.8463388  56.8663373  86.7336694
 111.8078953  67.4414124  84.5775411 112.2510099  66.6921449  84.1794534
 110.9305463  67.4324260  84.1949143  92.5582544  65.8162266  93.9178827
  91.8164280  65.9644902  94.5043457  92.2375288  66.0770532  93.0545576
 108.8406158  71.4444171  81.5869340 109.3657482  71.7831444  80.8618660
 108.7528510  70.5091186  81.4032475 100.5026206  75.3578245  93.7159217
 100.8113333  75.1127391  94.5881916 101.3001688  75.5624883  93.2278087
  97.9720690  73.0554163  88.0186895  97.3500700  72.3924868  87.7189123
  98.6425557  73.0815295  87.3360543  98.0445218  61.5335951  97.6119401
  98.0933373  62.4098074  97.2297170  98.5867732  60.9913345  97.0391044
 108.5300064  72.0777075  96.8920538 107.7395607  72.0601214  96.3525037
 108.2933418  72.6165368  97.6469575 108.6497939  68.9269541  94.2053266
 108.6995944  68.7619549  95.1468789 108.5411862  68.0596800  93.8151147
 105.9401701  64.9100469  95.5212573 106.8411564  64.7706934  95.2296571
 106.0149676  65.0754924  96.4610751 100.2744506  62.2867324  94.3665760
  99.4047816  62.5800890  94.0948348 100.5103987  62.8707769  95.0873023
 110.1516135  71.3466483  94.4495288 109.8600944  71.7096463  95.2858749
 109.5388267  70.6333491  94.2708620 111.3511818  68.9119362  86.9697858
 112.1858709  69.3509166  87.1335419 111.4870947  68.4358016  86.1506104
 108.4003324  66.4699097  92.9175346 108.8757445  66.6626744  92.1094197
 107.4768889  66.5258283  92.6718730 102.9783540  58.5046941  91.8831180
 103.4965484  59.2407968  91.5577668 102.6238673  58.8110934  92.7177939
  94.5582478  63.3651622  79.9992586  93.8651723  63.4395977  79.3432622
  94.3134230  62.6011966  80.5214103 103.2296134  54.9247223  87.4032077
 103.5097888  54.2570412  88.0292503 104.0146741  55.1176319  86.8906740
 107.1004993  63.3464857  91.1503652 108.0522416  63.4462955  91.1715876
 106.9308443  62.5543126  91.6601736 105.1219372  60.4320441  91.3363053
 104.5269304  60.7125453  90.6409541 104.8369069  60.9214341  92.1079794
 109.5793070  66.5670977  90.2645951 109.5469391  65.6286978  90.4505635
 110.1893694  66.6455014  89.5311776 101.4176401  65.4367030  76.3073155
 102.3635506  65.3073238  76.3761573 101.0390646  64.6981692  76.7842583
 109.7287559  63.3582020  90.3104234 109.2126608  62.5740477  90.1234163
 110.6127507  63.0300737  90.4750754 107.3898286  57.1023036  86.2700047
 107.1923107  56.7938124  87.1543379 107.9997991  57.8284675  86.3997977
 115.3969620  67.6286984  89.4051988 116.1273009  67.3672272  89.9659691
 114.7876566  66.8915706  89.4454056 113.4784917  65.7694846  90.0026439
 112.7518081  65.6350811  89.3942931 113.0632204  66.0771675  90.8083157
 101.3015094  69.4884776  97.7673812 102.2218103  69.6663375  97.9613859
 101.2664677  68.5440821  97.6153512  99.6019319  63.3617006  76.2428041
  98.6950774  63.0650119  76.3190754  99.8795300  63.0646824  75.3762327
  94.2977166  67.3985811  90.4096593  94.5163176  68.3302919  90.4284627
  94.7102940  67.0393785  91.1951397 101.2181384  57.9053896  82.3972282
 100.4082113  57.5600981  82.7727528 101.9065801  57.5961440  82.9859893
 103.1471933  56.9831943  84.0196578 103.7002971  57.4027396  84.6786602
 103.3842019  56.0567691  84.0619534  99.1705032  62.9719017  99.7999342
  99.0701759  63.9213373  99.7311433  98.9526574  62.6437255  98.9275412
 106.5250740  59.0932468  83.5275243 105.9449409  59.7517272  83.1453295
 106.2586672  58.2709813  83.1162660 104.9754306  58.4937526  85.7296563
 105.4754084  58.6054060  84.9210882 105.6189914  58.1898579  86.3697372
  99.0336302  66.4016155  98.6164404  98.5503384  67.2016515  98.8228293
  99.1197241  66.4124100  97.6631848  94.9609639  70.2920690  90.6532838
  95.9152893  70.2604632  90.5862769  94.7622163  69.8311314  91.4683064
  95.5509021  68.8621806  93.2203635  96.3701910  69.3565885  93.2438473
  95.8245829  67.9453774  93.1921203 105.3075618  61.2532558  82.5831591
 104.4201473  61.5382209  82.3651786 105.7229607  61.0926322  81.7358868
 108.6590154  61.2779079  86.2985930 109.4350544  61.7675532  86.5710547
 107.9338288  61.7037134  86.7557800 111.0962712  61.9906699  87.3559871
 111.6907203  61.7502435  86.6453179 111.1689296  61.2713829  87.9833407
  93.3159868  75.8340310  87.6703036  93.1814336  75.0740710  87.1041034
  92.8991930  76.5581209  87.2031825 105.2816641  66.7687094  82.7981881
 105.2251843  67.2255646  81.9589514 105.8344984  66.0077779  82.6204724
 109.0921447  62.5576826  83.6232001 108.8358382  62.1573462  84.4540208
 108.4674315  63.2720620  83.4982140 113.4033785  65.2972899  86.1303292
 112.8433343  65.3666089  86.9034854 112.7977289  65.1213884  85.4102788
  96.4728994  76.7309627  87.8821478  96.3561378  77.6755059  87.7800169
  95.6521440  76.4283188  88.2707278 106.0151421  67.9591876  80.0934410
 105.9600224  67.7936147  79.1522854 105.3897476  68.6667909  80.2496600
  90.8043936  63.1959940  93.9195833  91.4502799  62.6858894  94.4083058
  90.5961087  63.9328622  94.4939258 103.3297328  70.2640787  99.4187973
 104.1988487  70.4381440  99.0574608 102.8504079  71.0835204  99.2963702
  99.3247546  57.4599985  79.6719729  99.3126216  58.4041825  79.8288000
 100.2170968  57.2770130  79.3779190  99.2537110  76.1368875  87.7587485
  98.3032741  76.1370737  87.6451858  99.5569596  75.3901610  87.2423520
 103.1399666  54.0542761  83.9265666 102.3732061  53.5001248  84.0722348
 103.5510371  54.1264630  84.7879817  95.1441427  60.3427557  98.0170847
  96.0072888  59.9864362  98.2274171  94.5706837  60.0041452  98.7046251
 114.9889804  81.9729413  88.8233248 115.6268214  81.8536161  88.1196588
 114.8710646  82.9210257  88.8821200 111.7979510  81.9256842  88.7594772
 111.4598021  81.8097906  87.8715307 112.6669278  81.5248007  88.7395779
 112.2799293  83.0791693  94.7180978 112.2687934  82.6844492  93.8461482
 112.4419932  82.3457766  95.3114749 109.0006554  85.8628805  93.6660162
 108.7096420  86.7674436  93.5506828 109.6363538  85.9045333  94.3804232
 109.9262761  83.2405654  90.2561522 110.5226333  83.0161676  89.5418485
 109.9837732  82.4990399  90.8586969 114.5431072  79.6980867  85.8986456
 115.3294161  79.2800290  85.5476873 114.8069776  80.6026959  86.0668104
 119.9439499  79.6356100  86.8019434 120.6764671  79.0655317  87.0357264
 119.1878855  79.2477701  87.2425940 117.4664920  73.3477675  91.2614043
 117.1348244  74.2173086  91.0375258 116.8710533  73.0313959  91.9408073
 111.2021106  77.0873242  78.9944125 111.3695508  77.9553478  79.3614596
 111.0118275  77.2500523  78.0705415 113.9596439  85.5490221  90.6609956
 113.6597162  86.4515259  90.5525763 113.6147499  85.2822404  91.5131109
 117.3593583  78.0672761  88.3407393 116.4510460  77.9988169  88.0466154
 117.3081179  78.5444706  89.1689218 111.4334449  79.4862406  96.2842290
 110.6567783  80.0456326  96.2745155 112.0725012  79.9719189  96.8057160
 119.2255229  76.2689199  90.1185267 118.5829610  76.5621732  89.4725061
 118.7210158  76.1542119  90.9238464 116.8795393  80.0152372  80.8071126
 117.7913249  80.2479759  80.6318824 116.3705040  80.5989417  80.2446205
 109.6880821  82.2947860  95.8460257 110.4295505  82.8332904  95.5695081
 108.9817806  82.9214148  96.0031809 115.1636161  84.4377000  94.4432419
 115.5719517  83.9959411  93.6987051 114.4413422  83.8629628  94.6966612
 111.5167231  79.3749607  91.8165976 112.3628426  79.7989020  91.9600625
 111.4565868  78.7183231  92.5104539 115.4864975  84.9978191  88.1984708
 114.8573838  85.1623905  87.4960775 115.0990637  85.4119800  88.9695672
 119.3654207  85.9332629  85.5529071 118.6805245  86.3131530  85.0026105
 119.4498056  86.5427955  86.2861019 114.6666676  77.0353975  93.4747149
 114.4227608  77.7896036  92.9381425 114.9426606  77.4139323  94.3094396
 116.6205139  83.5792588  92.1524415 116.8322034  84.2224348  91.4758796
 116.5734887  82.7454904  91.6846345 114.2231368  76.1910408  89.0560987
 113.3615847  76.4891662  89.3477725 114.2493802  76.4080807  88.1242020
 107.9317018  84.2824080  88.4014556 108.5018375  84.7111349  87.7632040
 108.5225130  84.0006665  89.0998742 108.4242185  79.4487508  96.6475567
 107.7940845  80.1303789  96.8810964 108.3178273  79.3370589  95.7028706
 103.7187157  79.1159304  87.5741491 102.9286211  79.3716832  87.0981602
 104.2098405  79.9307642  87.6793532 117.7350967  86.4564543  90.3246772
 118.5568410  86.0544730  90.0429454 117.7313370  86.3532777  91.2762888
 105.6701903  79.4803883  84.5324968 104.8733066  79.5922577  85.0508464
 105.4427495  79.8190535  83.6665859 111.5007570  86.0048586  92.4807483
 111.5652003  86.4668994  93.3165655 110.7918494  85.3745951  92.6089793
 102.0024860  79.3689794  90.0056482 102.2532899  80.2536804  90.2714058
 102.5384409  79.1894396  89.2331574 125.8256960  82.8003292  86.6731744
 125.0720668  82.2310690  86.5175748 125.9604501  82.7665956  87.6202378
 107.7022927  73.7508274  99.0100818 107.3089873  73.1974472  99.6848463
 108.5189068  74.0618852  99.4007336 110.6190888  75.1666153  96.6021075
 111.3600602  75.7673306  96.5225537 110.8508811  74.4243791  96.0439117
 114.5648051  71.1947256  90.8785357 114.2212321  72.0848897  90.8024467
 114.9327014  71.0048913  90.0154942 114.5298334  81.1855867  79.3857792
 114.0144958  81.9560471  79.6246179 114.2575643  80.5121003  80.0090853
 112.1145445  76.0305568  84.4443030 111.2587041  75.6412418  84.2648669
 112.5272397  76.1097528  83.5842816 113.6444592  73.5651911  88.8434590
 113.1409387  73.5282046  88.0302395 113.9375199  74.4744654  88.9031246
 109.8887478  73.6490641  87.8500772 110.7540474  73.4533449  87.4906661
 109.9564987  73.4200992  88.7770128 114.3184637  79.0582959  81.2117573
 114.0134773  79.3729108  82.0627716 115.2715079  79.1364379  81.2544906
 117.7423915  83.4122203  87.9777573 117.0847590  84.1021464  88.0657702
 118.5464314  83.8018635  88.3211559 107.4949797  75.8792849  85.2217138
 108.0693549  75.6568030  84.4890331 108.0820779  75.9481543  85.9745740
 116.5529374  81.7666575  86.0281515 117.0661256  82.3996567  86.5303225
 117.2030598  81.1667771  85.6624875 109.7972464  72.7534097  83.9492208
 109.1436877  72.4383115  83.3248823 109.7552939  72.1309838  84.6752031
 113.0310205  79.2416031  88.2739855 112.1132766  79.4630978  88.1161543
 113.4470348  79.3162341  87.4151563 113.8145253  80.6407447  83.4042536
 114.5617071  81.1528844  83.0949658 114.0836842  80.3191499  84.2646929
 117.3191170  86.7472577  84.1560658 116.8653497  85.9063487  84.2125848
 116.6885137  87.3833975  84.4935438 116.2624090  77.6764563  85.3861325
 115.5246846  77.1641949  85.7171568 116.5150863  77.2364945  84.5744602
 115.7624109  88.5849074  85.0910476 116.0547084  89.1454131  84.3722841
 116.2722730  88.8777635  85.8463635 116.3635717  70.4540815  85.9803094
 116.6694594  69.5938178  85.6929009 117.0888322  71.0458435  85.7802088
 102.6560073  80.8571502  84.3684692 102.4584473  80.2640862  83.6435759
 102.1006737  80.5523712  85.0860631 110.6356797  80.7494608  86.4879285
 110.6905407  79.7968444  86.4121762 109.8247999  80.9054047  86.9720584
 108.5749157  79.3671668  84.2469664 107.7617022  79.6665838  84.6534856
 109.0708151  78.9727357  84.9644146 114.1723368  79.8313492  93.0784558
 114.5272756  80.0584965  93.9379024 114.8195500  80.1631869  92.4561813
 119.9021105  82.9531928  83.7833887 119.7639004  83.1433524  82.8555076
 119.5457324  83.7151311  84.2401938 108.0663231  76.9390023  89.8630899
 108.7062611  76.7978782  89.1653862 107.2340762  76.6524537  89.4869501
 119.9290485  85.0208455  88.7945159 120.3626992  84.9283744  89.6428213
 120.6422066  84.9965956  88.1565175 113.6618380  88.6210549  90.3278259
 113.7155402  89.1901486  91.0955975 112.7933161  88.7912434  89.9632296
 105.0691848  76.9090348  84.6403886 105.3298665  77.8235682  84.5313046
 105.8909020  76.4414791  84.7900499 106.5416773  78.3228105  91.8102710
 107.2139827  78.1145468  91.1615359 105.7146560  78.1250191  91.3707943
 120.7906034  85.0632156  91.3278044 120.9841925  85.9677966  91.5737319
 120.6906653  84.6039575  92.1616629 112.4442345  74.9490046  93.8268371
 111.7970260  75.6479996  93.7332848 113.2143361  75.3826190  94.1944620
 115.8521143  85.2138899  96.9018925 115.7006650  84.9849450  95.9849008
 115.8425823  86.1709500  96.9150270 112.6206480  82.7870811  91.8865191
 113.5498540  82.9381971  91.7134158 112.1997510  82.8754832  91.0313838
 111.4194811  86.8121476  89.6563729 111.2805897  86.4440260  90.5289667
 110.6309408  87.3269115  89.4847686 112.9700026  86.1903078  87.0452566
 112.6349859  86.1503848  87.9410216 112.4703972  85.5247794  86.5722977
 106.9444270  81.5970708  92.5705148 106.8064068  80.8650947  93.1716687
 107.8549194  81.5079609  92.2889335 109.5726571  81.3090668  92.0588827
 110.2826190  80.6683860  92.0175446 109.5295879  81.5603563  92.9815008
 108.2855505  78.2955886  93.8784467 107.7492862  77.8446624  94.5306063
 107.6972214  78.4301794  93.1354931 117.5630757  86.2097605  93.2109386
 116.6757536  85.8723527  93.3335785 118.1329308  85.4780636  93.4478152
 104.0194626  77.4311893  90.9637461 103.9352815  76.8237563  90.2287871
 103.1977333  77.9220912  90.9646958 114.1918340  75.9165457  86.3307656
 114.6887040  75.1635419  86.0108727 113.4205322  75.9529773  85.7650866
 122.0448098  81.6205822  87.9725948 122.0337974  82.5030538  87.6019881
 121.1765477  81.2677373  87.7780485 110.7753309  78.0582840  86.0579341
 110.4051096  77.5053880  86.7460246 111.2712401  77.4540973  85.5054341
 118.6620672  80.5154463  84.4396114 119.1281124  81.3482455  84.3656416
 119.1128173  80.0499445  85.1441372 116.6337335  72.8835050  88.4787015
 115.7200415  73.1139277  88.6469222 117.0630436  72.9673494  89.3301048
 116.4043793  81.0724942  90.9786909 115.7515244  81.3200850  90.3239362
 116.7824173  80.2589080  90.6449386 112.4531367  81.8144753  97.4652946
 111.7772004  81.7138883  98.1355321 113.2759000  81.6583967  97.9288943
  98.7927880  80.6222290  88.8069905  98.8311980  80.0885881  89.6007023
  98.2868173  80.0957496  88.1880882 106.1718643  75.4686831  92.3032447
 106.2359969  76.3301662  91.8909845 106.1085763  74.8560832  91.5704805
 105.6470915  77.5409963  95.9505481 106.2742954  77.1587040  96.5643006
 104.7898834  77.3224165  96.3161174 105.9530705  77.4242389  87.8651385
 105.2317291  78.0378357  87.7258858 106.7423961  77.9600154  87.7868031
 116.3957445  88.8702676  90.3153795 115.4487781  88.7508028  90.2432121
 116.7440218  87.9825174  90.3980056 108.7557018  74.7596815  94.1392036
 109.2791420  75.0059112  94.9018346 108.5369352  75.5916850  93.7195174
 107.2666123  77.3173460  82.3738639 107.6062195  77.8459381  81.6517247
 107.7138243  77.6553866  83.1497205 117.0038000  89.4883951  87.6023020
 117.9284548  89.2826813  87.4647471 116.8353304  89.2400353  88.5112361
 109.9609563  75.7010510  91.8241707 109.6206384  74.9018324  92.2262387
 109.2548570  76.0012221  91.2518540 110.6126035  72.7859823  90.2769030
 111.4352105  72.3120301  90.1547920 110.8564099  73.5650307  90.7767716
 113.3965393  76.5193230  81.5090264 113.6129007  77.4017868  81.2079092
 112.9159460  76.1279444  80.7795906 108.1364614  79.4778944  88.0861009
 107.9909195  79.7919247  88.9785290 107.6589818  80.0963844  87.5331907
 109.9960997  76.4681491  88.1341898 109.9822566  75.5722585  87.7974196
 110.7133425  76.4752155  88.7680184 111.8487128  76.9018832  90.1795026
 111.5904905  77.8235902  90.1779356 111.3172168  76.5049266  90.8695490
 116.7933316  90.0069619  82.9585111 116.9670194  89.4416041  82.2058963
 117.2862208  90.8070514  82.7764601 109.3997893  75.3495872  83.4029468
 109.5213804  74.4212518  83.6020356 109.1099935  75.3634558  82.4907784
 112.2689083  73.0350782  86.5396188 112.2910780  73.0990115  85.5848168
 112.6857142  72.1955291  86.7336694 122.6472708  82.7706042  84.5775411
 123.0903854  82.0213367  84.1794534 121.7699218  82.7616178  84.1949143
 108.8838972  76.8627869  97.6119401 108.9327128  77.7389992  97.2297170
 109.4261487  76.3205262  97.0391044 119.3693818  87.4068992  96.8920538
 118.5789362  87.3893131  96.3525037 119.1327173  87.9457286  97.6469575
 119.4891693  84.2561459  94.2053266 119.5389698  84.0911466  95.1468789
 119.3805616  83.3888718  93.8151147 116.7795456  80.2392387  95.5212573
 117.6805318  80.0998852  95.2296571 116.8543430  80.4046842  96.4610751
 111.1138261  77.6159242  94.3665760 110.2441570  77.9092808  94.0948348
 111.3497741  78.1999687  95.0873023 120.9909890  86.6758400  94.4495288
 120.6994698  87.0388381  95.2858749 120.3782021  85.9625409  94.2708620
 122.1905572  84.2411280  86.9697858 123.0252464  84.6801084  87.1335419
 122.3264701  83.7649933  86.1506104 119.2397078  81.7991015  92.9175346
 119.7151200  81.9918661  92.1094197 118.3162644  81.8550201  92.6718730
 113.8177295  73.8338858  91.8831180 114.3359239  74.5699885  91.5577668
 113.4632427  74.1402852  92.7177939 114.0689889  70.2539141  87.4032077
 114.3491643  69.5862330  88.0292503 114.8540496  70.4468237  86.8906740
 117.9398747  78.6756775  91.1503652 118.8916170  78.7754873  91.1715876
 117.7702198  77.8835044  91.6601736 115.9613127  75.7612358  91.3363053
 115.3663059  76.0417371  90.6409541 115.6762823  76.2506259  92.1079794
 115.0920617  89.7135285  80.0965685 116.0251290  89.6480847  80.2998561
 115.0043830  90.5491552  79.6380218 120.4186825  81.8962895  90.2645951
 120.3863145  80.9578895  90.4505635 121.0287449  81.9746931  89.5311776
 120.5681313  78.6873938  90.3104234 120.0520362  77.9032395  90.1234163
 121.4521262  78.3592655  90.4750754 118.2292040  72.4314954  86.2700047
 118.0316862  72.1230042  87.1543379 118.8391746  73.1576593  86.3997977
 126.2363375  82.9578902  89.4051988 126.9666763  82.6964190  89.9659691
 125.6270320  82.2207623  89.4454056 124.3178672  81.0986764  90.0026439
 123.5911836  80.9642729  89.3942931 123.9025959  81.4063593  90.8083157
 112.1408848  84.8176694  97.7673812 113.0611858  84.9955293  97.9613859
 112.1058431  83.8732739  97.6153512 110.4413073  78.6908924  76.2428041
 109.5344528  78.3942037  76.3190754 110.7189054  78.3938742  75.3762327
 112.0575139  73.2345814  82.3972282 111.2475867  72.8892899  82.7727528
 112.7459556  72.9253357  82.9859893 113.9865687  72.3123861  84.0196578
 114.5396726  72.7319314  84.6786602 114.2235773  71.3859609  84.0619534
 110.0098786  78.3010934  99.7999342 109.9095513  79.2505291  99.7311433
 109.7920328  77.9729173  98.9275412 117.3644494  74.4224386  83.5275243
 116.7843163  75.0809190  83.1453295 117.0980427  73.6001730  83.1162660
 115.8148060  73.8229443  85.7296563 116.3147839  73.9345978  84.9210882
 116.4583668  73.5190496  86.3697372 109.8730056  81.7308073  98.6164404
 109.3897138  82.5308433  98.8228293 109.9590995  81.7416018  97.6631848
 106.3902776  84.1913724  93.2203635 107.2095665  84.6857802  93.2438473
 106.6639584  83.2745692  93.1921203 116.1469372  76.5824476  82.5831591
 115.2595227  76.8674127  82.3651786 116.5623361  76.4218239  81.7358868
 119.4983908  76.6070997  86.2985930 120.2744298  77.0967450  86.5710547
 118.7732042  77.0329051  86.7557800 121.9356467  77.3198616  87.3559871
 122.5300958  77.0794352  86.6453179 122.0083051  76.6005747  87.9833407
 116.1210396  82.0979012  82.7981881 116.0645597  82.5547563  81.9589514
 116.6738738  81.3369697  82.6204724 119.9315202  77.8868744  83.6232001
 119.6752136  77.4865380  84.4540208 119.3068070  78.6012538  83.4982140
 124.2427540  80.6264817  86.1303292 123.6827098  80.6958006  86.9034854
 123.6371043  80.4505802  85.4102788 114.1691082  85.5932705  99.4187973
 115.0382242  85.7673357  99.0574608 113.6897834  86.4127122  99.2963702
 110.1641301  72.7891902  79.6719729 110.1519970  73.7333742  79.8288000
 111.0564722  72.6062048  79.3779190 113.9793420  69.3834679  83.9265666
 113.2125816  68.8293166  84.0722348 114.3904125  69.4556548  84.7879817
 105.9835181  75.6719475  98.0170847 106.8466643  75.3156280  98.2274171
 105.4100592  75.3333370  98.7046251 125.8283558  97.3021331  88.8233248
 126.4661968  97.1828078  88.1196588 125.7104401  98.2502175  88.8821200
 122.6373264  97.2548759  88.7594772 122.2991776  97.1389824  87.8715307
 123.5063033  96.8539924  88.7395779 123.1193047  98.4083611  94.7180978
 123.1081688  98.0136409  93.8461482 123.2813687  97.6749684  95.3114749
 124.0759639 102.7755203  80.0606128 123.4247619 103.3609284  79.6740142
 124.8704002 103.3061398  80.1201166 119.8400308 101.1920723  93.6660162
 119.5490174 102.0966354  93.5506828 120.4757293 101.2337250  94.3804232
 120.7656515  98.5697571  90.2561522 121.3620088  98.3453594  89.5418485
 120.8231487  97.8282317  90.8586969 125.3824827  95.0272785  85.8986456
 126.1687916  94.6092208  85.5476873 125.6463531  95.9318877  86.0668104
 125.5534904 100.4645635  80.5975113 124.9180737 100.5380262  81.3096017
 125.2232310 101.0539234  79.9194192 130.7833254  94.9648018  86.8019434
 131.5158426  94.3947235  87.0357264 130.0272609  94.5769619  87.2425940
 122.4009373  97.3875260  83.9982777 122.0367581  96.8605881  84.7095698
 123.2576489  96.9973729  83.8249262 128.3058674  88.6769592  91.2614043
 127.9741999  89.5465003  91.0375258 127.7104287  88.3605876  91.9408073
 124.7990194 100.8782138  90.6609956 124.4990917 101.7807177  90.5525763
 124.4541253 100.6114321  91.5131109 128.1987337  93.3964678  88.3407393
 127.2904215  93.3280087  88.0466154 128.1474933  93.8736623  89.1689218
 130.0648984  91.5981117  90.1185267 129.4223364  91.8913650  89.4725061
 129.5603912  91.4834037  90.9238464 127.7189147  95.3444290  80.8071126
 128.6307004  95.5771677  80.6318824 127.2098794  95.9281334  80.2446205
 126.0029915  99.7668918  94.4432419 126.4113271  99.3251328  93.6987051
 125.2807177  99.1921545  94.6966612 122.3560985  94.7041525  91.8165976
 123.2022180  95.1280938  91.9600625 122.2959623  94.0475149  92.5104539
 126.3258730 100.3270108  88.1984708 125.6967592 100.4915823  87.4960775
 125.9384392 100.7411718  88.9695672 130.2047962 101.2624546  85.5529071
 129.5199000 101.6423448  85.0026105 130.2891811 101.8719873  86.2861019
 125.5060430  92.3645893  93.4747149 125.2621362  93.1187953  92.9381425
 125.7820361  92.7431241  94.3094396 127.4598893  98.9084505  92.1524415
 127.6715788  99.5516265  91.4758796 127.4128641  98.0746822  91.6846345
 125.0625122  91.5202326  89.0560987 124.2009601  91.8183580  89.3477725
 125.0887557  91.7372725  88.1242020 128.5744721 101.7856461  90.3246772
 129.3962165 101.3836648  90.0429454 128.5707124 101.6824695  91.2762888
 122.3401325 101.3340504  92.4807483 122.4045757 101.7960911  93.3165655
 121.6312249 100.7037869  92.6089793 136.6650714  98.1295209  86.6731744
 135.9114423  97.5602607  86.5175748 136.7998255  98.0957874  87.6202378
 118.5416682  89.0800191  99.0100818 118.1483627  88.5266390  99.6848463
 119.3582822  89.3910770  99.4007336 121.4584643  90.4958070  96.6021075
 122.1994356  91.0965224  96.5225537 121.6902566  89.7535708  96.0439117
 123.6817819 103.6232178  96.4786805 123.2381673 102.8368557  96.1607710
 124.3435032 103.8111329  95.8130696 125.7799057 103.9034978  94.5068206
 125.7617532 104.7243859  94.0148476 126.7018977 103.7789053  94.7318348
 122.2372111 101.4179107  95.3491715 122.7700448 100.6567396  95.1191023
 121.7086192 101.1252759  96.0915869 125.4041806  86.5239173  90.8785357
 125.0606075  87.4140815  90.8024467 125.7720768  86.3340831  90.0154942
 125.3692089  96.5147785  79.3857792 124.8538712  97.2852389  79.6246179
 125.0969397  95.8412921  80.0090853 122.9539200  91.3597485  84.4443030
 122.0980796  90.9704336  84.2648669 123.3666151  91.4389446  83.5842816
 124.4838346  88.8943829  88.8434590 123.9803142  88.8573964  88.0302395
 124.7768953  89.8036571  88.9031246 120.7281232  88.9782558  87.8500772
 121.5934229  88.7825367  87.4906661 120.7958741  88.7492910  88.7770128
 130.3426363  99.2680139  81.3210965 129.5655805  98.9291299  80.8766127
 131.0217844  99.2732762  80.6465930 125.1578392  94.3874877  81.2117573
 124.8528527  94.7021026  82.0627716 126.1108834  94.4656297  81.2544906
 123.6024824 100.5465100  82.8610527 123.0746185  99.8117860  82.5483764
 123.1012326 101.3239776  82.6150495 128.5817670  98.7414120  87.9777573
 127.9241344  99.4313382  88.0657702 129.3858069  99.1310552  88.3211559
 118.3343551  91.2084766  85.2217138 118.9087303  90.9859948  84.4890331
 118.9214534  91.2773461  85.9745740 127.3923128  97.0958493  86.0281515
 127.9055010  97.7288485  86.5303225 128.0424352  96.4959689  85.6624875
 120.6366219  88.0826015  83.9492208 119.9830631  87.7675032  83.3248823
 120.5946693  87.4601756  84.6752031 123.8703959  94.5707949  88.2739855
 122.9526521  94.7922896  88.1161543 124.2864103  94.6454259  87.4151563
 124.6539007  95.9699364  83.4042536 125.4010826  96.4820762  83.0949658
 124.9230597  95.6483417  84.2646929 128.1584925 102.0764495  84.1560658
 127.7047252 101.2355404  84.2125848 127.5278891 102.7125893  84.4935438
 127.1017844  93.0056481  85.3861325 126.3640601  92.4933867  85.7171568
 127.3544618  92.5656862  84.5744602 126.6017864 103.9140991  85.0910476
 126.8940838 104.4746048  84.3722841 127.1116484 104.2069552  85.8463635
 127.2029472  85.7832733  85.9803094 127.5088348  84.9230096  85.6929009
 127.9282076  86.3750353  85.7802088 121.4750551  96.0786526  86.4879285
 121.5299161  95.1260362  86.4121762 120.6641753  96.2345965  86.9720584
 125.0117123  95.1605410  93.0784558 125.3666511  95.3876883  93.9379024
 125.6589254  95.4923787  92.4561813 130.7414860  98.2823846  83.7833887
 130.6032758  98.4725442  82.8555076 130.3851079  99.0443229  84.2401938
 118.9056986  92.2681941  89.8630899 119.5456365  92.1270700  89.1653862
 118.0734516  91.9816454  89.4869501 130.7684239 100.3500373  88.7945159
 131.2020746 100.2575662  89.6428213 131.4815820 100.3257873  88.1565175
 124.5012134 103.9502467  90.3278259 124.5549157 104.5193403  91.0955975
 123.6326916 104.1204352  89.9632296 131.6299789 100.3924073  91.3278044
 131.8235679 101.2969884  91.5737319 131.5300407  99.9331493  92.1616629
 123.2836100  90.2781964  93.8268371 122.6364015  90.9771914  93.7332848
 124.0537115  90.7118108  94.1944620 126.6914898 100.5430816  96.9018925
 126.5400404 100.3141368  95.9849008 126.6819577 101.5001418  96.9150270
 123.4600234  98.1162729  91.8865191 124.3892294  98.2673889  91.7134158
 123.0391264  98.2046750  91.0313838 122.2588566 102.1413393  89.6563729
 122.1199652 101.7732178  90.5289667 121.4703162 102.6561033  89.4847686
 123.8093781 101.5194996  87.0452566 123.4743614 101.4795766  87.9410216
 123.3097727 100.8539712  86.5722977 126.7452973  98.8651030  77.3189626
 126.1282143  98.1397859  77.2222679 126.2769461  99.6260391  76.9756700
 120.4120326  96.6382585  92.0588827 121.1219944  95.9975778  92.0175446
 120.3689634  96.8895480  92.9815008 128.4007104 103.5749939  94.9795406
 128.3419650 102.8909159  94.3125990 128.8026623 104.3168929  94.5276032
 128.4024512 101.5389523  93.2109386 127.5151290 101.2015444  93.3335785
 128.9723063 100.8072554  93.4478152 121.9325665 106.1990975  90.1770629
 121.8595836 107.0045947  90.6889934 121.4903058 106.3982941  89.3518651
 125.0312095  91.2457375  86.3307656 125.5280794  90.4927337  86.0108727
 124.2599076  91.2821691  85.7650866 132.8841852  96.9497740  87.9725948
 132.8731728  97.8322455  87.6019881 132.0159232  96.5969291  87.7780485
 124.3924348 106.0977809  92.3328788 125.1052321 106.7325274  92.2604689
 123.9014377 106.1941675  91.5168790 126.1141875 100.0029062  83.9046080
 125.1798154 100.1230524  83.7350784 126.2918544  99.1001529  83.6406090
 121.6147063  93.3874758  86.0579341 121.2444851  92.8345798  86.7460246
 122.1106156  92.7832891  85.5054341 129.5014427  95.8446381  84.4396114
 129.9674879  96.6774373  84.3656416 129.9521927  95.3791363  85.1441372
 119.4436262 103.8472253  93.1534359 120.1445721 104.4808735  93.3063753
 118.9731377 104.1886984  92.3929998 127.5690658 102.1890202  81.4382266
 127.8450502 102.0746797  82.3476140 126.6995157 101.7907687  81.3994439
 127.4731089  88.2126968  88.4787015 126.5594169  88.4431195  88.6469222
 127.9024191  88.2965412  89.3301048 127.2437548  96.4016860  90.9786909
 126.5908998  96.6492767  90.3239362 127.6217928  95.5880998  90.6449386
 122.0347904 108.4503598  91.7010562 122.5866212 108.6135220  92.4659647
 122.3754097 109.0408036  91.0290587 126.8858778 103.2764856  97.5559217
 127.4298682 103.8894814  97.0614171 126.3045623 103.8344434  98.0726230
 125.1716291 106.3985574  88.6874244 125.0467431 105.5975314  88.1785190
 125.8295382 106.8931767  88.1988214 127.2351200 104.1994594  90.3153795
 126.2881535 104.0799945  90.2432121 127.5833973 103.3117092  90.3980056
 119.5950773  90.0888733  94.1392036 120.1185175  90.3351030  94.9018346
 119.3763106  90.9208768  93.7195174 124.2397633 103.9947310  86.5158147
 124.0922595 103.0664018  86.6965717 125.0651126 104.0167401  86.0315222
 118.1059877  92.6465377  82.3738639 118.4455950  93.1751299  81.6517247
 118.5531998  92.9845784  83.1497205 127.8431755 104.8175869  87.6023020
 128.7678302 104.6118730  87.4647471 127.6747058 104.5692270  88.5112361
 120.8003318  91.0302428  91.8241707 120.4600138  90.2310241  92.2262387
 120.0942324  91.3304139  91.2518540 121.4519790  88.1151741  90.2769030
 122.2745859  87.6412219  90.1547920 121.6957853  88.8942224  90.7767716
 120.0928024  91.1439999  80.5731932 120.8136387  91.5221252  80.0695649
 119.4693328  91.8628876  80.6766910 124.2359147  91.8485148  81.5090264
 124.4522762  92.7309786  81.2079092 123.7553214  91.4571361  80.7795906
 120.8354751  91.7973409  88.1341898 120.8216320  90.9014502  87.7974196
 121.5527180  91.8044073  88.7680184 122.6880882  92.2310749  90.1795026
 122.4298660  93.1527820  90.1779356 122.1565923  91.8341184  90.8695490
 127.6327071 105.3361536  82.9585111 127.8063948 104.7707959  82.2058963
 128.1255962 106.1362431  82.7764601 120.2391647  90.6787789  83.4029468
 120.3607559  89.7504436  83.6020356 119.9493690  90.6926475  82.4907784
 123.1082838  88.3642700  86.5396188 123.1304535  88.4282033  85.5848168
 123.5250897  87.5247209  86.7336694 133.4866462  98.0997959  84.5775411
 133.9297608  97.3505285  84.1794534 132.6092972  98.0908096  84.1949143
 128.6202243 104.6528301  80.0582009 129.3153148 105.2734994  80.2769324
 128.9625394 103.8023652  80.3334387 130.5193667 102.1028006  81.5869340
 131.0444991 102.4415279  80.8618660 130.4316019 101.1675022  81.4032475
 122.1813715 106.0162080  93.7159217 122.4900842 105.7711227  94.5881916
 122.9789197 106.2208719  93.2278087 130.2087573 102.7360910  96.8920538
 129.4183116 102.7185049  96.3525037 129.9720927 103.2749204  97.6469575
 130.3285448  99.5853376  94.2053266 130.3783453  99.4203384  95.1468789
 130.2199371  98.7180635  93.8151147 127.6189210  95.5684304  95.5212573
 128.5199073  95.4290769  95.2296571 127.6937185  95.7338759  96.4610751
 121.9532015  92.9451159  94.3665760 121.0835325  93.2384725  94.0948348
 122.1891496  93.5291604  95.0873023 131.8303644 102.0050318  94.4495288
 131.5388453 102.3680299  95.2858749 131.2175776 101.2917326  94.2708620
 133.0299327  99.5703198  86.9697858 133.8646218 100.0093002  87.1335419
 133.1658456  99.0941851  86.1506104 130.0790833  97.1282933  92.9175346
 130.5544954  97.3210579  92.1094197 129.1556398  97.1842118  92.6718730
 116.9674339  98.2907100  82.5006424 116.7220381  97.3869430  82.6986634
 117.1370254  98.2924250  81.5585902 124.6571049  89.1630776  91.8831180
 125.1752993  89.8991803  91.5577668 124.3026182  89.4694769  92.7177939
 124.9083643  85.5831059  87.4032077 125.1885397  84.9154248  88.0292503
 125.6934250  85.7760154  86.8906740 128.7792502  94.0048693  91.1503652
 129.7309925  94.1046790  91.1715876 128.6095952  93.2126961  91.6601736
 126.8006881  91.0904276  91.3363053 126.2056813  91.3709289  90.6409541
 126.5156578  91.5798177  92.1079794 125.9314372 105.0427203  80.0965685
 126.8645045 104.9772764  80.2998561 125.8437584 105.8783470  79.6380218
 128.5602388 104.3593073  77.0569633 128.4816020 104.0252937  77.9505391
 129.3812055 104.8514841  77.0561105 131.2580579  97.2254812  90.2645951
 131.2256900  96.2870813  90.4505635 131.8681203  97.3038849  89.5311776
 131.4075068  94.0165856  90.3104234 130.8914117  93.2324312  90.1234163
 132.2915016  93.6884572  90.4750754 129.0685795  87.7606871  86.2700047
 128.8710616  87.4521960  87.1543379 129.6785500  88.4868510  86.3997977
 137.0757129  98.2870819  89.4051988 137.8060518  98.0256107  89.9659691
 136.4664075  97.5499541  89.4454056 135.1572426  96.4278682  90.0026439
 134.4305590  96.2934647  89.3942931 134.7419713  96.7355510  90.8083157
 122.9802603 100.1468611  97.7673812 123.9005612 100.3247210  97.9613859
 122.9452186  99.2024657  97.6153512 122.8968893  88.5637731  82.3972282
 122.0869622  88.2184816  82.7727528 123.5853310  88.2545275  82.9859893
 124.8259441  87.6415778  84.0196578 125.3790480  88.0611232  84.6786602
 125.0629528  86.7151526  84.0619534 128.2038249  89.7516303  83.5275243
 127.6236918  90.4101107  83.1453295 127.9374181  88.9293648  83.1162660
 126.6541815  89.1521361  85.7296563 127.1541593  89.2637896  84.9210882
 127.2977423  88.8482414  86.3697372 126.9863127  91.9116394  82.5831591
 126.0988982  92.1966044  82.3651786 127.4017116  91.7510157  81.7358868
 130.3377663  91.9362915  86.2985930 131.1138053  92.4259367  86.5710547
 129.6125797  92.3620969  86.7557800 132.7750221  92.6490534  87.3559871
 133.3694712  92.4086270  86.6453179 132.8476805  91.9297665  87.9833407
 126.1306340 101.6761068  76.6779611 126.8342190 101.8811071  77.2937267
 125.4068989 102.2437830  76.9428695 126.9604150  97.4270930  82.7981881
 126.9039352  97.8839481  81.9589514 127.5132493  96.6661614  82.6204724
 130.7708956  93.2160662  83.6232001 130.5145890  92.8157297  84.4540208
 130.1461824  93.9304456  83.4982140 135.0821294  95.9556735  86.1303292
 134.5220852  96.0249924  86.9034854 134.4764797  95.7797719  85.4102788
 128.0393037 102.1143598  78.7278071 128.8738641 101.6824796  78.5455546
 127.8777380 101.9425611  79.6554966 127.6938930  98.6175711  80.0934410
 127.6387733  98.4519982  79.1522854 127.0684985  99.3251744  80.2496600
 125.0084837 100.9224623  99.4187973 125.8775996 101.0965275  99.0574608
 124.5291588 101.7419040  99.2963702 124.8187175  84.7126597  83.9265666
 124.0519570  84.1585083  84.0722348 125.2297880  84.7848465  84.7879817
 136.6677313 112.6313249  88.8233248 137.3055723 112.5119996  88.1196588
 136.5498155 113.5794093  88.8821200 133.4767019 112.5840677  88.7594772
 133.1385530 112.4681742  87.8715307 134.3456787 112.1831842  88.7395779
 129.3353835 114.4376153  84.7491663 128.7718700 114.3466090  83.9807951
 129.2206230 113.6176058  85.2294156 133.9586802 113.7375529  94.7180978
 133.9475443 113.3428327  93.8461482 134.1207441 113.0041601  95.3114749
 126.8818266 115.9327345  87.5875884 127.6739558 115.5918170  87.1722183
 127.1214917 116.0422320  88.5078037 134.9153393 118.1047121  80.0606128
 134.2641373 118.6901201  79.6740142 135.7097756 118.6353316  80.1201166
 128.8409020 115.1936258  80.4593263 129.6139896 114.6465245  80.3206138
 129.1934419 116.0580507  80.6707724 130.6794063 116.5212640  93.6660162
 130.3883929 117.4258271  93.5506828 131.3151047 116.5629168  94.3804232
 131.6050270 113.8989489  90.2561522 132.2013842 113.6745511  89.5418485
 131.6625241 113.1574234  90.8586969 131.1775298 111.3528924  78.0911713
 131.4300819 110.8310446  77.3295176 130.2399857 111.1895070  78.1938396
 136.2218581 110.3564703  85.8986456 137.0081670 109.9384126  85.5476873
 136.4857285 111.2610795  86.0668104 136.3928658 115.7937553  80.5975113
 135.7574491 115.8672179  81.3096017 136.0626065 116.3831152  79.9194192
 141.6227008 110.2939936  86.8019434 142.3552180 109.7239153  87.0357264
 140.8666364 109.9061536  87.2425940 130.8971587 113.2557030  80.2936088
 130.7807845 112.5801934  80.9617172 131.0073847 112.7689404  79.4768241
 133.2403128 112.7167177  83.9982777 132.8761335 112.1897798  84.7095698
 134.0970244 112.3265646  83.8249262 139.1452429 104.0061510  91.2614043
 138.8135753 104.8756921  91.0375258 138.5498042 103.6897794  91.9408073
 132.8808615 107.7457077  78.9944125 133.0483017 108.6137313  79.3614596
 132.6905784 107.9084359  78.0705415 135.6383948 116.2074056  90.6609956
 135.3384671 117.1099095  90.5525763 135.2935008 115.9406239  91.5131109
 129.0896430 112.6587853  86.6946660 128.1646926 112.5264067  86.9024352
 129.3380843 113.4382072  87.1916603 139.0381092 108.7256596  88.3407393
 138.1297969 108.6572005  88.0466154 138.9868688 109.2028541  89.1689218
 132.8597836 110.2014735  79.9790792 132.7397461 110.6471785  80.8176272
 132.1650424 110.5500052  79.4204330 126.4505241 112.3021126  87.5290449
 126.5797622 112.5555605  88.4429861 125.7702692 112.8948834  87.2095104
 130.6204728 122.9718376  83.6280923 130.5428758 123.9226201  83.7069404
 130.0166371 122.6264249  84.2855850 133.1121958 110.1446242  96.2842290
 132.3355292 110.7040162  96.2745155 133.7512521 110.6303025  96.8057160
 140.9042738 106.9273034  90.1185267 140.2617118 107.2205568  89.4725061
 140.3997667 106.8125955  90.9238464 138.5582902 110.6736208  80.8071126
 139.4700758 110.9063594  80.6318824 138.0492549 111.2573252  80.2446205
 131.3668330 112.9531695  95.8460257 132.1083014 113.4916739  95.5695081
 130.6605315 113.5797984  96.0031809 136.8423670 115.0960836  94.4432419
 137.2507026 114.6543246  93.6987051 136.1200931 114.5213463  94.6966612
 133.1954740 110.0333442  91.8165976 134.0415935 110.4572856  91.9600625
 133.1353377 109.3767067  92.5104539 137.1652484 115.6562026  88.1984708
 136.5361347 115.8207740  87.4960775 136.7778146 116.0703636  88.9695672
 141.0441716 116.5916464  85.5529071 140.3592754 116.9715365  85.0026105
 141.1285565 117.2011791  86.2861019 136.3454185 107.6937811  93.4747149
 136.1015117 108.4479871  92.9381425 136.6214115 108.0723158  94.3094396
 138.2992648 114.2376423  92.1524415 138.5109543 114.8808183  91.4758796
 138.2522396 113.4038740  91.6846345 135.9018877 106.8494244  89.0560987
 135.0403356 107.1475497  89.3477725 135.9281311 107.0664643  88.1242020
 132.7180446 115.3936434  85.4634793 133.1818792 115.6724137  84.6739415
 132.4537244 114.4919879  85.2807883 129.6104527 114.9407916  88.4014556
 130.1805884 115.3695184  87.7632040 130.2012639 114.6590500  89.0998742
 131.6549332 111.5159587  82.2724358 132.3573375 111.9680630  82.7398284
 131.3229961 110.8743405  82.9004251 130.1029694 110.1071343  96.6475567
 129.4728354 110.7887624  96.8810964 129.9965782 109.9954425  95.7028706
 125.3974666 109.7743139  87.5741491 124.6073720 110.0300668  87.0981602
 125.8885913 110.5891477  87.6793532 139.4138476 117.1148378  90.3246772
 140.2355919 116.7128566  90.0429454 139.4100879 117.0116613  91.2762888
 127.3489411 110.1387719  84.5324968 126.5520575 110.2506413  85.0508464
 127.1215004 110.4774371  83.6665859 133.1795079 116.6632422  92.4807483
 133.2439512 117.1252829  93.3165655 132.4706003 116.0329787  92.6089793
 123.6812369 110.0273630  90.0056482 123.9320408 110.9120640  90.2714058
 124.2171917 109.8478231  89.2331574 147.5044469 113.4587127  86.6731744
 146.7508177 112.8894525  86.5175748 147.6392010 113.4249791  87.6202378
 132.8943097 118.3300529  82.3486463 132.7588772 119.1752065  82.7771311
 133.4352909 118.5319807  81.5852397 129.3810436 104.4092109  99.0100818
 128.9877382 103.8558308  99.6848463 130.1976577 104.7202688  99.4007336
 126.3472494 115.8475967  82.9214388 126.8597015 116.6419218  83.0719953
 126.9995207 115.1502258  82.8547990 128.1567379 118.9641724  85.0037141
 128.3334007 119.8859688  84.8158125 128.9524212 118.6500143  85.4331521
 132.2978397 105.8249988  96.6021075 133.0388111 106.4257141  96.5225537
 132.5296320 105.0827626  96.0439117 127.4419735 111.0106355  94.8799305
 127.3273251 110.1091613  95.1806403 126.5864253 111.2570052  94.5284121
 134.5211573 118.9524096  96.4786805 134.0775427 118.1660474  96.1607710
 135.1828787 119.1403246  95.8130696 129.2798694 120.4819897  91.0047484
 129.8306119 120.3536961  90.2324478 128.4410170 120.7814786  90.6542376
 136.6192811 119.2326896  94.5068206 136.6011287 120.0535777  94.0148476
 137.5412731 119.1080971  94.7318348 133.0765865 116.7471025  95.3491715
 133.6094202 115.9859313  95.1191023 132.5479946 116.4544677  96.0915869
 136.2435560 101.8531091  90.8785357 135.8999830 102.7432733  90.8024467
 136.6114523 101.6632749  90.0154942 124.3121411 114.1764622  83.6973959
 125.1496633 114.5861630  83.4807666 124.4899679 113.2364064  83.6674153
 136.2085843 111.8439702  79.3857792 135.6932466 112.6144307  79.6246179
 135.9363152 111.1704838  80.0090853 133.7932954 106.6889403  84.4443030
 132.9374550 106.2996253  84.2648669 134.2059906 106.7681364  83.5842816
 135.3232101 104.2235746  88.8434590 134.8196896 104.1865881  88.0302395
 135.6162708 105.1328489  88.9031246 131.5674987 104.3074476  87.8500772
 132.4327983 104.1117285  87.4906661 131.6352496 104.0784828  88.7770128
 141.1820117 114.5972057  81.3210965 140.4049560 114.2583216  80.8766127
 141.8611598 114.6024680  80.6465930 135.9972146 109.7166794  81.2117573
 135.6922282 110.0312943  82.0627716 136.9502588 109.7948214  81.2544906
 134.4418578 115.8757018  82.8610527 133.9139940 115.1409777  82.5483764
 133.9406081 116.6531694  82.6150495 139.4211424 114.0706038  87.9777573
 138.7635099 114.7605300  88.0657702 140.2251823 114.4602470  88.3211559
 129.1737306 106.5376684  85.2217138 129.7481058 106.3151865  84.4890331
 129.7608288 106.6065378  85.9745740 138.2316883 112.4250411  86.0281515
 138.7448765 113.0580403  86.5303225 138.8818107 111.8251606  85.6624875
 129.5006893 108.5681145  79.2413024 128.6644205 108.9055831  79.5622298
 129.3611662 108.4330125  78.3040161 131.4759973 103.4117933  83.9492208
 130.8224386 103.0966950  83.3248823 131.4340448 102.7893673  84.6752031
 132.5871178 113.6937228  75.8645500 131.6798240 113.4626481  76.0636649
 133.0842210 112.8974847  76.0519481 135.4939257 122.4034735  78.7842186
 134.8200956 122.7066432  79.3927144 135.8805079 123.2063815  78.4347643
 134.7097714 109.8999866  88.2739855 133.7920275 110.1214813  88.1161543
 135.1257857 109.9746177  87.4151563 135.4932762 111.2991282  83.4042536
 136.2404580 111.8112679  83.0949658 135.7624351 110.9775335  84.2646929
 133.7659412 113.7949823  80.3869490 132.8570631 113.5108856  80.4841960
 133.7954496 114.2148901  79.5272797 138.9978679 117.4056412  84.1560658
 138.5441006 116.5647322  84.2125848 138.3672646 118.0417811  84.4935438
 137.9411599 108.3348398  85.3861325 137.2034355 107.8225784  85.7171568
 138.1938372 107.8948780  84.5744602 137.4411618 119.2432909  85.0910476
 137.7334593 119.8037966  84.3722841 137.9510239 119.5361470  85.8463635
 138.0423226 101.1124650  85.9803094 138.3482103 100.2522014  85.6929009
 138.7675831 101.7042270  85.7802088 132.3144306 111.4078443  86.4879285
 132.3692916 110.4552280  86.4121762 131.5035508 111.5637882  86.9720584
 133.4635500 115.3358566  77.7257569 133.0254929 114.6194425  77.2663206
 134.2045940 115.5634681  77.1642660 130.2536666 110.0255503  84.2469664
 129.4404531 110.3249674  84.6534856 130.7495660 109.6311192  84.9644146
 132.4045244 120.0213260  86.1803929 132.3621422 120.2474106  85.2512461
 133.3207942 119.7876635  86.3289730 135.8510877 110.4897328  93.0784558
 136.2060265 110.7168801  93.9379024 136.4983009 110.8215704  92.4561813
 141.5808614 113.6115763  83.7833887 141.4426513 113.8017359  82.8555076
 141.2244833 114.3735146  84.2401938 129.7450740 107.5973859  89.8630899
 130.3850120 107.4562618  89.1653862 128.9128271 107.3108372  89.4869501
 141.6077994 115.6792290  88.7945159 142.0414501 115.5867580  89.6428213
 142.3209575 115.6549791  88.1565175 130.5211044 116.8976289  85.9765892
 131.3151643 116.4026609  85.7748467 129.8102737 116.3694152  85.6133597
 135.3405889 119.2794385  90.3278259 135.3942911 119.8485321  91.0955975
 134.4720670 119.4496270  89.9632296 126.7479357 107.5674184  84.6403886
 127.0086174 108.4819517  84.5313046 127.5696529 107.0998626  84.7900499
 128.2204282 108.9811941  91.8102710 128.8927336 108.7729303  91.1615359
 127.3934069 108.7834027  91.3707943 142.4693543 115.7215991  91.3278044
 142.6629434 116.6261802  91.5737319 142.3694162 115.2623410  92.1616629
 134.1229854 105.6073882  93.8268371 133.4757769 106.3063831  93.7332848
 134.8930870 106.0410026  94.1944620 137.5308652 115.8722734  96.9018925
 137.3794159 115.6433286  95.9849008 137.5213332 116.8293335  96.9150270
 134.2993989 113.4454647  91.8865191 135.2286049 113.5965806  91.7134158
 133.8785019 113.5338667  91.0313838 133.0982320 117.4705311  89.6563729
 132.9593406 117.1024095  90.5289667 132.3096917 117.9852950  89.4847686
 133.6930472 122.5714407  80.9989265 133.8682228 122.1002451  81.8134888
 133.0063260 123.1980174  81.2270526 134.6487535 116.8486914  87.0452566
 134.3137368 116.8087684  87.9410216 134.1491481 116.1831630  86.5722977
 128.6231779 112.2554544  92.5705148 128.4851577 111.5234783  93.1716687
 129.5336703 112.1663444  92.2889335 137.5846727 114.1942948  77.3189626
 136.9675898 113.4689776  77.2222679 137.1163216 114.9552308  76.9756700
 131.2514080 111.9674503  92.0588827 131.9613699 111.3267695  92.0175446
 131.2083388 112.2187398  92.9815008 139.2400859 118.9041856  94.9795406
 139.1813405 118.2201077  94.3125990 139.6420377 119.6460846  94.5276032
 129.9643014 108.9539721  93.8784467 129.4280371 108.5030459  94.5306063
 129.3759723 109.0885630  93.1354931 128.2591558 125.7203770  87.7729125
 128.4988156 126.3522294  88.4508144 127.4160754 125.3691810  88.0594485
 129.3745273 108.4128372  76.4410930 128.4974739 108.2917173  76.0773177
 129.8503026 107.6214451  76.1889819 139.2418266 116.8681440  93.2109386
 138.3545045 116.5307362  93.3335785 139.8116817 116.1364472  93.4478152
 120.8947413 113.2005532  86.5352438 121.5818453 112.8867262  85.9473453
 120.7395542 114.1046897  86.2619689 125.6982135 108.0895729  90.9637461
 125.6140324 107.4821398  90.2287871 124.8764842 108.5804747  90.9646958
 132.7719419 121.5282893  90.1770629 132.6989591 122.3337864  90.6889934
 132.3296813 121.7274859  89.3518651 132.5609199 120.7654663  83.6873451
 131.7776721 121.3076343  83.7811675 133.2601944 121.2828642  84.0867692
 135.8705849 106.5749292  86.3307656 136.3674549 105.8219255  86.0108727
 135.0992831 106.6113609  85.7650866 143.7235607 112.2789658  87.9725948
 143.7125483 113.1614373  87.6019881 142.8552986 111.9261209  87.7780485
 135.2318103 121.4269727  92.3328788 135.9446075 122.0617192  92.2604689
 134.7408132 121.5233593  91.5168790 136.9535630 115.3320979  83.9046080
 136.0191909 115.4522442  83.7350784 137.1312298 114.4293446  83.6406090
 132.4540818 108.7166675  86.0579341 132.0838605 108.1637716  86.7460246
 132.9499910 108.1124809  85.5054341 140.3408181 111.1738299  84.4396114
 140.8068633 112.0066290  84.3656416 140.7915682 110.7083280  85.1441372
 130.2830016 119.1764170  93.1534359 130.9839476 119.8100653  93.3063753
 129.8125131 119.5178902  92.3929998 138.4084412 117.5182120  81.4382266
 138.6844256 117.4038715  82.3476140 137.5388911 117.1199605  81.3994439
 138.3124844 103.5418886  88.4787015 137.3987924 103.7723113  88.6469222
 138.7417945 103.6257330  89.3301048 138.0831302 111.7308778  90.9786909
 137.4302753 111.9784685  90.3239362 138.4611682 110.9172916  90.6449386
 135.0438476 121.7668471  85.0815079 135.2260871 120.9490127  85.5442832
 135.8671462 121.9836163  84.6439969 135.3780642 120.6936656  82.3430128
 135.9068408 120.1829111  81.7300290 135.6408861 120.3779186  83.2075661
 134.1318875 112.4728589  97.4652946 133.4559513 112.3722718  98.1355321
 134.9546509 112.3167802  97.9288943 125.8797735 118.7100525  90.0865462
 126.4651171 117.9644213  90.2193366 125.6822573 119.0204482  90.9702125
 128.7336390 121.7451773  85.1027904 128.0646765 122.2297900  84.6191944
 128.5949259 121.9920993  86.0171282 120.4715389 111.2806125  88.8069905
 120.5099489 110.7469716  89.6007023 119.9655682 110.7541331  88.1880882
 132.8741658 123.7795516  91.7010562 133.4259966 123.9427138  92.4659647
 133.2147852 124.3699954  91.0290587 127.8506152 106.1270666  92.3032447
 127.9147478 106.9885497  91.8909845 127.7873272 105.5144668  91.5704805
 127.3258424 108.1993799  95.9505481 127.9530463 107.8170876  96.5643006
 126.4686343 107.9808000  96.3161174 137.7252533 118.6056774  97.5559217
 138.2692437 119.2186732  97.0614171 137.1439378 119.1636352  98.0726230
 136.0110046 121.7277492  88.6874244 135.8861185 120.9267232  88.1785190
 136.6689137 122.2223685  88.1988214 127.6318214 108.0826224  87.8651385
 126.9104800 108.6962192  87.7258858 128.4211470 108.6183989  87.7868031
 138.0744954 119.5286512  90.3153795 137.1275290 119.4091863  90.2432121
 138.4227727 118.6409010  90.3980056 130.4344527 105.4180651  94.1392036
 130.9578929 105.6642947  94.9018346 130.2156861 106.2500685  93.7195174
 135.0791387 119.3239228  86.5158147 134.9316350 118.3955935  86.6965717
 135.9044881 119.3459319  86.0315222 128.9453632 107.9757295  82.3738639
 129.2849704 108.5043216  81.6517247 129.3925752 108.3137701  83.1497205
 138.6825509 120.1467787  87.6023020 139.6072057 119.9410648  87.4647471
 138.5140813 119.8984188  88.5112361 131.6397072 106.3594346  91.8241707
 131.2993893 105.5602159  92.2262387 130.9336079 106.6596057  91.2518540
 132.2913544 103.4443658  90.2769030 133.1139614 102.9704136  90.1547920
 132.5351608 104.2234142  90.7767716 130.9321779 106.4731917  80.5731932
 131.6530141 106.8513169  80.0695649 130.3087083 107.1920793  80.6766910
 135.0752902 107.1777066  81.5090264 135.2916516 108.0601704  81.2079092
 134.5946969 106.7863279  80.7795906 129.8152123 110.1362779  88.0861009
 129.6696704 110.4503082  88.9785290 129.3377327 110.7547679  87.5331907
 131.6748506 107.1265327  88.1341898 131.6610075 106.2306420  87.7974196
 132.3920934 107.1335991  88.7680184 133.5274637 107.5602667  90.1795026
 133.2692414 108.4819738  90.1779356 132.9959677 107.1633102  90.8695490
 138.4720825 120.6653454  82.9585111 138.6457703 120.0999877  82.2058963
 138.9649717 121.4654349  82.7764601 124.2897785 112.6768123  91.0248670
 123.7451253 113.4527931  91.1568944 125.1677135 113.0238928  90.8667791
 131.0785402 106.0079707  83.4029468 131.2001313 105.0796353  83.6020356
 130.7887444 106.0218393  82.4907784 133.9476592 103.6934618  86.5396188
 133.9698289 103.7573951  85.5848168 134.3644651 102.8539126  86.7336694
 144.3260217 113.4289877  84.5775411 144.7691363 112.6797202  84.1794534
 143.4486727 113.4200013  84.1949143 139.4595998 119.9820219  80.0582009
 140.1546902 120.6026911  80.2769324 139.8019148 119.1315570  80.3334387
 125.0763807 111.8038020  93.9178827 124.3345543 111.9520655  94.5043457
 124.7556551 112.0646285  93.0545576 141.3587421 117.4319924  81.5869340
 141.8838745 117.7707197  80.8618660 141.2709774 116.4966939  81.4032475
 133.0207470 121.3453998  93.7159217 133.3294596 121.1003145  94.5881916
 133.8182952 121.5500636  93.2278087 133.0428082 123.4991907  85.9464593
 132.6033072 123.0068286  86.6397450 133.7936199 122.9564875  85.7056668
 125.5220421 119.6903448  85.9489221 126.3478441 119.3907220  85.5687865
 125.1714473 118.9211071  86.3979010 130.4901954 119.0429916  88.0186895
 129.8681963 118.3800621  87.7189123 131.1606821 119.0691048  87.3360543
 123.7229026 117.6089775  86.9078155 122.8860934 117.1811949  86.7262156
 123.6952671 117.8022218  87.8448946 130.5626481 107.5211704  97.6119401
 130.6114637 108.3973827  97.2297170 131.1048996 106.9789098  97.0391044
 141.0481327 118.0652828  96.8920538 140.2576871 118.0476967  96.3525037
 140.8114682 118.6041121  97.6469575 141.1679202 114.9145294  94.2053266
 141.2177207 114.7495302  95.1468789 141.0593125 114.0472553  93.8151147
 130.0515461 117.5933840  81.4945355 130.2003581 118.2769304  80.8412028
 130.8581904 117.5738930  82.0094811 138.4582965 110.8976222  95.5212573
 139.3592827 110.7582687  95.2296571 138.5330939 111.0630677  96.4610751
 132.7925770 108.2743077  94.3665760 131.9229079 108.5676643  94.0948348
 133.0285250 108.8583522  95.0873023 142.6697399 117.3342236  94.4495288
 142.3782207 117.6972216  95.2858749 142.0569530 116.6209244  94.2708620
 143.8693081 114.8995115  86.9697858 144.7039973 115.3384919  87.1335419
 144.0052210 114.4233769  86.1506104 140.9184587 112.4574850  92.9175346
 141.3938709 112.6502497  92.1094197 139.9950153 112.5134036  92.6718730
 127.8068094 113.6199017  82.5006424 127.5614136 112.7161347  82.6986634
 127.9764008 113.6216168  81.5585902 135.4964804 104.4922694  91.8831180
 136.0146748 105.2283721  91.5577668 135.1419936 104.7986687  92.7177939
 135.7477398 100.9122976  87.4032077 136.0279152 100.2446165  88.0292503
 136.5328005 101.1052072  86.8906740 133.5510866 120.0881970  78.9657103
 132.9784833 120.7072157  78.5127575 134.1243660 120.6381332  79.4997025
 139.6186256 109.3340610  91.1503652 140.5703679 109.4338708  91.1715876
 139.4489707 108.5418879  91.6601736 137.6400636 106.4196194  91.3363053
 137.0450568 106.7001206  90.6409541 137.3550332 106.9090094  92.1079794
 136.7708126 120.3719120  80.0965685 137.7038799 120.3064682  80.2998561
 136.6831339 121.2075387  79.6380218 139.3996143 119.6884991  77.0569633
 139.3209774 119.3544854  77.9505391 140.2205810 120.1806759  77.0561105
 142.0974334 112.5546730  90.2645951 142.0650654 111.6162731  90.4505635
 142.7074958 112.6330767  89.5311776 133.9357665 111.4242783  76.3073155
 134.8816770 111.2948991  76.3761573 133.5571910 110.6857445  76.7842583
 142.2468822 109.3457773  90.3104234 141.7307871 108.5616230  90.1234163
 143.1308771 109.0176490  90.4750754 139.9079549 103.0898789  86.2700047
 139.7104370 102.7813877  87.1543379 140.5179255 103.8160428  86.3997977
 145.9966181 111.7570599  90.0026439 145.2699345 111.6226564  89.3942931
 145.5813468 112.0647428  90.8083157 133.8196357 115.4760529  97.7673812
 134.7399367 115.6539128  97.9613859 133.7845940 114.5316574  97.6153512
 132.1200582 109.3492759  76.2428041 131.2132037 109.0525872  76.3190754
 132.3976563 109.0522577  75.3762327 123.0378522 110.6699123  86.6927087
 122.7181307 109.8164431  86.4001461 122.4911951 110.8847701  87.4485054
 126.8158430 113.3861564  90.4096593 127.0344440 114.3178672  90.4284627
 127.2284204 113.0269538  91.1951397 133.7362648 103.8929649  82.3972282
 132.9263376 103.5476734  82.7727528 134.4247065 103.5837193  82.9859893
 135.6653196 102.9707696  84.0196578 136.2184235 103.3903149  84.6786602
 135.9023282 102.0443444  84.0619534 131.6886295 108.9594770  99.7999342
 131.5883022 109.9089127  99.7311433 131.4707837 108.6313008  98.9275412
 130.8899367 106.2079695  76.3840020 131.7518531 106.5334593  76.6435837
 131.0749711 105.4211191  75.8713086 122.9066782 114.2902034  88.6620209
 122.2130254 113.8755987  88.1490163 123.6539773 114.3322571  88.0653627
 139.0432003 105.0808221  83.5275243 138.4630672 105.7393025  83.1453295
 138.7767936 104.2585566  83.1162660 137.4935569 104.4813279  85.7296563
 137.9935348 104.5929813  84.9210882 138.1371177 104.1774332  86.3697372
 131.5517565 112.3891908  98.6164404 131.0684647 113.1892269  98.8228293
 131.6378504 112.3999853  97.6631848 124.8203525 114.2220288  86.5386223
 124.7974213 114.3207975  85.5868107 125.1304161 115.0685439  86.8603390
 127.4790903 116.2796443  90.6532838 128.4334156 116.2480385  90.5862769
 127.2803426 115.8187067  91.4683064 128.0690285 114.8497559  93.2203635
 128.8883174 115.3441638  93.2438473 128.3427093 113.9329527  93.1921203
 137.8256881 107.2408311  82.5831591 136.9382736 107.5257962  82.3651786
 138.2410870 107.0802075  81.7358868 141.1771417 107.2654832  86.2985930
 141.9531807 107.7551285  86.5710547 140.4519551 107.6912887  86.7557800
 143.6143976 107.9782452  87.3559871 144.2088467 107.7378188  86.6453179
 143.6870560 107.2589582  87.9833407 125.8341132 121.8216063  87.6703036
 125.6995599 121.0616463  87.1041034 125.4173194 122.5456962  87.2031825
 136.9700095 117.0052986  76.6779611 137.6735945 117.2102989  77.2937267
 136.2462743 117.5729748  76.9428695 137.7997905 112.7562847  82.7981881
 137.7433106 113.2131399  81.9589514 138.3526247 111.9953532  82.6204724
 141.6102711 108.5452579  83.6232001 141.3539645 108.1449215  84.4540208
 140.9855579 109.2596373  83.4982140 145.9215049 111.2848653  86.1303292
 145.3614607 111.3541842  86.9034854 145.3158552 111.1089637  85.4102788
 128.9910257 122.7185380  87.8821478 128.8742642 123.6630812  87.7800169
 128.1702704 122.4158941  88.2707278 138.8786792 117.4435515  78.7278071
 139.7132396 117.0116714  78.5455546 138.7171135 117.2717529  79.6554966
 138.5332684 113.9467629  80.0934410 138.4781488 113.7811900  79.1522854
 137.9078739 114.6543662  80.2496600 123.3225199 109.1835693  93.9195833
 123.9684063 108.6734647  94.4083058 123.1142350 109.9204375  94.4939258
 135.8478591 116.2516540  99.4187973 136.7169751 116.4257193  99.0574608
 135.3685343 117.0710957  99.2963702 131.8428810 103.4475738  79.6719729
 131.8307479 104.3917578  79.8288000 132.7352231 103.2645883  79.3779190
 130.0164772 123.3713642  91.0977407 130.9192018 123.4037252  91.4143902
 129.7902142 122.4414092  91.1123743 131.7718374 122.1244628  87.7587485
 130.8214005 122.1246490  87.6451858 132.0750860 121.3777363  87.2423520
 135.6580929 100.0418514  83.9265666 134.8913325  99.4877001  84.0722348
 136.0691634 100.1140383  84.7879817 127.6622690 106.3303310  98.0170847
 128.5254152 105.9740115  98.2274171 127.0888101 105.9917205  98.7046251
 144.3160773 127.9132595  88.7594772 143.9779285 127.7973659  87.8715307
 145.1850542 127.5123760  88.7395779 140.1747589 129.7668071  84.7491663
 139.6112454 129.6758008  83.9807951 140.0599984 128.9467975  85.2294156
 137.7212021 131.2619263  87.5875884 138.5133313 130.9210087  87.1722183
 137.9608671 131.3714238  88.5078037 139.6802775 130.5228176  80.4593263
 140.4533651 129.9757163  80.3206138 140.0328174 131.3872425  80.6707724
 142.4444024 129.2281407  90.2561522 143.0407597 129.0037429  89.5418485
 142.5018996 128.4866152  90.8586969 142.0169053 126.6820842  78.0911713
 142.2694573 126.1602363  77.3295176 141.0793612 126.5186987  78.1938396
 147.0612336 125.6856620  85.8986456 147.8475425 125.2676043  85.5476873
 147.3251040 126.5902712  86.0668104 141.7365341 128.5848948  80.2936088
 141.6201600 127.9093851  80.9617172 141.8467601 128.0981322  79.4768241
 144.0796882 128.0459095  83.9982777 143.7155090 127.5189716  84.7095698
 144.9363998 127.6557564  83.8249262 143.7202369 123.0748995  78.9944125
 143.8876772 123.9429231  79.3614596 143.5299538 123.2376276  78.0705415
 139.9290184 127.9879770  86.6946660 139.0040681 127.8555985  86.9024352
 140.1774597 128.7673990  87.1916603 143.6991590 125.5306652  79.9790792
 143.5791215 125.9763703  80.8176272 143.0044179 125.8791970  79.4204330
 137.2898995 127.6313044  87.5290449 137.4191376 127.8847523  88.4429861
 136.6096446 128.2240752  87.2095104 143.9515712 125.4738159  96.2842290
 143.1749046 126.0332080  96.2745155 144.5906275 125.9594942  96.8057160
 142.2062084 128.2823613  95.8460257 142.9476769 128.8208657  95.5695081
 141.4999070 128.9089901  96.0031809 144.0348494 125.3625360  91.8165976
 144.8809689 125.7864774  91.9600625 143.9747132 124.7058984  92.5104539
 147.1847939 123.0229728  93.4747149 146.9408871 123.7771789  92.9381425
 147.4607870 123.4015076  94.3094396 146.7412631 122.1786161  89.0560987
 145.8797110 122.4767415  89.3477725 146.7675066 122.3956560  88.1242020
 140.4498282 130.2699833  88.4014556 141.0199639 130.6987102  87.7632040
 141.0406394 129.9882418  89.0998742 142.4943087 126.8451504  82.2724358
 143.1967130 127.2972548  82.7398284 142.1623715 126.2035323  82.9004251
 140.9423448 125.4363261  96.6475567 140.3122109 126.1179542  96.8810964
 140.8359536 125.3246343  95.7028706 136.2368421 125.1035057  87.5741491
 135.4467475 125.3592585  87.0981602 136.7279668 125.9183395  87.6793532
 138.1883166 125.4679636  84.5324968 137.3914329 125.5798330  85.0508464
 137.9608758 125.8066288  83.6665859 134.5206124 125.3565547  90.0056482
 134.7714162 126.2412557  90.2714058 135.0565672 125.1770149  89.2331574
 140.2204191 119.7384027  99.0100818 139.8271136 119.1850225  99.6848463
 141.0370331 120.0494605  99.4007336 137.1866249 131.1767885  82.9214388
 137.6990769 131.9711135  83.0719953 137.8388961 130.4794175  82.8547990
 143.1372152 121.1541906  96.6021075 143.8781865 121.7549059  96.5225537
 143.3690075 120.4119544  96.0439117 138.2813490 126.3398273  94.8799305
 138.1667005 125.4383530  95.1806403 137.4258008 126.5861970  94.5284121
 147.0829315 117.1823009  90.8785357 146.7393584 118.0724650  90.8024467
 147.4508277 116.9924666  90.0154942 135.1515165 129.5056539  83.6973959
 135.9890387 129.9153548  83.4807666 135.3293433 128.5655981  83.6674153
 144.6326709 122.0181321  84.4443030 143.7768305 121.6288171  84.2648669
 145.0453660 122.0973281  83.5842816 146.1625855 119.5527664  88.8434590
 145.6590651 119.5157799  88.0302395 146.4556462 120.4620407  88.9031246
 142.4068741 119.6366394  87.8500772 143.2721738 119.4409202  87.4906661
 142.4746250 119.4076745  88.7770128 146.8365901 125.0458712  81.2117573
 146.5316036 125.3604861  82.0627716 147.7896343 125.1240132  81.2544906
 140.0131060 121.8668602  85.2217138 140.5874812 121.6443783  84.4890331
 140.6002043 121.9357296  85.9745740 140.3400647 123.8973063  79.2413024
 139.5037960 124.2347749  79.5622298 140.2005417 123.7622042  78.3040161
 142.3153728 118.7409850  83.9492208 141.6618140 118.4258868  83.3248823
 142.2734202 118.1185591  84.6752031 143.4264933 129.0229146  75.8645500
 142.5191994 128.7918399  76.0636649 143.9235965 128.2266765  76.0519481
 145.5491468 125.2291784  88.2739855 144.6314030 125.4506731  88.1161543
 145.9651612 125.3038094  87.4151563 135.1741337 126.8447255  84.3684692
 134.9765736 126.2516615  83.6435759 134.6188001 126.5399465  85.0860631
 143.1538060 126.7370361  86.4879285 143.2086670 125.7844197  86.4121762
 142.3429262 126.8929800  86.9720584 141.0930420 125.3547421  84.2469664
 140.2798286 125.6541591  84.6534856 141.5889414 124.9603110  84.9644146
 146.6904632 125.8189245  93.0784558 147.0454020 126.0460718  93.9379024
 147.3376763 126.1507622  92.4561813 140.5844495 122.9265776  89.8630899
 141.2243874 122.7854535  89.1653862 139.7522025 122.6400290  89.4869501
 137.6687562 126.3711288  82.0525644 136.7385150 126.3095744  82.2695606
 137.7645034 125.8487241  81.2562286 137.5873111 122.8966101  84.6403886
 137.8479929 123.8111435  84.5313046 138.4090284 122.4290544  84.7900499
 139.0598037 124.3103858  91.8102710 139.7321090 124.1021221  91.1615359
 138.2327823 124.1125944  91.3707943 144.9623609 120.9365799  93.8268371
 144.3151524 121.6355749  93.7332848 145.7324624 121.3701943  94.1944620
 139.4625534 127.5846461  92.5705148 139.3245332 126.8526700  93.1716687
 140.3730457 127.4955362  92.2889335 142.0907835 127.2966421  92.0588827
 142.8007453 126.6559613  92.0175446 142.0477143 127.5479316  92.9815008
 140.8036769 124.2831639  93.8784467 140.2674126 123.8322377  94.5306063
 140.2153477 124.4177547  93.1354931 140.2139028 123.7420290  76.4410930
 139.3368494 123.6209091  76.0773177 140.6896781 122.9506368  76.1889819
 131.7341168 128.5297450  86.5352438 132.4212207 128.2159180  85.9473453
 131.5789296 129.4338814  86.2619689 136.5375890 123.4187646  90.9637461
 136.4534079 122.8113316  90.2287871 135.7158596 123.9096665  90.9646958
 146.7099604 121.9041210  86.3307656 147.2068303 121.1511172  86.0108727
 145.9386585 121.9405527  85.7650866 143.2934572 124.0458593  86.0579341
 142.9232360 123.4929633  86.7460246 143.7893665 123.4416726  85.5054341
 144.9712630 127.8020506  97.4652946 144.2953267 127.7014636  98.1355321
 145.7940264 127.6459720  97.9288943 136.7191489 134.0392443  90.0865462
 137.3044926 133.2936131  90.2193366 136.5216328 134.3496400  90.9702125
 131.3109144 126.6098043  88.8069905 131.3493243 126.0761634  89.6007023
 130.8049437 126.0833249  88.1880882 138.6899906 121.4562584  92.3032447
 138.7541233 122.3177415  91.8909845 138.6267026 120.8436585  91.5704805
 138.1652179 123.5285716  95.9505481 138.7924217 123.1462793  96.5643006
 137.3080097 123.3099918  96.3161174 134.9417721 125.3362145  81.8823836
 135.2371162 124.4272824  81.8290890 134.0405757 125.3149885  81.5604838
 138.4711968 123.4118142  87.8651385 137.7498554 124.0254110  87.7258858
 139.2605224 123.9475907  87.7868031 141.2738282 120.7472568  94.1392036
 141.7972684 120.9934865  94.9018346 141.0550615 121.5792603  93.7195174
 136.6705563 123.0176243  82.0063161 136.3418269 122.1373622  81.8238267
 137.0244934 122.9623912  82.8939550 139.7847386 123.3049213  82.3738639
 140.1243459 123.8335134  81.6517247 140.2319507 123.6429619  83.1497205
 142.4790827 121.6886263  91.8241707 142.1387647 120.8894077  92.2262387
 141.7729833 121.9887974  91.2518540 143.1307299 118.7735576  90.2769030
 143.9533368 118.2996054  90.1547920 143.3745362 119.5526060  90.7767716
 141.7715533 121.8023834  80.5731932 142.4923896 122.1805087  80.0695649
 141.1480837 122.5212711  80.6766910 145.9146656 122.5068983  81.5090264
 146.1310271 123.3893621  81.2079092 145.4340723 122.1155197  80.7795906
 140.6545878 125.4654697  88.0861009 140.5090458 125.7795000  88.9785290
 140.1771081 126.0839597  87.5331907 142.5142260 122.4557245  88.1341898
 142.5003829 121.5598338  87.7974196 143.2314689 122.4627908  88.7680184
 144.3668391 122.8894585  90.1795026 144.1086169 123.8111655  90.1779356
 143.8353431 122.4925019  90.8695490 135.1291540 128.0060041  91.0248670
 134.5845008 128.7819849  91.1568944 136.0070890 128.3530845  90.8667791
 141.9179156 121.3371625  83.4029468 142.0395068 120.4088271  83.6020356
 141.6281199 121.3510311  82.4907784 144.7870347 119.0226535  86.5396188
 144.8092044 119.0865868  85.5848168 145.2038406 118.1831044  86.7336694
 135.9157562 127.1329937  93.9178827 135.1739298 127.2812573  94.5043457
 135.5950306 127.3938203  93.0545576 134.5622780 132.9381692  86.9078155
 133.7254689 132.5103867  86.7262156 134.5346426 133.1314136  87.8448946
 141.4020236 122.8503622  97.6119401 141.4508391 123.7265745  97.2297170
 141.9442750 122.3081015  97.0391044 143.6319524 123.6034995  94.3665760
 142.7622834 123.8968561  94.0948348 143.8679005 124.1875440  95.0873023
 138.6461848 128.9490935  82.5006424 138.4007890 128.0453265  82.6986634
 138.8157763 128.9508086  81.5585902 146.3358558 119.8214611  91.8831180
 146.8540502 120.5575638  91.5577668 145.9813691 120.1278605  92.7177939
 137.9157496 124.6819293  79.9992586 137.2226741 124.7563648  79.3432622
 137.6709248 123.9179636  80.5214103 146.5871152 116.2414894  87.4032077
 146.8672906 115.5738083  88.0292503 147.3721759 116.4343990  86.8906740
 144.7751419 126.7534701  76.3073155 145.7210524 126.6240909  76.3761573
 144.3965664 126.0149363  76.7842583 142.9594336 124.6784677  76.2428041
 142.0525792 124.3817790  76.3190754 143.2370317 124.3814495  75.3762327
 133.8772277 125.9991040  86.6927087 133.5575061 125.1456349  86.4001461
 133.3305705 126.2139619  87.4485054 137.6552184 128.7153481  90.4096593
 137.8738194 129.6470589  90.4284627 138.0677958 128.3561456  91.1951397
 144.5756402 119.2221567  82.3972282 143.7657131 118.8768652  82.7727528
 145.2640819 118.9129111  82.9859893 146.5046950 118.2999614  84.0196578
 147.0577989 118.7195067  84.6786602 146.7417037 117.3735362  84.0619534
 142.5280050 124.2886687  99.7999342 142.4276777 125.2381044  99.7311433
 142.3101592 123.9604926  98.9275412 141.7293121 121.5371612  76.3840020
 142.5912285 121.8626511  76.6435837 141.9143465 120.7503108  75.8713086
 133.7460537 129.6193952  88.6620209 133.0524008 129.2047905  88.1490163
 134.4933528 129.6614488  88.0653627 142.3911320 127.7183826  98.6164404
 141.9078401 128.5184186  98.8228293 142.4772259 127.7291771  97.6631848
 135.6597279 129.5512206  86.5386223 135.6367967 129.6499893  85.5868107
 135.9697916 130.3977357  86.8603390 138.3184657 131.6088361  90.6532838
 139.2727911 131.5772303  90.5862769 138.1197181 131.1478985  91.4683064
 138.9084039 130.1789477  93.2203635 139.7276928 130.6733555  93.2438473
 139.1820847 129.2621445  93.1921203 134.1618954 124.5127611  93.9195833
 134.8077817 124.0026565  94.4083058 133.9536105 125.2496292  94.4939258
 142.6822564 118.7767655  79.6719729 142.6701234 119.7209495  79.8288000
 143.5745986 118.5937801  79.3779190 146.4974684 115.3710432  83.9265666
 145.7307079 114.8168919  84.0722348 146.9085389 115.4432301  84.7879817
 138.5016445 121.6595228  98.0170847 139.3647906 121.3032033  98.2274171
 137.9281855 121.3209123  98.7046251  54.7448448  -7.3262925  70.3526230
  54.6672477  -6.3755100  70.4314711  54.1410091  -7.6717052  71.0101156
  53.4042414  -9.8161404  77.7292790  53.9549839  -9.9444340  76.9569784
  52.5653890  -9.5166515  77.3787683  59.6182977  -7.8946566  65.5087493
  58.9444676  -7.5914869  66.1172450  60.0048799  -7.0917486  65.1592950
  57.8174192  -7.7266894  67.7234572  57.9925948  -8.1978850  68.5380195
  57.1306980  -7.1001127  67.9515833  52.3835277  -4.5777531  74.4974432
  52.6231876  -3.9459007  75.1753451  51.5404474  -4.9289491  74.7839791
  56.8963139  -8.7698408  76.9015936  56.8233311  -7.9643437  77.4135241
  56.4540532  -8.5706443  76.0763957  56.6852919  -9.5326638  70.4118758
  55.9020441  -8.9904958  70.5056982  57.3845664  -9.0152659  70.8112999
  59.3561823  -8.8711574  79.0574095  60.0689795  -8.2364110  78.9849996
  58.8651851  -8.7747708  78.2414096  52.8580110  -8.5529529  71.8273211
  52.1890485  -8.0683401  71.3437251  52.7192979  -8.3060308  72.7416589
  56.9985378  -6.5185785  78.4255869  57.5503686  -6.3554163  79.1904954
  57.3391572  -5.9281347  77.7535894  57.1451190  -8.9527303  80.4404523
  57.4538316  -9.1978157  81.3127223  57.9426672  -8.7480665  79.9523394
  57.1671802  -6.7989394  72.6709900  56.7276792  -7.2913015  73.3642757
  57.9179919  -7.3416426  72.4301975  49.6464141 -10.6077853  72.6734528
  50.4722160 -10.9074081  72.2933171  49.2958193 -11.3770230  73.1224317
  49.9584851  -8.4765239  74.3948342  49.8239319  -9.2364838  73.8286340
  49.5416914  -7.7524339  73.9277131  53.1153977  -7.5795922  74.6066785
  52.9986361  -6.6350489  74.5045475  52.2946424  -7.8822360  74.9952584
  54.1408491  -6.9267660  77.8222713  55.0435738  -6.8944049  78.1389208
  53.9145861  -7.8567209  77.8369049  55.8962093  -8.1736673  74.4832792
  54.9457724  -8.1734811  74.3697164  56.1994580  -8.9203939  73.9668827
  71.6314787  -2.3376135  75.5478554  72.2693197  -2.4569387  74.8441894
  71.5135630  -1.3895291  75.6066507  68.4404493  -2.3848707  75.4840079
  68.1023005  -2.5007642  74.5960614  69.3094261  -2.7857542  75.4641085
  64.2991309  -0.5313230  71.4736970  63.7356174  -0.6223293  70.7053258
  64.1843704  -1.3513326  71.9539463  68.9224276  -1.2313855  81.4426285
  68.9112917  -1.6261057  80.5706788  69.0844916  -1.9647782  82.0360056
  61.8455741   0.9637961  74.3121191  62.6377033   0.6228786  73.8967490
  62.0852391   1.0732936  75.2323344  69.8790868   3.1357738  66.7851435
  69.2278847   3.7211818  66.3985449  70.6735230   3.6663932  66.8446472
  63.8046495   0.2246875  67.1838569  64.5777371  -0.3224138  67.0451445
  64.1571894   1.0891124  67.3953031  65.6431537   1.5523257  80.3905469
  65.3521403   2.4568888  80.2752135  66.2788522   1.5939785  81.1049538
  66.5687744  -1.0699895  76.9806828  67.1651316  -1.2943872  76.2663791
  66.6262716  -1.8115149  77.5832276  66.1412773  -3.6160459  64.8157019
  66.3938293  -4.1378938  64.0540482  65.2037332  -3.7794314  64.9183703
  71.3566133   0.8248169  67.3220419  70.7211966   0.8982796  68.0341324
  71.0263539   1.4141768  66.6439499  65.8609061  -1.7132353  67.0181394
  65.7445319  -2.3887450  67.6862479  65.9711321  -2.1999979  66.2013547
  68.2040602  -2.2522206  70.7228083  67.8398809  -2.7791585  71.4341005
  69.0607718  -2.6423737  70.5494569  70.6021422   1.2384672  77.3855262
  70.3022145   2.1409711  77.2771070  70.2572482   0.9716856  78.2376415
  64.0533904  -2.3101531  73.4191967  63.1284400  -2.4425317  73.6269659
  64.3018317  -1.5307311  73.9161909  67.8235310  -4.7674649  66.7036099
  67.7034935  -4.3217598  67.5421579  67.1287898  -4.4189331  66.1449637
  61.4142715  -2.6668257  74.2535756  61.5435096  -2.4133778  75.1675168
  60.7340166  -2.0740549  73.9340411  65.5842202   8.0028993  70.3526230
  65.5066232   8.9536818  70.4314711  64.9803846   7.6574865  71.0101156
  68.0759432  -4.8243142  83.0087597  67.2992766  -4.2649222  82.9990462
  68.7149995  -4.3386359  83.5302467  66.3305804  -2.0157688  82.5705564
  67.0720489  -1.4772644  82.2940388  65.6242790  -1.3891400  82.7277116
  71.8061144   0.1271452  81.1677725  72.2144500  -0.3146137  80.4232358
  71.0838405  -0.4475920  81.4211918  68.1592214  -4.9355941  78.5411282
  69.0053409  -4.5116528  78.6845931  68.0990852  -5.5922317  79.2349845
  72.1289959   0.6872643  74.9230014  71.4998821   0.8518357  74.2206082
  71.7415621   1.1014252  75.6940978  76.0079190   1.6227081  72.2774378
  75.3230229   2.0025982  71.7271411  76.0923040   2.2322407  73.0106326
  73.2630122  -0.7312960  78.8769722  73.4747017  -0.0881201  78.2004103
  73.2159870  -1.5650644  78.4091652  67.6817920   0.4247051  72.1880099
  68.1456266   0.7034754  71.3984722  67.4174719  -0.4769505  72.0053190
  64.5742001  -0.0281468  75.1259863  65.1443359   0.4005801  74.4877347
  65.1650113  -0.3098883  75.8244048  66.6186806  -3.4529797  68.9969665
  67.3210850  -3.0008753  69.4643591  66.2867435  -4.0945978  69.6249558
  65.0667168  -4.8618040  83.3720874  64.4365829  -4.1801759  83.6056271
  64.9603256  -4.9734959  82.4274012  60.3612140  -5.1946244  74.2986798
  59.5711194  -4.9388716  73.8226909  60.8523388  -4.3797906  74.4038839
  74.3775950   2.1458995  77.0492079  75.1993394   1.7439182  76.7674761
  74.3738353   2.0427229  78.0008195  62.3126886  -4.8301665  71.2570275
  61.5158049  -4.7182971  71.7753770  62.0852478  -4.4915013  70.3911165
  68.1432553   1.6943038  79.2052789  68.2076986   2.1563446  80.0410961
  67.4343477   1.0640403  79.3335099  58.6449843  -4.9415754  76.7301789
  58.8957882  -4.0568744  76.9959365  59.1809392  -5.1211152  75.9576881
  67.8580571   3.3611146  69.0731770  67.7226246   4.2062681  69.5016618
  68.3990384   3.5630423  68.3097704  61.3109968   0.8786584  69.6459695
  61.8234489   1.6729834  69.7965260  61.9632681   0.1812874  69.5793296
  63.1204853   3.9952340  71.7282448  63.2971482   4.9170305  71.5403432
  63.9161687   3.6810759  72.1576828  62.4057210  -3.9583028  81.6044611
  62.2910725  -4.8597771  81.9051710  61.5501727  -3.7119331  81.2529428
  69.4849047   3.9834712  83.2032112  69.0412902   3.1971091  82.8853016
  70.1466261   4.1713863  82.5376003  64.2436169   5.5130514  77.7292790
  64.7943594   5.3847577  76.9569784  63.4047645   5.8125403  77.3787683
  71.5830286   4.2637512  81.2313513  71.5648761   5.0846393  80.7393782
  72.5050206   4.1391587  81.4563654  68.0403340   1.7781642  82.0737021
  68.5731676   1.0169930  81.8436329  67.5117421   1.4855293  82.8161176
  59.2758885  -0.7924762  70.4219265  60.1134107  -0.3827754  70.2052973
  59.4537153  -1.7325320  70.3919459  71.1723317  -3.1249681  66.1103098
  70.6569941  -2.3545077  66.3491486  70.9000626  -3.7984545  66.7336160
  76.1457592  -0.3717327  68.0456272  75.3687034  -0.7106167  67.6011434
  76.8249072  -0.3664703  67.3711237  69.4056052   0.9067634  69.5855833
  68.8777414   0.1720394  69.2729071  68.9043555   1.6842311  69.3395802
  74.3848898  -0.8983345  74.7022880  73.7272573  -0.2084084  74.7903008
  75.1889298  -0.5086913  75.0456866  73.1954357  -2.5438973  72.7526822
  73.7086239  -1.9108981  73.2548531  73.8455581  -3.1437777  72.3870182
  64.4644367  -6.4008239  65.9658330  63.6281679  -6.0633552  66.2867605
  64.3249137  -6.5359259  65.0285467  67.5508653  -1.2752156  62.5890806
  66.6435714  -1.5062902  62.7881955  68.0479685  -2.0714536  62.7764788
  70.4576731   7.4345352  65.5087493  69.7838430   7.7377048  66.1172450
  70.8442553   8.2374432  65.1592950  69.6735188  -5.0689517  74.9985162
  68.7557749  -4.8474570  74.8406850  70.0895332  -4.9943207  74.1396869
  70.4570236  -3.6698101  70.1287842  71.2042055  -3.1576704  69.8194964
  70.7261825  -3.9914049  70.9892236  68.7296886  -1.1739561  67.1114797
  67.8208105  -1.4580528  67.2087266  68.7591970  -0.7540482  66.2518103
  73.9616153   2.4367029  70.8805964  73.5078481   1.5957939  70.9371155
  73.3310120   3.0728427  71.2180744  72.4049093   4.2743525  71.8155782
  72.6972067   4.8348583  71.0968148  72.9147713   4.5672086  72.5708941
  59.2985056  -3.4534047  71.0929999  59.1009456  -4.0464686  70.3681065
  58.7431720  -3.7581836  71.8105938  67.2781780  -3.5610940  73.2124592
  67.3330390  -4.5137104  73.1367069  66.4672982  -3.4051501  73.6965890
  68.4272974   0.3669183  64.4502875  67.9892404  -0.3494958  63.9908513
  69.1683415   0.5945298  63.8887967  65.2174140  -4.9433880  70.9714971
  64.4042006  -4.6439710  71.3780163  65.7133134  -5.3378192  71.6889453
  67.3682718   5.0523877  72.9049235  67.3258897   5.2784723  71.9757768
  68.2845417   4.8187251  73.0535037  70.8148352  -4.4792056  79.8029865
  71.1697739  -4.2520583  80.6624330  71.4620483  -4.1473679  79.1807120
  76.5446089  -1.3573620  70.5079194  76.4063987  -1.1672024  69.5800383
  76.1882307  -0.5954237  70.9647245  76.5715468   0.7102907  75.5190465
  77.0051975   0.6178196  76.3673519  77.2847049   0.6860407  74.8810481
  65.4848519   1.9286906  72.7011198  66.2789117   1.4337226  72.4993773
  64.7740211   1.4004769  72.3378904  70.3043363   4.3105001  77.0523566
  70.3580385   4.8795937  77.8201282  69.4358144   4.4806886  76.6877603
  61.7931282  -3.9270013  68.7770951  60.8628870  -3.9885557  68.9940913
  61.8888754  -4.4494060  67.9807592  61.7116831  -7.4015200  71.3649193
  61.9723648  -6.4869867  71.2558353  62.5334003  -7.8690757  71.5145805
  63.1841756  -5.9877443  78.5348017  63.8564810  -6.1960081  77.8860666
  62.3571543  -6.1855357  78.0953249  77.4331018   0.7526608  78.0523351
  77.6266908   1.6572418  78.2982626  77.3331636   0.2934027  78.8861936
  72.4946126   0.9033350  83.6264231  72.3431633   0.6743902  82.7094315
  72.4850806   1.8603952  83.6395576  69.2631463  -1.5234737  78.6110498
  70.1923523  -1.3723577  78.4379465  68.8422493  -1.4350716  77.7559144
  68.0619795   2.5015928  76.3809035  67.9230880   2.1334712  77.2534973
  67.2734391   3.0163567  76.2092993  68.6567947   7.6025024  67.7234572
  68.8319702   7.1313067  68.5380195  67.9700735   8.2290790  67.9515833
  69.6125010   1.8797530  73.7697873  69.2774842   1.8398300  74.6655523
  69.1128955   1.2142246  73.2968283  63.5869254  -2.7134840  79.2950454
  63.4489052  -3.4454601  79.8961993  64.4974177  -2.8025940  79.0134642
  72.5484201  -0.7746435  64.0434933  71.9313372  -1.4999607  63.9467985
  72.0800690  -0.0137075  63.7002007  66.2151554  -3.0014880  78.7834134
  66.9251173  -3.6421688  78.7420752  66.1720863  -2.7501986  79.7060315
  74.2038333   3.9352473  81.7040713  74.1450879   3.2511693  81.0371296
  74.6057851   4.6771463  81.2521339  64.9280488  -6.0149663  80.6029773
  64.3917845  -6.4658924  81.2551370  64.3397197  -5.8803754  79.8600238
  63.2229032  10.7514387  74.4974432  63.4625630  11.3832911  75.1753451
  62.3798228  10.4002427  74.7839791  74.2055740   1.8992057  79.9354693
  73.3182519   1.5617979  80.0581092  74.7754291   1.1675088  80.1723458
  55.8584887  -1.7683851  73.2597744  56.5455927  -2.0822121  72.6718759
  55.7033016  -0.8642487  72.9864996  60.6619610  -6.8793655  77.6882768
  60.5777798  -7.4867985  76.9533178  59.8402316  -6.3884636  77.6892264
  67.7356894   6.5593509  76.9015936  67.6627065   7.3648481  77.4135241
  67.2934287   6.7585475  76.0763957  67.5246673   5.7965279  70.4118758
  66.7414195   6.3386959  70.5056982  68.2239419   6.3139259  70.8112999
  70.1955577   6.4580343  79.0574095  70.9083549   7.0927808  78.9849996
  69.7045606   6.5544209  78.2414096  71.9173104   0.3631596  70.6291386
  70.9829383   0.4833058  70.4596091  72.0949773  -0.5395937  70.3651396
  65.2467491   4.2074787  79.8779665  65.9476950   4.8411270  80.0309060
  64.7762606   4.5489518  79.1175305  73.3721887   2.5492737  68.1627573
  73.6481731   2.4349331  69.0721447  72.5026385   2.1510221  68.1239746
  70.0075951   6.7979087  71.8060386  70.1898345   5.9800743  72.2688138
  70.8308937   7.0146780  71.3685276  70.3418116   5.7247272  69.0675435
  70.8705883   5.2139727  68.4545597  70.6046336   5.4089803  69.9320968
  69.0956350  -2.4960795  84.1898253  68.4196987  -2.5966665  84.8600628
  69.9183984  -2.6521581  84.6534250  60.8435209   3.7411142  76.8110768
  61.4288646   2.9954830  76.9438672  60.6460047   4.0515098  77.6947432
  63.6973864   6.7762389  71.8273211  63.0284239   7.2608517  71.3437251
  63.5586734   7.0231610  72.7416589  55.4352864  -3.6883258  75.5315211
  55.4736963  -4.2219667  76.3252329  54.9293156  -4.2148052  74.9126188
  67.8379133   8.8106133  78.4255869  68.3897441   8.9737754  79.1904954
  68.1785326   9.4010571  77.7535894  62.2895898  -6.7695585  82.6750788
  62.9167937  -7.1518508  83.2888312  61.4323817  -6.9881383  83.0406480
  72.6890007   3.6367390  84.2804523  73.2329911   4.2497348  83.7859478
  72.1076852   4.1946969  84.7971536  59.0661441  -4.9619156  68.6069143
  59.3614882  -5.8708477  68.5536196  58.1649477  -4.9831416  68.2850145
  70.9747520   6.7588108  75.4119551  70.8498659   5.9577848  74.9030497
  71.6326611   7.2534302  74.9233521  62.5955688  -6.8863159  74.5896691
  61.8742274  -6.2727192  74.4504165  63.3848944  -6.3505394  74.5113337
  73.0382428   4.5597128  77.0399101  72.0912764   4.4402479  76.9677428
  73.3865201   3.6719626  77.1225363  60.7949283  -7.2805058  68.7308468
  60.4661989  -8.1607679  68.5483574  61.1488653  -7.3357389  69.6184857
  70.0428862   4.3549845  73.2403453  69.8953824   3.4266552  73.4211023
  70.8682355   4.3769935  72.7560529  63.9091106  -6.9932088  69.0983946
  64.2487178  -6.4646167  68.3762554  64.3563226  -6.6551682  69.8742512
  73.6462983   5.1778403  74.3268326  74.5709531   4.9721265  74.1892777
  73.4778287   4.9294804  75.2357668  64.7789597  -4.8326605  74.8106315
  64.6334178  -4.5186302  75.7030597  64.3014801  -4.2141704  74.2577214
  73.4358300   5.6964071  69.6830418  73.6095177   5.1310493  68.9304270
  73.9287191   6.4964966  69.5009908  59.2535259  -2.2921260  77.7493976
  58.7088728  -1.5161452  77.8814251  60.1314609  -1.9450456  77.5913098
  74.4233472   5.0130835  66.7827316  75.1184377   5.6337528  67.0014631
  74.7656622   4.1626186  67.0579694  60.0401281  -3.1651364  80.6424133
  59.2983017  -3.0168729  81.2288764  59.7194026  -2.9043098  79.7790883
  76.3224895   2.4630541  68.3114647  76.8476219   2.8017813  67.5863967
  76.2347248   1.5277556  68.1277781  67.9844944   6.3764614  80.4404523
  68.2932070   6.1313761  81.3127223  68.7820426   6.5811253  79.9523394
  68.0065556   8.5302524  72.6709900  67.5670546   8.0378903  73.3642757
  68.7573673   7.9875492  72.4301975  60.4857895   4.7214065  72.6734528
  61.3115915   4.4217837  72.2933171  60.1351947   3.9521687  73.1224317
  65.4539428   4.0740533  74.7432202  64.8319437   3.4111238  74.4434429
  66.1244295   4.1001665  74.0605849  58.6866500   2.6400391  73.6323461
  57.8498408   2.2122566  73.4507463  58.6590146   2.8332835  74.5694253
  76.0118801   3.0963444  83.6165845  75.2214345   3.0787583  83.0770344
  75.7752156   3.6351738  84.3714881  76.1316676  -0.0544089  80.9298573
  76.1814681  -0.2194082  81.8714096  76.0230600  -0.9216830  80.5396454
  65.0152935   2.6244456  68.2190662  65.1641055   3.3079921  67.5657335
  65.8219379   2.6049546  68.7340118  77.6334873   2.3652852  81.1740595
  77.3419682   2.7282833  82.0104056  77.0207005   1.6519860  80.9953927
  78.8330556  -0.0694268  73.6943165  79.6677447   0.3695536  73.8580725
  78.9689684  -0.5455615  72.8751411  75.8822061  -2.5114533  79.6420653
  76.3576183  -2.3186887  78.8339504  74.9587627  -2.4555347  79.3964036
  62.7705568  -1.3490366  69.2251731  62.5251610  -2.2528036  69.4231941
  62.9401483  -1.3473216  68.2831209  62.0401216  -5.6162008  66.7237892
  61.3470461  -5.5417653  66.0677928  61.7952968  -6.3801665  67.2459409
  68.5148341   5.1192587  65.6902409  67.9422308   5.7382774  65.2372881
  69.0881134   5.6691948  66.2242331  71.7345600   5.4029737  66.8210992
  72.6676274   5.3375299  67.0243867  71.6468813   6.2386004  66.3625524
  74.3633617   4.7195607  63.7814939  74.2847249   4.3855471  64.6750697
  75.1843284   5.2117375  63.7806412  68.8995139  -3.5446600  63.0318462
  69.8454244  -3.6740392  63.1006880  68.5209384  -4.2831939  63.5087890
  68.7833832   0.5071146  84.4919119  69.7036841   0.6849745  84.6859165
  68.7483415  -0.4372809  84.3398818  67.0838056  -5.6196624  62.9673347
  66.1769512  -5.9163511  63.0436061  67.3614037  -5.9166806  62.1007633
  58.0015997  -4.2990261  73.4172394  57.6818781  -5.1524952  73.1246768
  57.4549425  -4.0841683  74.1730361  61.7795904  -1.5827820  77.1341900
  61.9981914  -0.6510712  77.1529934  62.1921678  -1.9419845  77.9196704
  66.6523770  -6.0094614  86.5244649  66.5520496  -5.0600257  86.4556740
  66.4345312  -6.3376375  85.6520719  57.8704257  -0.6787349  75.3865515
  57.1767728  -1.0933396  74.8735470  58.6177248  -0.6366813  74.7898934
  66.5155040  -2.5797475  85.3409711  66.0322121  -1.7797115  85.5473600
  66.6015979  -2.5689530  84.3877155  59.7840999  -0.7469095  73.2631530
  59.7611687  -0.6481408  72.3113413  60.0941636   0.0996055  73.5848696
  62.4428377   1.3107060  77.3778144  63.3971631   1.2791002  77.3108076
  62.2440901   0.8497683  78.1928370  63.0327759  -0.1191824  79.9448942
  63.8520648   0.3752254  79.9683779  63.3064567  -1.0359856  79.9166510
  60.7978606   6.8526679  74.3948342  60.6633074   6.0927080  73.8286340
  60.3810668   7.5767579  73.9277131  71.9337569   2.0363603  63.4024918
  72.6373419   2.2413605  64.0182573  71.2100218   2.6040365  63.6674001
  72.7635379  -2.2126536  69.5227188  72.7070581  -1.7557985  68.6834820
  73.3163722  -2.9735851  69.3450031  63.9547732   7.7495996  74.6066785
  63.8380116   8.6941429  74.5045475  63.1340178   7.4469558  74.9952584
  73.8424266   2.4746132  65.4523378  74.6769870   2.0427330  65.2700852
  73.6808609   2.3028146  66.3800272  73.4970158  -1.0221755  66.8179717
  73.4418962  -1.1877483  65.8768161  72.8716214  -0.3145722  66.9741907
  58.2862673  -5.7853690  80.6441139  58.9321537  -6.2954736  81.1328364
  58.0779825  -5.0485009  81.2184564  70.8116066   1.2827157  86.1433280
  71.6807225   1.4567809  85.7819915  70.3322817   2.1021574  86.0209009
  64.9802246   8.4024258  77.8222713  65.8829493   8.4347868  78.1389208
  64.7539616   7.4724709  77.8369049  66.7355848   7.1555245  74.4832792
  65.7851479   7.1557106  74.3697164  67.0388334   6.4087979  73.9668827
  82.4708541  12.9915783  75.5478554  83.1086951  12.8722530  74.8441894
  82.3529384  13.9396627  75.6066507  79.2798248  12.9443211  75.4840079
  78.9416759  12.8284276  74.5960614  80.1488016  12.5434376  75.4641085
  75.1385063  14.7978687  71.4736970  74.5749928  14.7068624  70.7053258
  75.0237458  13.9778592  71.9539463  79.7618031  14.0978063  81.4426285
  79.7506671  13.7030861  80.5706788  79.9238670  13.3644135  82.0360056
  72.6849495  16.2929879  74.3121191  73.4770787  15.9520704  73.8967490
  72.9246145  16.4024854  75.2323344  80.7184622  18.4649655  66.7851435
  80.0672602  19.0503736  66.3985449  81.5128985  18.9955850  66.8446472
  74.6440249  15.5538792  67.1838569  75.4171125  15.0067779  67.0451445
  74.9965648  16.4183042  67.3953031  76.4825292  16.8815175  80.3905469
  76.1915158  17.7860805  80.2752135  77.1182276  16.9231702  81.1049538
  77.4081499  14.2592023  76.9806828  78.0045071  14.0348046  76.2663791
  77.4656470  13.5176769  77.5832276  76.9806527  11.7131458  64.8157019
  77.2332048  11.1912980  64.0540482  76.0431086  11.5497604  64.9183703
  82.0249810  10.7167237  72.6231762  82.8112899  10.2986660  72.2722179
  82.2888514  11.6213329  72.7913411  82.1959887  16.1540087  67.3220419
  81.5605720  16.2274714  68.0341324  81.8657294  16.7433686  66.6439499
  87.4258237  10.6542470  73.5264741  88.1583409  10.0841687  73.7602570
  86.6697593  10.2664070  73.9671247  76.7002816  13.6159564  67.0181394
  76.5839074  12.9404468  67.6862479  76.8105076  13.1291938  66.2013547
  79.0434357  13.0769712  70.7228083  78.6792564  12.5500332  71.4341005
  79.9001473  12.6868181  70.5494569  84.9483657   4.3664044  77.9859350
  84.6166982   5.2359455  77.7620565  84.3529271   4.0500328  78.6653380
  78.6839844   8.1059611  65.7189432  78.8514246   8.9739848  66.0859903
  78.4937013   8.2686893  64.7950721  81.4415177  16.5676590  77.3855262
  81.1415900  17.4701629  77.2771070  81.0966236  16.3008773  78.2376415
  74.8927658  13.0190387  73.4191967  73.9678155  12.8866601  73.6269659
  75.1412072  13.7984606  73.9161909  84.8412321   9.0859130  75.0652700
  83.9329198   9.0174539  74.7711461  84.7899916   9.5631075  75.8934525
  78.6629065  10.5617269  66.7036099  78.5428690  11.0074319  67.5421579
  77.9681653  10.9102586  66.1449637  72.2536469  12.6623661  74.2535756
  72.3828851  12.9158139  75.1675168  71.5733921  13.2551369  73.9340411
  76.4235957  23.3320910  70.3526230  76.3459986  24.2828736  70.4314711
  75.8197600  22.9866783  71.0101156  78.9153186  10.5048776  83.0087597
  78.1386521  11.0642696  82.9990462  79.5543749  10.9905559  83.5302467
  86.7073967   7.2875569  76.8430574  86.0648347   7.5808102  76.1970368
  86.2028896   7.1728489  77.6483770  84.3614131  11.0338742  67.5316433
  85.2731987  11.2666129  67.3564130  83.8523778  11.6175786  66.9691511
  77.1699559  13.3134229  82.5705564  77.9114243  13.8519273  82.2940388
  76.4636544  13.9400518  82.7277116  82.6454898  15.4563370  81.1677725
  83.0538254  15.0145780  80.4232358  81.9232160  14.8815997  81.4211918
  78.9985968  10.3935976  78.5411282  79.8447164  10.8175390  78.6845931
  78.9384606   9.7369601  79.2349845  82.9683713  16.0164560  74.9230014
  82.3392575  16.1810274  74.2206082  82.5809375  16.4306170  75.6940978
  86.8472945  16.9518998  72.2774378  86.1623983  17.3317900  71.7271411
  86.9316794  17.5614325  73.0106326  82.1485414   8.0540345  80.1992456
  81.9046346   8.8082405  79.6626732  82.4245344   8.4325692  81.0339703
  84.1023877  14.5978957  78.8769722  84.3140772  15.2410717  78.2004103
  84.0553625  13.7641274  78.4091652  81.7050105   7.2096778  75.7806294
  80.8434585   7.5078031  76.0723031  81.7312540   7.4267177  74.8487326
  78.5211675  15.7538968  72.1880099  78.9850020  16.0326671  71.3984722
  78.2568473  14.8522413  72.0053190  75.4135756  15.3010450  75.1259863
  75.9837113  15.7297718  74.4877347  76.0043868  15.0193035  75.8244048
  77.4580561  11.8762121  68.9969665  78.1604604  12.3283164  69.4643591
  77.1261189  11.2345940  69.6249558  75.9060922  10.4673877  83.3720874
  75.2759583  11.1490158  83.6056271  75.7997010  10.3556959  82.4274012
  71.2005895  10.1345673  74.2986798  70.4104949  10.3903202  73.8226909
  71.6917142  10.9494011  74.4038839  85.2169704  17.4750913  77.0492079
  86.0387148  17.0731100  76.7674761  85.2132107  17.3719147  78.0008195
  73.1520640  10.4990253  71.2570275  72.3551804  10.6108947  71.7753770
  72.9246233  10.8376905  70.3911165  78.9826308  17.0234956  79.2052789
  79.0470740  17.4855363  80.0410961  78.2737232  16.3932321  79.3335099
  69.4843598  10.3876164  76.7301789  69.7351636  11.2723174  76.9959365
  70.0203146  10.2080765  75.9576881  93.3075698  13.8189661  73.3977050
  92.5539406  13.2497059  73.2421055  93.4423239  13.7852326  74.3447685
  78.6974326  18.6903063  69.0731770  78.5620000  19.5354599  69.5016618
  79.2384138  18.8922341  68.3097704  75.1841665   4.7694643  85.7346125
  74.7908611   4.2160842  86.4093769  76.0007806   5.0805222  86.1252642
  72.1503723  16.2078501  69.6459695  72.6628244  17.0021752  69.7965260
  72.8026436  15.5104792  69.5793296  73.9598608  19.3244258  71.7282448
  74.1365236  20.2462222  71.5403432  74.7555441  19.0102677  72.1576828
  78.1009626   6.1852522  83.3266382  78.8419340   6.7859676  83.2470844
  78.3327549   5.4430160  82.7684424  73.2450964  11.3708890  81.6044611
  73.1304479  10.4694147  81.9051710  72.3895482  11.6172586  81.2529428
  80.3242802  19.3126630  83.2032112  79.8806656  18.5263009  82.8853016
  80.9860016  19.5005780  82.5376003  75.0829923  20.8422432  77.7292790
  75.6337348  20.7139495  76.9569784  74.2441399  21.1417321  77.3787683
  82.4224040  19.5929430  81.2313513  82.4042515  20.4138311  80.7393782
  83.3443960  19.4683505  81.4563654  78.8797094  17.1073559  82.0737021
  79.4125431  16.3461848  81.8436329  78.3511175  16.8147211  82.8161176
  82.0466789   2.2133625  77.6030663  81.7031059   3.1035267  77.5269774
  82.4145752   2.0235283  76.7400248  70.1152640  14.5367156  70.4219265
  70.9527862  14.9464164  70.2052973  70.2930907  13.5966598  70.3919459
  82.0117072  12.2042236  66.1103098  81.4963695  12.9746841  66.3491486
  81.7394380  11.5307373  66.7336160  79.5964183   7.0491937  71.1688337
  78.7405779   6.6598788  70.9893975  80.0091135   7.1283898  70.3088122
  81.1263330   4.5838280  75.5679896  80.6228125   4.5468416  74.7547702
  81.4193936   5.4931023  75.6276553  77.3706215   4.6677010  74.5746078
  78.2359212   4.4719819  74.2151968  77.4383724   4.4387362  75.5015435
  86.9851346  14.9574591  68.0456272  86.2080789  14.6185751  67.6011434
  87.6642827  14.9627214  67.3711237  81.8003375  10.0769329  67.9362879
  81.4953511  10.3915478  68.7873023  82.7533817  10.1550748  67.9790212
  80.2449807  16.2359552  69.5855833  79.7171168  15.5012311  69.2729071
  79.7437310  17.0134228  69.3395802  85.2242653  14.4308572  74.7022880
  84.5666327  15.1207834  74.7903008  86.0283052  14.8205004  75.0456866
  74.9768535   6.8979218  71.9462445  75.5512286   6.6754400  71.2135638
  75.5639517   6.9667913  72.6991046  84.0348112  12.7852945  72.7526822
  84.5479993  13.4182937  73.2548531  84.6849336  12.1854141  72.3870182
  75.3038122   8.9283679  65.9658330  74.4675434   9.2658366  66.2867605
  75.1642891   8.7932659  65.0285467  77.2791202   3.7720467  70.6737514
  76.6255615   3.4569484  70.0494129  77.2371676   3.1496207  71.3997337
  78.3902407  14.0539762  62.5890806  77.4829469  13.8229016  62.7881955
  78.8873439  13.2577381  62.7764788  81.2970486  22.7637269  65.5087493
  80.6232185  23.0668966  66.1172450  81.6836308  23.5666350  65.1592950
  80.5128943  10.2602401  74.9985162  79.5951504  10.4817348  74.8406850
  80.9289086  10.3348711  74.1396869  81.2963990  11.6593816  70.1287842
  82.0435809  12.1715213  69.8194964  81.5655580  11.3377869  70.9892236
  79.5690641  14.1552357  67.1114797  78.6601860  13.8711390  67.2087266
  79.5985724  14.5751436  66.2518103  84.8009908  17.7658946  70.8805964
  84.3472235  16.9249856  70.9371155  84.1703875  18.4020345  71.2180744
  83.7442827   8.6950932  72.1106632  83.0065584   8.1828319  72.4416874
  83.9969601   8.2551314  71.2989908  83.2442847  19.6035443  71.8155782
  83.5365822  20.1640500  71.0968148  83.7541468  19.8964004  72.5708941
  83.8454455   1.4727185  72.7048401  84.1513332   0.6124548  72.4174316
  84.5707060   2.0644805  72.5047395  70.1378811  11.8757871  71.0929999
  69.9403211  11.2827232  70.3681065  69.5825475  11.5710081  71.8105938
  78.1175535  11.7680978  73.2124592  78.1724144  10.8154814  73.1367069
  77.3066737  11.9240417  73.6965890  79.2666728  15.6961101  64.4502875
  78.8286158  14.9796960  63.9908513  80.0077169  15.9237215  63.8887967
  76.0567894  10.3858037  70.9714971  75.2435760  10.6852208  71.3780163
  76.5526889   9.9913726  71.6889453  78.2076472  20.3815794  72.9049235
  78.1652651  20.6076641  71.9757768  79.1239171  20.1479169  73.0535037
  81.6542106  10.8499862  79.8029865  82.0091494  11.0771335  80.6624330
  82.3014237  11.1818239  79.1807120  87.3839843  13.9718298  70.5079194
  87.2457742  14.1619894  69.5800383  87.0276062  14.7337680  70.9647245
  75.5481969   7.9576393  76.5876206  76.1881349   7.8165152  75.8899169
  74.7159500   7.6710906  76.2114808  87.4109223  16.0394825  75.5190465
  87.8445729  15.9470114  76.3673519  88.1240803  16.0152325  74.8810481
  76.3242273  17.2578823  72.7011198  77.1182872  16.7629143  72.4993773
  75.6133966  16.7296686  72.3378904  81.1437118  19.6396919  77.0523566
  81.1974140  20.2087855  77.8201282  80.2751899  19.8098804  76.6877603
  72.6325037  11.4021905  68.7770951  71.7022625  11.3406360  68.9940913
  72.7282509  10.8797858  67.9807592  72.5510586   7.9276718  71.3649193
  72.8117403   8.8422051  71.2558353  73.3727758   7.4601160  71.5145805
  74.0235511   9.3414475  78.5348017  74.6958564   9.1331837  77.8860666
  73.1965298   9.1436561  78.0953249  88.2724772  16.0818525  78.0523351
  88.4660662  16.9864336  78.2982626  88.1725390  15.6225944  78.8861936
  79.9261083   5.9676416  80.5513678  79.2788998   6.6666366  80.4578154
  80.6962098   6.4012560  80.9189926  83.3339881  16.2325268  83.6264231
  83.1825387  16.0035820  82.7094315  83.3244560  17.1895870  83.6395576
  80.1025217  13.8057181  78.6110498  81.0317277  13.9568340  78.4379465
  79.6816247  13.8941202  77.7559144  78.9013549  17.8307845  76.3809035
  78.7624635  17.4626630  77.2534973  78.1128145  18.3455485  76.2092993
  79.4961701  22.9316942  67.7234572  79.6713457  22.4604985  68.5380195
  78.8094489  23.5582708  67.9515833  80.4518764  17.2089448  73.7697873
  80.1168597  17.1690218  74.6655523  79.9522710  16.5434164  73.2968283
  74.4263008  12.6157078  79.2950454  74.2882806  11.8837317  79.8961993
  75.3367932  12.5265978  79.0134642  83.3877956  14.5545482  64.0434933
  82.7707127  13.8292310  63.9467985  82.9194444  15.3154843  63.7002007
  77.0545309  12.3277037  78.7834134  77.7644927  11.6870229  78.7420752
  77.0114617  12.5789932  79.7060315  85.0432088  19.2644391  81.7040713
  84.9844634  18.5803611  81.0371296  85.4451606  20.0063381  81.2521339
  75.7674243   9.3142255  80.6029773  75.2311600   8.8632994  81.2551370
  75.1790951   9.4488164  79.8600238  74.0622786  26.0806304  74.4974432
  74.3019385  26.7124829  75.1753451  73.2191983  25.7294344  74.7839791
  75.1776502   8.7730907  63.1656237  74.3005968   8.6519707  62.8018484
  75.6534255   7.9816985  62.9135126  85.0449495  17.2283975  79.9354693
  84.1576274  16.8909896  80.0581092  85.6148046  16.4967006  80.1723458
  66.6978642  13.5608066  73.2597744  67.3849682  13.2469796  72.6718759
  66.5426771  14.4649431  72.9864996  71.5013364   8.4498263  77.6882768
  71.4171553   7.8423932  76.9533178  70.6796071   8.9407281  77.6892264
  78.5750648  21.8885427  76.9015936  78.5020820  22.6940398  77.4135241
  78.1328041  22.0877393  76.0763957  78.3640428  21.1257197  70.4118758
  77.5807950  21.6678877  70.5056982  79.0633173  21.6431177  70.8112999
  81.6737078   6.9351826  73.0552963  82.1705778   6.1821789  72.7354033
  80.9024059   6.9716143  72.4896172  89.5266835  12.6392192  74.6971254
  89.5156712  13.5216907  74.3265188  88.6584215  12.2863743  74.5025791
  81.0349332  21.7872261  79.0574095  81.7477304  22.4219726  78.9849996
  80.5439360  21.8836127  78.2414096  82.7566859  15.6923514  70.6291386
  81.8223137  15.8124976  70.4596091  82.9343527  14.7895980  70.3651396
  78.2572047   9.0769209  72.7824648  77.8869834   8.5240250  73.4705553
  78.7531139   8.4727343  72.2299648  86.1439410  11.5340833  71.1641420
  86.6099862  12.3668824  71.0901723  86.5946911  11.0685814  71.8686679
  76.0861245  19.5366704  79.8779665  76.7870705  20.1703187  80.0309060
  75.6156360  19.8781436  79.1175305  84.2115641  17.8784654  68.1627573
  84.4875485  17.7641249  69.0721447  83.3420140  17.4802139  68.1239746
  84.1156073   3.9021420  75.2032322  83.2019153   4.1325647  75.3714529
  84.5449174   3.9859864  76.0546354  83.8862531  12.0911312  77.7032216
  83.2333982  12.3387219  77.0484669  84.2642911  11.2775450  77.3694693
  80.8469705  22.1271005  71.8060386  81.0292100  21.3092661  72.2688138
  81.6702691  22.3438697  71.3685276  81.1811871  21.0539190  69.0675435
  81.7099637  20.5431645  68.4545597  81.4440090  20.7381720  69.9320968
  79.9350104  12.8331123  84.1898253  79.2590741  12.7325252  84.8600628
  80.7577738  12.6770337  84.6534250  71.6828963  19.0703059  76.8110768
  72.2682400  18.3246747  76.9438672  71.4853802  19.3807016  77.6947432
  74.5367619  22.1054307  71.8273211  73.8677994  22.5900434  71.3437251
  74.3980488  22.3523527  72.7416589  66.2746618  11.6408660  75.5315211
  66.3130718  11.1072250  76.3252329  65.7686911  11.1143865  74.9126188
  78.6772887  24.1398050  78.4255869  79.2291195  24.3029672  79.1904954
  79.0179081  24.7302488  77.7535894  73.6537380   6.4873200  79.0277754
  73.7178707   7.3488031  78.6155151  73.5904501   5.8747202  78.2950112
  73.1289653   8.5596333  82.6750788  73.7561692   8.1773410  83.2888312
  72.2717572   8.3410535  83.0406480  83.5283761  18.9659308  84.2804523
  84.0723665  19.5789266  83.7859478  82.9470606  19.5238886  84.7971536
  69.9055196  10.3672762  68.6069143  70.2008637   9.4583440  68.5536196
  69.0043231  10.3460501  68.2850145  81.8141274  22.0880026  75.4119551
  81.6892414  21.2869766  74.9030497  82.4720366  22.5826219  74.9233521
  73.4349443   8.4428758  74.5896691  72.7136028   9.0564726  74.4504165
  74.2242698   8.9786523  74.5113337  83.8776183  19.8889046  77.0399101
  82.9306518  19.7694397  76.9677428  84.2258956  19.0011544  77.1225363
  76.2375756   5.7783185  80.8637343  76.7610158   6.0245481  81.6263652
  76.0188089   6.6103220  80.4440480  71.6343037   8.0486859  68.7308468
  71.3055743   7.1684238  68.5483574  71.9882408   7.9934528  69.6184857
  80.8822616  19.6841762  73.2403453  80.7347579  18.7558470  73.4211023
  81.7076110  19.7061853  72.7560529  74.7484860   8.3359829  69.0983946
  75.0880933   8.8645751  68.3762554  75.1956981   8.6740235  69.8742512
  84.4856738  20.5070321  74.3268326  85.4103285  20.3013182  74.1892777
  84.3172041  20.2586722  75.2357668  77.4428301   6.7196880  78.5487014
  77.1025122   5.9204693  78.9507693  76.7367308   7.0198591  77.9763847
  78.0944773   3.8046192  77.0014337  78.9170842   3.3306671  76.8793227
  78.3382837   4.5836676  77.5013023  76.7353008   6.8334451  67.2977238
  77.4561370   7.2115704  66.7940955  76.1118312   7.5523328  67.4012216
  80.8784130   7.5379600  68.2335571  81.0947745   8.4204238  67.9324399
  80.3978198   7.1465813  67.5041213  75.6183352  10.4965313  74.8106315
  75.4727933  10.8105616  75.7030597  75.1408555  11.1150213  74.2577214
  77.4779735   7.4867861  74.8587205  77.4641303   6.5908954  74.5219503
  78.1952163   7.4938525  75.4925491  79.3305865   7.9205201  76.9040332
  79.0723643   8.8422272  76.9024663  78.7990906   7.5235636  77.5940796
  84.2752054  21.0255988  69.6830418  84.4488932  20.4602411  68.9304270
  84.7680945  21.8256883  69.5009908  70.0929014  13.0370657  77.7493976
  69.5482482  13.8130465  77.8814251  70.9708364  13.3841462  77.5913098
  76.8816631   6.3682241  70.1274775  77.0032542   5.4398888  70.3265662
  76.5918673   6.3820927  69.2153090  79.7507821   4.0537152  73.2641495
  79.7729518   4.1176485  72.3093474  80.1675880   3.2141660  73.4582001
  90.1291445  13.7892411  71.3020717  90.5722591  13.0399737  70.9039841
  89.2517956  13.7802548  70.9194449  85.2627227  20.3422753  66.7827316
  85.9578131  20.9629445  67.0014631  85.6050377  19.4918104  67.0579694
  70.8795036  12.1640554  80.6424133  70.1376772  12.3123189  81.2288764
  70.5587780  12.4248819  79.7790883  87.1618650  17.7922458  68.3114647
  87.6869974  18.1309731  67.5863967  87.0741002  16.8569474  68.1277781
  78.8238698  21.7056532  80.4404523  79.1325825  21.4605679  81.3127223
  79.6214181  21.9103170  79.9523394  78.8459311  23.8594442  72.6709900
  78.4064301  23.3670820  73.3642757  79.5967427  23.3167409  72.4301975
  76.2933183  19.4032451  74.7432202  75.6713192  18.7403156  74.4434429
  76.9638050  19.4293583  74.0605849  69.5260255  17.9692309  73.6323461
  68.6892163  17.5414483  73.4507463  69.4983900  18.1624752  74.5694253
  76.3657710   7.8814239  84.3364708  76.4145866   8.7576362  83.9542477
  76.9080224   7.3391632  83.7636351  86.8512556  18.4255362  83.6165845
  86.0608100  18.4079501  83.0770344  86.6145910  18.9643656  84.3714881
  86.9710431  15.2747828  80.9298573  87.0208436  15.1097836  81.8714096
  86.8624354  14.4075087  80.5396454  75.8546690  17.9536374  68.2190662
  76.0034810  18.6371838  67.5657335  76.6613133  17.9341464  68.7340118
  84.2614193  11.2578756  82.2457880  85.1624056  11.1185221  81.9541878
  84.3362168  11.4233211  83.1856057  78.5956999   8.6345611  81.0911066
  77.7260308   8.9279177  80.8193655  78.8316479   9.2186056  81.8118330
  88.4728628  17.6944770  81.1740595  88.1813436  18.0574750  82.0104056
  87.8600759  16.9811778  80.9953927  89.6724310  15.2597650  73.6943165
  90.5071201  15.6987454  73.8580725  89.8083439  14.7836303  72.8751411
  86.7215816  12.8177384  79.6420653  87.1969938  13.0105031  78.8339504
  85.7981381  12.8736570  79.3964036  73.6099323  13.9801552  69.2251731
  73.3645365  13.0763882  69.4231941  73.7795237  13.9818702  68.2831209
  81.2996032   4.8525228  78.6076487  81.8177976   5.5886255  78.2822975
  80.9451165   5.1589221  79.4423246  72.8794970   9.7129909  66.7237892
  72.1864215   9.7874264  66.0677928  72.6346722   8.9490253  67.2459409
  81.5508627   1.2725511  74.1277383  81.8310380   0.6048700  74.7537810
  82.3359234   1.4654606  73.6152047  79.3542095  20.4484504  65.6902409
  78.7816062  21.0674692  65.2372881  79.9274889  20.9983866  66.2242331
  85.4217485   9.6943145  77.8748958  86.3734908   9.7941242  77.8961182
  85.2520935   8.9021413  78.3847043  83.4431864   6.7798728  78.0608359
  82.8481797   7.0603740  77.3654848  83.1581561   7.2692629  78.8325100
  82.5739355  20.7321655  66.8210992  83.5070028  20.6667216  67.0243867
  82.4862568  21.5677921  66.3625524  85.2027372  20.0487525  63.7814939
  85.1241003  19.7147389  64.6750697  86.0237038  20.5409293  63.7806412
  87.9005563  12.9149264  76.9891258  87.8681883  11.9765265  77.1750942
  88.5106186  12.9933301  76.2557083  79.7388894  11.7845317  63.0318462
  80.6847998  11.6551525  63.1006880  79.3603139  11.0459979  63.5087890
  88.0500051   9.7060308  77.0349541  87.5339100   8.9218764  76.8479470
  88.9340000   9.3779024  77.1996061  85.7110778   3.4501323  72.9945354
  85.5135599   3.1416411  73.8788686  86.3210484   4.1762962  73.1243284
  93.7182113  13.9765271  76.1297295  94.4485501  13.7150559  76.6904998
  93.1089058  13.2393993  76.1699363  91.7997410  12.1173134  76.7271746
  91.0730573  11.9829099  76.1188238  91.3844697  12.4249962  77.5328464
  79.6227586  15.8363063  84.4919119  80.5430596  16.0141662  84.6859165
  79.5877169  14.8919109  84.3398818  77.9231811   9.7095294  62.9673347
  77.0163266   9.4128406  63.0436061  78.2007792   9.4125112  62.1007633
  68.8409751  11.0301657  73.4172394  68.5212536  10.1766965  73.1246768
  68.2943179  11.2450235  74.1730361  72.6189659  13.7464098  77.1341900
  72.8375668  14.6781206  77.1529934  73.0315433  13.3872072  77.9196704
  79.5393877   4.2532183  69.1217588  78.7294605   3.9079268  69.4972835
  80.2278293   3.9439727  69.7105200  81.4684425   3.3310230  70.7441885
  82.0215463   3.7505684  71.4031908  81.7054511   2.4045978  70.7864841
  77.4917524   9.3197304  86.5244649  77.3914251  10.2691661  86.4556740
  77.2739066   8.9915543  85.6520719  76.6930595   6.5682229  63.1085326
  77.5549759   6.8937127  63.3681144  76.8780940   5.7813725  62.5958392
  68.7098011  14.6504569  75.3865515  68.0161483  14.2358521  74.8735470
  69.4571002  14.6925105  74.7898934  84.8463232   5.4410755  70.2520549
  84.2661901   6.0995559  69.8698602  84.5799165   4.6188100  69.8407967
  83.2966798   4.8415813  72.4541870  83.7966577   4.9532348  71.6456189
  83.9402406   4.5376866  73.0942678  77.3548794  12.7494443  85.3409711
  76.8715876  13.5494803  85.5473600  77.4409733  12.7602387  84.3877155
  70.6234754  14.5822822  73.2631530  70.6005442  14.6810510  72.3113413
  70.9335390  15.4287973  73.5848696  73.2822132  16.6398977  77.3778144
  74.2365385  16.6082920  77.3108076  73.0834655  16.1789601  78.1928370
  73.8721514  15.2100093  79.9448942  74.6914403  15.7044172  79.9683779
  74.1458321  14.2932061  79.9166510  83.6288110   7.6010846  69.3076898
  82.7413965   7.8860496  69.0897092  84.0442099   7.4404609  68.4604175
  86.9802646   7.6257367  73.0231237  87.7563036   8.1153819  73.2955854
  86.2550780   8.0515421  73.4803106  89.4175205   8.3384986  74.0805178
  90.0119695   8.0980722  73.3698486  89.4901788   7.6192116  74.7078714
  82.7731323  17.3655520  63.4024918  83.4767173  17.5705523  64.0182573
  82.0493972  17.9332282  63.6674001  83.6029134  13.1165382  69.5227188
  83.5464335  13.5733933  68.6834820  84.1557476  12.3556066  69.3450031
  87.4133940   8.9055113  70.3477307  87.1570874   8.5051749  71.1785515
  86.7886808   9.6198907  70.2227446  91.7246277  11.6451187  72.8548599
  91.1645835  11.7144376  73.6280161  91.1189781  11.4692171  72.1348095
  74.7941486  23.0787914  74.6066785  74.6773870  24.0233346  74.5045475
  73.9733933  22.7761475  74.9952584  84.6818021  17.8038050  65.4523378
  85.5163625  17.3719248  65.2700852  84.5202364  17.6320063  66.3800272
  84.3363913  14.3070163  66.8179717  84.2812717  14.1414434  65.8768161
  83.7109968  15.0146196  66.9741907  69.1256428   9.5438227  80.6441139
  69.7715292   9.0337181  81.1328364  68.9173579  10.2806909  81.2184564
  81.6509820  16.6119075  86.1433280  82.5200980  16.7859727  85.7819915
  81.1716572  17.4313492  86.0209009  77.6460038   3.8078272  66.3965035
  77.6338708   4.7520112  66.5533306  78.5383460   3.6248417  66.1024497
  75.8196000  23.7316176  77.8222713  76.7223247  23.7639786  78.1389208
  75.5933370  22.8016627  77.8369049  77.5749602  22.4847162  74.4832792
  76.6245233  22.4849024  74.3697164  77.8782089  21.7379897  73.9668827
  81.4612158   0.4021048  70.6510972  80.6944554  -0.1520465  70.7967655
  81.8722863   0.4742917  71.5125124  73.4653919   6.6905844  84.7416153
  74.3285380   6.3342649  84.9519478  72.8919330   6.3519739  85.4291558
  93.3102296  28.3207701  75.5478554  93.9480706  28.2014448  74.8441894
  93.1923139  29.2688545  75.6066507  90.1192002  28.2735129  75.4840079
  89.7810514  28.1576193  74.5960614  90.9881770  27.8726294  75.4641085
  85.9778818  30.1270605  71.4736970  85.4143683  30.0360542  70.7053258
  85.8631213  29.3070510  71.9539463  90.6011785  29.4269980  81.4426285
  90.5900426  29.0322779  80.5706788  90.7632425  28.6936053  82.0360056
  83.5243250  31.6221797  74.3121191  84.3164542  31.2812621  73.8967490
  83.7639900  31.7316772  75.2323344  91.5578377  33.7941573  66.7851435
  90.9066356  34.3795653  66.3985449  92.3522739  34.3247768  66.8446472
  85.4834004  30.8830710  67.1838569  86.2564880  30.3359697  67.0451445
  85.8359403  31.7474959  67.3953031  87.3219046  32.2107092  80.3905469
  87.0308912  33.1152723  80.2752135  87.9576031  32.2523620  81.1049538
  88.2475253  29.5883941  76.9806828  88.8438825  29.3639963  76.2663791
  88.3050225  28.8468686  77.5832276  87.8200282  27.0423376  64.8157019
  88.0725802  26.5204897  64.0540482  86.8824841  26.8789522  64.9183703
  92.8643564  26.0459154  72.6231762  93.6506654  25.6278578  72.2722179
  93.1282269  26.9505247  72.7913411  93.0353642  31.4832005  67.3220419
  92.3999475  31.5566631  68.0341324  92.7051048  32.0725604  66.6439499
  98.2651991  25.9834388  73.5264741  98.9977163  25.4133605  73.7602570
  97.5091347  25.5955988  73.9671247  87.5396570  28.9451482  67.0181394
  87.4232828  28.2696385  67.6862479  87.6498830  28.4583856  66.2013547
  89.8828111  28.4061629  70.7228083  89.5186318  27.8792250  71.4341005
  90.7395227  28.0160098  70.5494569  95.7877412  19.6955962  77.9859350
  95.4560737  20.5651373  77.7620565  95.1923025  19.3792246  78.6653380
  89.5233598  23.4351529  65.7189432  89.6908001  24.3031765  66.0859903
  89.3330767  23.5978811  64.7950721  92.2808931  31.8968508  77.3855262
  91.9809654  32.7993547  77.2771070  91.9359991  31.6300691  78.2376415
  85.7321413  28.3482305  73.4191967  84.8071909  28.2158519  73.6269659
  85.9805826  29.1276524  73.9161909  95.6806075  24.4151048  75.0652700
  94.7722952  24.3466456  74.7711461  95.6293671  24.8922993  75.8934525
  89.5022819  25.8909186  66.7036099  89.3822444  26.3366237  67.5421579
  88.8075407  26.2394504  66.1449637  83.0930224  27.9915578  74.2535756
  83.2222605  28.2450057  75.1675168  82.4127675  28.5843286  73.9340411
  87.2629711  38.6612828  70.3526230  87.1853741  39.6120653  70.4314711
  86.6591355  38.3158701  71.0101156  89.7546941  25.8340694  83.0087597
  88.9780275  26.3934614  82.9990462  90.3937504  26.3197477  83.5302467
  97.5467722  22.6167486  76.8430574  96.9042102  22.9100020  76.1970368
  97.0422650  22.5020407  77.6483770  95.2007885  26.3630660  67.5316433
  96.1125741  26.5958046  67.3564130  94.6917532  26.9467704  66.9691511
  88.0093313  28.6426147  82.5705564  88.7507998  29.1811191  82.2940388
  87.3030299  29.2692436  82.7277116  93.4848653  30.7855287  81.1677725
  93.8932009  30.3437698  80.4232358  92.7625914  30.2107915  81.4211918
  89.8379723  25.7227894  78.5411282  90.6840918  26.1467308  78.6845931
  89.7778361  25.0661518  79.2349845  93.8077468  31.3456478  74.9230014
  93.1786330  31.5102192  74.2206082  93.4203130  31.7598088  75.6940978
  97.6866699  32.2810916  72.2774378  97.0017738  32.6609817  71.7271411
  97.7710549  32.8906243  73.0106326  92.9879168  23.3832263  80.1992456
  92.7440100  24.1374323  79.6626732  93.2639099  23.7617610  81.0339703
  94.9417631  29.9270875  78.8769722  95.1534526  30.5702635  78.2004103
  94.8947379  29.0933191  78.4091652  92.5443860  22.5388696  75.7806294
  91.6828339  22.8369949  76.0723031  92.5706295  22.7559094  74.8487326
  89.3605429  31.0830886  72.1880099  89.8243775  31.3618589  71.3984722
  89.0962228  30.1814331  72.0053190  86.2529510  30.6302368  75.1259863
  86.8230868  31.0589636  74.4877347  86.8437622  30.3484952  75.8244048
  88.2974315  27.2054038  68.9969665  88.9998359  27.6575082  69.4643591
  87.9654944  26.5637857  69.6249558  86.7454677  25.7965795  83.3720874
  86.1153338  26.4782076  83.6056271  86.6390765  25.6848877  82.4274012
  82.0399649  25.4637591  74.2986798  81.2498703  25.7195120  73.8226909
  82.5310897  26.2785929  74.4038839  96.0563459  32.8042830  77.0492079
  96.8780903  32.4023018  76.7674761  96.0525862  32.7011064  78.0008195
  83.9914395  25.8282170  71.2570275  83.1945558  25.9400865  71.7753770
  83.7639987  26.1668823  70.3911165  89.8220062  32.3526874  79.2052789
  89.8864495  32.8147281  80.0410961  89.1130986  31.7224239  79.3335099
  80.3237352  25.7168082  76.7301789  80.5745391  26.6015092  76.9959365
  80.8596901  25.5372683  75.9576881 104.1469452  29.1481579  73.3977050
 103.3933160  28.5788977  73.2421055 104.2816993  29.1144243  74.3447685
  89.5368080  34.0194981  69.0731770  89.4013755  34.8646517  69.5016618
  90.0777893  34.2214259  68.3097704  86.0235420  20.0986561  85.7346125
  85.6302365  19.5452760  86.4093769  86.8401560  20.4097139  86.1252642
  82.9897477  31.5370419  69.6459695  83.5021998  32.3313669  69.7965260
  83.6420190  30.8396710  69.5793296  84.7992362  34.6536175  71.7282448
  84.9758991  35.5754140  71.5403432  85.5949196  34.3394595  72.1576828
  88.9403381  21.5144440  83.3266382  89.6813094  22.1151593  83.2470844
  89.1721304  20.7722078  82.7684424  84.0844719  26.7000807  81.6044611
  83.9698234  25.7986065  81.9051710  83.2289236  26.9464504  81.2529428
  91.1636556  34.6418548  83.2032112  90.7200411  33.8554926  82.8853016
  91.8253770  34.8297698  82.5376003  85.9223678  36.1714349  77.7292790
  86.4731103  36.0431413  76.9569784  85.0835154  36.4709238  77.3787683
  93.2617795  34.9221348  81.2313513  93.2436270  35.7430229  80.7393782
  94.1837715  34.7975423  81.4563654  89.7190849  32.4365477  82.0737021
  90.2519185  31.6753765  81.8436329  89.1904930  32.1439129  82.8161176
  92.8860544  17.5425543  77.6030663  92.5424813  18.4327185  77.5269774
  93.2539506  17.3527201  76.7400248  80.9546394  29.8659073  70.4219265
  81.7921616  30.2756082  70.2052973  81.1324662  28.9258516  70.3919459
  92.8510826  27.5334154  66.1103098  92.3357450  28.3038759  66.3491486
  92.5788135  26.8599290  66.7336160  90.4357937  22.3783855  71.1688337
  89.5799534  21.9890705  70.9893975  90.8484889  22.4575816  70.3088122
  91.9657084  19.9130198  75.5679896  91.4621880  19.8760333  74.7547702
  92.2587691  20.8222941  75.6276553  88.2099970  19.9968928  74.5746078
  89.0752967  19.8011737  74.2151968  88.2777479  19.7679280  75.5015435
  97.8245100  30.2866509  68.0456272  97.0474543  29.9477668  67.6011434
  98.5036581  30.2919132  67.3711237  92.6397130  25.4061246  67.9362879
  92.3347265  25.7207395  68.7873023  93.5927572  25.4842666  67.9790212
  91.0843561  31.5651470  69.5855833  90.5564923  30.8304229  69.2729071
  90.5831064  32.3426146  69.3395802  96.0636407  29.7600490  74.7022880
  95.4060082  30.4499751  74.7903008  96.8676807  30.1496922  75.0456866
  85.8162289  22.2271136  71.9462445  86.3906041  22.0046317  71.2135638
  86.4033271  22.2959830  72.6991046  94.8741866  28.1144863  72.7526822
  95.3873748  28.7474855  73.2548531  95.5243090  27.5146058  72.3870182
  86.1431876  24.2575597  65.9658330  85.3069188  24.5950283  66.2867605
  86.0036646  24.1224577  65.0285467  88.1184957  19.1012385  70.6737514
  87.4649369  18.7861402  70.0494129  88.0765431  18.4788125  71.3997337
  89.2296162  29.3831680  62.5890806  88.3223223  29.1520933  62.7881955
  89.7267194  28.5869299  62.7764788  92.1364240  38.0929187  65.5087493
  91.4625939  38.3960884  66.1172450  92.5230062  38.8958267  65.1592950
  91.3522697  25.5894318  74.9985162  90.4345258  25.8109265  74.8406850
  91.7682841  25.6640629  74.1396869  92.1357745  26.9885734  70.1287842
  92.8829564  27.5007131  69.8194964  92.4049334  26.6669787  70.9892236
  90.4084395  29.4844275  67.1114797  89.4995614  29.2003307  67.2087266
  90.4379479  29.9043353  66.2518103  95.6403662  33.0950864  70.8805964
  95.1865990  32.2541774  70.9371155  95.0097629  33.7312263  71.2180744
  94.5836582  24.0242850  72.1106632  93.8459339  23.5120236  72.4416874
  94.8363356  23.5843232  71.2989908  94.0836602  34.9327361  71.8155782
  94.3759576  35.4932418  71.0968148  94.5935222  35.2255922  72.5708941
  94.6848209  16.8019102  72.7048401  94.9907086  15.9416466  72.4174316
  95.4100814  17.3936722  72.5047395  80.9772565  27.2049789  71.0929999
  80.7796965  26.6119149  70.3681065  80.4219229  26.9001999  71.8105938
  88.9569289  27.0972895  73.2124592  89.0117899  26.1446732  73.1367069
  88.1460491  27.2532334  73.6965890  90.1060483  31.0253018  64.4502875
  89.6679913  30.3088877  63.9908513  90.8470924  31.2529133  63.8887967
  86.8961649  25.7149955  70.9714971  86.0829515  26.0144126  71.3780163
  87.3920643  25.3205644  71.6889453  89.0470227  35.7107712  72.9049235
  89.0046406  35.9368558  71.9757768  89.9632926  35.4771087  73.0535037
  92.4935861  26.1791779  79.8029865  92.8485248  26.4063253  80.6624330
  93.1407992  26.5110156  79.1807120  98.2233598  29.3010215  70.5079194
  98.0851496  29.4911811  69.5800383  97.8669816  30.0629598  70.9647245
  86.3875724  23.2868311  76.5876206  87.0275103  23.1457070  75.8899169
  85.5553254  23.0002824  76.2114808  98.2502977  31.3686742  75.5190465
  98.6839484  31.2762031  76.3673519  98.9634558  31.3444243  74.8810481
  87.1636028  32.5870741  72.7011198  87.9576626  32.0921061  72.4993773
  86.4527720  32.0588604  72.3378904  91.9830872  34.9688836  77.0523566
  92.0367894  35.5379773  77.8201282  91.1145653  35.1390722  76.6877603
  83.4718791  26.7313823  68.7770951  82.5416379  26.6698278  68.9940913
  83.5676263  26.2089775  67.9807592  83.3904340  23.2568636  71.3649193
  83.6511157  24.1713969  71.2558353  84.2121512  22.7893078  71.5145805
  84.8629265  24.6706393  78.5348017  85.5352319  24.4623755  77.8860666
  84.0359052  24.4728479  78.0953249  99.1118527  31.4110443  78.0523351
  99.3054417  32.3156254  78.2982626  99.0119145  30.9517862  78.8861936
  90.7654837  21.2968334  80.5513678  90.1182753  21.9958283  80.4578154
  91.5355853  21.7304478  80.9189926  94.1733635  31.5617186  83.6264231
  94.0219142  31.3327737  82.7094315  94.1638315  32.5187787  83.6395576
  90.9418972  29.1349098  78.6110498  91.8711032  29.2860258  78.4379465
  90.5210002  29.2233119  77.7559144  89.7407304  33.1599763  76.3809035
  89.6018389  32.7918547  77.2534973  88.9521900  33.6747402  76.2092993
  90.3355456  38.2608859  67.7234572  90.5107211  37.7896903  68.5380195
  89.6488244  38.8874626  67.9515833  91.2912519  32.5381366  73.7697873
  90.9562351  32.4982136  74.6655523  90.7916464  31.8726082  73.2968283
  85.2656763  27.9448996  79.2950454  85.1276561  27.2129234  79.8961993
  86.1761686  27.8557896  79.0134642  94.2271710  29.8837400  64.0434933
  93.6100881  29.1584228  63.9467985  93.7588199  30.6446760  63.7002007
  87.8939063  27.6568955  78.7834134  88.6038682  27.0162147  78.7420752
  87.8508372  27.9081850  79.7060315  95.8825842  34.5936308  81.7040713
  95.8238388  33.9095528  81.0371296  96.2845360  35.3355298  81.2521339
  86.6067997  24.6434173  80.6029773  86.0705354  24.1924911  81.2551370
  86.0184706  24.7780082  79.8600238  86.0170256  24.1022824  63.1656237
  85.1399723  23.9811625  62.8018484  86.4928009  23.3108903  62.9135126
  95.8843249  32.5575892  79.9354693  94.9970028  32.2201814  80.0581092
  96.4541800  31.8258923  80.1723458  77.5372396  28.8899984  73.2597744
  78.2243436  28.5761714  72.6718759  77.3820525  29.7941349  72.9864996
  82.3407119  23.7790181  77.6882768  82.2565307  23.1715850  76.9533178
  81.5189825  24.2699199  77.6892264  89.4144403  37.2177345  76.9015936
  89.3414574  38.0232316  77.4135241  88.9721796  37.4169310  76.0763957
  89.2034182  36.4549115  70.4118758  88.4201704  36.9970795  70.5056982
  89.9026928  36.9723094  70.8112999  92.5130832  22.2643744  73.0552963
  93.0099532  21.5113706  72.7354033  91.7417814  22.3008061  72.4896172
 100.3660590  27.9684110  74.6971254 100.3550466  28.8508825  74.3265188
  99.4977969  27.6155660  74.5025791  91.8743086  37.1164179  79.0574095
  92.5871058  37.7511643  78.9849996  91.3833115  37.2128045  78.2414096
  93.5960613  31.0215431  70.6291386  92.6616892  31.1416894  70.4596091
  93.7737282  30.1187898  70.3651396  89.0965801  24.4061127  72.7824648
  88.7263589  23.8532167  73.4705553  89.5924894  23.8019261  72.2299648
  96.9833165  26.8632751  71.1641420  97.4493617  27.6960742  71.0901723
  97.4340665  26.3977732  71.8686679  86.9255000  34.8658622  79.8779665
  87.6264459  35.4995105  80.0309060  86.4550115  35.2073354  79.1175305
  95.0509396  33.2076572  68.1627573  95.3269240  33.0933166  69.0721447
  94.1813894  32.8094057  68.1239746  94.9549827  19.2313338  75.2032322
  94.0412907  19.4617564  75.3714529  95.3842929  19.3151782  76.0546354
  94.7256286  27.4203230  77.7032216  94.0727736  27.6679137  77.0484669
  95.1036666  26.6067368  77.3694693  91.6863460  37.4562923  71.8060386
  91.8685854  36.6384579  72.2688138  92.5096446  37.6730615  71.3685276
  92.0205625  36.3831108  69.0675435  92.5493392  35.8723562  68.4545597
  92.2833845  36.0673638  69.9320968  90.7743859  28.1623041  84.1898253
  90.0984496  28.0617170  84.8600628  91.5971493  28.0062254  84.6534250
  82.5222718  34.3994977  76.8110768  83.1076155  33.6538665  76.9438672
  82.3247556  34.7098934  77.6947432  85.3761373  37.4346225  71.8273211
  84.7071748  37.9192352  71.3437251  85.2374243  37.6815445  72.7416589
  77.1140373  26.9700577  75.5315211  77.1524472  26.4364168  76.3252329
  76.6080665  26.4435783  74.9126188  89.5166642  39.4689968  78.4255869
  90.0684950  39.6321590  79.1904954  89.8572835  40.0594406  77.7535894
  84.4931135  21.8165118  79.0277754  84.5572461  22.6779949  78.6155151
  84.4298255  21.2039120  78.2950112  83.9683407  23.8888250  82.6750788
  84.5955446  23.5065328  83.2888312  83.1111326  23.6702452  83.0406480
  94.3677516  34.2951226  84.2804523  94.9117420  34.9081184  83.7859478
  93.7864361  34.8530804  84.7971536  80.7448950  25.6964680  68.6069143
  81.0402391  24.7875358  68.5536196  79.8436986  25.6752419  68.2850145
  92.6535029  37.4171944  75.4119551  92.5286168  36.6161683  74.9030497
  93.3114120  37.9118137  74.9233521  84.2743197  23.7720676  74.5896691
  83.5529783  24.3856644  74.4504165  85.0636453  24.3078441  74.5113337
  94.7169937  35.2180964  77.0399101  93.7700273  35.0986315  76.9677428
  95.0652710  34.3303462  77.1225363  87.0769511  21.1075103  80.8637343
  87.6003913  21.3537399  81.6263652  86.8581844  21.9395137  80.4440480
  82.4736792  23.3778777  68.7308468  82.1449498  22.4976156  68.5483574
  82.8276162  23.3226446  69.6184857  91.7216371  35.0133680  73.2403453
  91.5741333  34.0850387  73.4211023  92.5469864  35.0353771  72.7560529
  85.5878615  23.6651747  69.0983946  85.9274687  24.1937668  68.3762554
  86.0350735  24.0032153  69.8742512  95.3250492  35.8362239  74.3268326
  96.2497040  35.6305100  74.1892777  95.1565796  35.5878640  75.2357668
  88.2822056  22.0488798  78.5487014  87.9418876  21.2496611  78.9507693
  87.5761062  22.3490509  77.9763847  88.9338528  19.1338110  77.0014337
  89.7564597  18.6598588  76.8793227  89.1776591  19.9128594  77.5013023
  87.5746762  22.1626369  67.2977238  88.2955125  22.5407621  66.7940955
  86.9512066  22.8815245  67.4012216  91.7177885  22.8671518  68.2335571
  91.9341499  23.7496155  67.9324399  91.2371952  22.4757731  67.5041213
  86.4577106  25.8257231  74.8106315  86.3121687  26.1397534  75.7030597
  85.9802310  26.4442131  74.2577214  88.3173489  22.8159779  74.8587205
  88.3035058  21.9200872  74.5219503  89.0345917  22.8230442  75.4925491
  90.1699620  23.2497119  76.9040332  89.9117398  24.1714190  76.9024663
  89.6384660  22.8527553  77.5940796  95.1145809  36.3547906  69.6830418
  95.2882686  35.7894329  68.9304270  95.6074700  37.1548801  69.5009908
  80.9322768  28.3662575  77.7493976  80.3876237  29.1422383  77.8814251
  81.8102118  28.7133380  77.5913098  87.7210385  21.6974159  70.1274775
  87.8426296  20.7690805  70.3265662  87.4312428  21.7112845  69.2153090
  90.5901576  19.3829069  73.2641495  90.6123272  19.4468403  72.3093474
  91.0069635  18.5433578  73.4582001 100.9685200  29.1184329  71.3020717
 101.4116346  28.3691654  70.9039841 100.0911710  29.1094465  70.9194449
  96.1020981  35.6714670  66.7827316  96.7971886  36.2921363  67.0014631
  96.4444131  34.8210022  67.0579694  81.7188790  27.4932471  80.6424133
  80.9770526  27.6415107  81.2288764  81.3981535  27.7540737  79.7790883
  98.0012404  33.1214376  68.3114647  98.5263728  33.4601649  67.5863967
  97.9134757  32.1861391  68.1277781  89.6632453  37.0348450  80.4404523
  89.9719579  36.7897596  81.3127223  90.4607935  37.2395088  79.9523394
  89.6853065  39.1886359  72.6709900  89.2458055  38.6962738  73.3642757
  90.4361182  38.6459327  72.4301975  82.1645404  35.3797900  72.6734528
  82.9903424  35.0801672  72.2933171  81.8139456  34.6105523  73.1224317
  87.1326937  34.7324368  74.7432202  86.5106946  34.0695073  74.4434429
  87.8031804  34.7585500  74.0605849  80.3654009  33.2984227  73.6323461
  79.5285917  32.8706401  73.4507463  80.3377654  33.4916670  74.5694253
  87.2051465  23.2106156  84.3364708  87.2539620  24.0868279  83.9542477
  87.7473979  22.6683549  83.7636351  97.6906310  33.7547280  83.6165845
  96.9001854  33.7371418  83.0770344  97.4539665  34.2935573  84.3714881
  97.8104185  30.6039746  80.9298573  97.8602190  30.4389753  81.8714096
  97.7018109  29.7367005  80.5396454  86.6940444  33.2828292  68.2190662
  86.8428564  33.9663756  67.5657335  87.5006888  33.2633382  68.7340118
  95.1007948  26.5870674  82.2457880  96.0017811  26.4477139  81.9541878
  95.1755922  26.7525129  83.1856057  89.4350753  23.9637529  81.0911066
  88.5654063  24.2571095  80.8193655  89.6710233  24.5477974  81.8118330
  99.3122382  33.0236688  81.1740595  99.0207191  33.3866668  82.0104056
  98.6994514  32.3103696  80.9953927 100.5118065  30.5889567  73.6943165
 101.3464956  31.0279371  73.8580725 100.6477193  30.1128221  72.8751411
  97.5609570  28.1469302  79.6420653  98.0363692  28.3396948  78.8339504
  96.6375136  28.2028488  79.3964036  84.4493077  29.3093469  69.2251731
  84.2039119  28.4055799  69.4231941  84.6188992  29.3110620  68.2831209
  92.1389787  20.1817146  78.6076487  92.6571731  20.9178173  78.2822975
  91.7844920  20.4881139  79.4423246  83.7188725  25.0421827  66.7237892
  83.0257970  25.1166182  66.0677928  83.4740477  24.2782171  67.2459409
  92.3902381  16.6017428  74.1277383  92.6704135  15.9340617  74.7537810
  93.1752988  16.7946524  73.6152047  90.1935850  35.7776422  65.6902409
  89.6209817  36.3966609  65.2372881  90.7668643  36.3275784  66.2242331
  96.2611239  25.0235062  77.8748958  97.2128662  25.1233160  77.8961182
  96.0914690  24.2313331  78.3847043  94.2825619  22.1090645  78.0608359
  93.6875551  22.3895658  77.3654848  93.9975316  22.5984546  78.8325100
  93.4133109  36.0613572  66.8210992  94.3463783  35.9959134  67.0243867
  93.3256322  36.8969839  66.3625524  96.0421126  35.3779443  63.7814939
  95.9634758  35.0439306  64.6750697  96.8630793  35.8701211  63.7806412
  98.7399317  28.2441182  76.9891258  98.7075637  27.3057183  77.1750942
  99.3499941  28.3225219  76.2557083  90.5782648  27.1137235  63.0318462
  91.5241753  26.9843443  63.1006880  90.1996893  26.3751897  63.5087890
  98.8893806  25.0352225  77.0349541  98.3732854  24.2510682  76.8479470
  99.7733754  24.7070942  77.1996061  96.5504533  18.7793241  72.9945354
  96.3529354  18.4708329  73.8788686  97.1604238  19.5054880  73.1243284
 104.5575867  29.3057189  76.1297295 105.2879256  29.0442477  76.6904998
 103.9482813  28.5685911  76.1699363 102.6391164  27.4465051  76.7271746
 101.9124328  27.3121016  76.1188238 102.2238451  27.7541880  77.5328464
  90.4621341  31.1654981  84.4919119  91.3824350  31.3433580  84.6859165
  90.4270924  30.2211026  84.3398818  88.7625565  25.0387211  62.9673347
  87.8557021  24.7420324  63.0436061  89.0401546  24.7417029  62.1007633
  79.6803506  26.3593575  73.4172394  79.3606290  25.5058883  73.1246768
  79.1336934  26.5742153  74.1730361  83.4583413  29.0756016  77.1341900
  83.6769423  30.0073124  77.1529934  83.8709187  28.7163990  77.9196704
  90.3787631  19.5824101  69.1217588  89.5688359  19.2371186  69.4972835
  91.0672048  19.2731645  69.7105200  92.3078179  18.6602148  70.7441885
  92.8609218  19.0797601  71.4031908  92.5448266  17.7337896  70.7864841
  88.3311279  24.6489221  86.5244649  88.2308005  25.5983578  86.4556740
  88.1132821  24.3207460  85.6520719  87.5324350  21.8974147  63.1085326
  88.3943514  22.2229045  63.3681144  87.7174694  21.1105642  62.5958392
  79.5491766  29.9796486  75.3865515  78.8555237  29.5650439  74.8735470
  80.2964757  30.0217023  74.7898934  95.6856986  20.7702673  70.2520549
  95.1055655  21.4287477  69.8698602  95.4192919  19.9480018  69.8407967
  94.1360553  20.1707731  72.4541870  94.6360331  20.2824265  71.6456189
  94.7796161  19.8668784  73.0942678  88.1942549  28.0786360  85.3409711
  87.7109630  28.8786720  85.5473600  88.2803488  28.0894305  84.3877155
  81.4628508  29.9114740  73.2631530  81.4399196  30.0102427  72.3113413
  81.7729145  30.7579891  73.5848696  84.1215886  31.9690895  77.3778144
  85.0759140  31.9374837  77.3108076  83.9228410  31.5081519  78.1928370
  84.7115268  30.5392011  79.9448942  85.5308157  31.0336090  79.9683779
  84.9852076  29.6223979  79.9166510  94.4681864  22.9302763  69.3076898
  93.5807719  23.2152414  69.0897092  94.8835853  22.7696527  68.4604175
  97.8196401  22.9549284  73.0231237  98.5956791  23.4445737  73.2955854
  97.0944535  23.3807339  73.4803106 100.2568959  23.6676904  74.0805178
 100.8513450  23.4272640  73.3698486 100.3295543  22.9484034  74.7078714
  82.4766115  37.5110514  74.3948342  82.3420583  36.7510915  73.8286340
  82.0598177  38.2351414  73.9277131  93.6125078  32.6947438  63.4024918
  94.3160928  32.8997441  64.0182573  92.8887727  33.2624200  63.6674001
  94.4422888  28.4457299  69.5227188  94.3858090  28.9025851  68.6834820
  94.9951231  27.6847984  69.3450031  98.2527694  24.2347031  70.3477307
  97.9964628  23.8343667  71.1785515  97.6280562  24.9490825  70.2227446
 102.5640032  26.9743104  72.8548599 102.0039590  27.0436294  73.6280161
 101.9583535  26.7984089  72.1348095  85.6335241  38.4079832  74.6066785
  85.5167625  39.3525264  74.5045475  84.8127687  38.1053393  74.9952584
  95.5211775  33.1329967  65.4523378  96.3557379  32.7011166  65.2700852
  95.3596118  32.9611981  66.3800272  95.1757667  29.6362081  66.8179717
  95.1206471  29.4706352  65.8768161  94.5503723  30.3438113  66.9741907
  79.9650182  24.8730145  80.6441139  80.6109046  24.3629099  81.1328364
  79.7567334  25.6098827  81.2184564  92.4903575  31.9410992  86.1433280
  93.3594734  32.1151645  85.7819915  92.0110326  32.7605409  86.0209009
  88.4853793  19.1370190  66.3965035  88.4732463  20.0812029  66.5533306
  89.3777215  18.9540335  66.1024497  86.6589755  39.0608093  77.8222713
  87.5617002  39.0931704  78.1389208  86.4327125  38.1308544  77.8369049
  88.4143357  37.8139080  74.4832792  87.4638988  37.8140942  74.3697164
  88.7175843  37.0671815  73.9668827  92.3005912  15.7312966  70.6510972
  91.5338308  15.1771453  70.7967655  92.7116617  15.8034835  71.5125124
  84.3047673  22.0197762  84.7416153  85.1679135  21.6634567  84.9519478
  83.7313084  21.6811657  85.4291558 104.1496050  43.6499618  75.5478554
 104.7874460  43.5306366  74.8441894 104.0316893  44.5980462  75.6066507
 100.9585757  43.6027046  75.4840079 100.6204268  43.4868111  74.5960614
 101.8275525  43.2018212  75.4641085  96.8172572  45.4562523  71.4736970
  96.2537437  45.3652460  70.7053258  96.7024967  44.6362427  71.9539463
 101.4405540  44.7561898  81.4426285 101.4294180  44.3614696  80.5706788
 101.6026179  44.0227971  82.0360056  94.3637004  46.9513714  74.3121191
  95.1558296  46.6104539  73.8967490  94.6033654  47.0608689  75.2323344
 102.3972131  49.1233491  66.7851435 101.7460111  49.7087571  66.3985449
 103.1916494  49.6539685  66.8446472  96.3227758  46.2122628  67.1838569
  97.0958634  45.6651615  67.0451445  96.6753157  47.0766877  67.3953031
  98.1612801  47.5399010  80.3905469  97.8702667  48.4444641  80.2752135
  98.7969785  47.5815538  81.1049538  99.0869008  44.9175858  76.9806828
  99.6832580  44.6931881  76.2663791  99.1443979  44.1760604  77.5832276
  98.6594036  42.3715294  64.8157019  98.9119557  41.8496815  64.0540482
  97.7218595  42.2081439  64.9183703 103.7037319  41.3751072  72.6231762
 104.4900408  40.9570495  72.2722179 103.9676023  42.2797164  72.7913411
 103.8747396  46.8123922  67.3220419 103.2393229  46.8858549  68.0341324
 103.5444803  47.4017521  66.6439499 109.1045746  41.3126305  73.5264741
 109.8370918  40.7425522  73.7602570 108.3485102  40.9247906  73.9671247
  98.3790325  44.2743400  67.0181394  98.2626583  43.5988303  67.6862479
  98.4892585  43.7875774  66.2013547 100.7221866  43.7353547  70.7228083
 100.3580073  43.2084168  71.4341005 101.5788982  43.3452016  70.5494569
 106.6271166  35.0247879  77.9859350 106.2954491  35.8943290  77.7620565
 106.0316780  34.7084163  78.6653380 100.3627353  38.7643447  65.7189432
 100.5301755  39.6323683  66.0859903 100.1724522  38.9270728  64.7950721
 103.1202686  47.2260425  77.3855262 102.8203409  48.1285464  77.2771070
 102.7753745  46.9592609  78.2376415  96.5715167  43.6774222  73.4191967
  95.6465664  43.5450436  73.6269659  96.8199581  44.4568442  73.9161909
 106.5199830  39.7442966  75.0652700 105.6116707  39.6758374  74.7711461
 106.4687425  40.2214911  75.8934525 100.3416574  41.2201104  66.7036099
 100.2216199  41.6658155  67.5421579  99.6469162  41.5686422  66.1449637
  93.9323978  43.3207496  74.2535756  94.0616360  43.5741975  75.1675168
  93.2521430  43.9135204  73.9340411 100.5940695  41.1632611  83.0087597
  99.8174029  41.7226531  82.9990462 101.2331258  41.6489394  83.5302467
 108.3861476  37.9459404  76.8430574 107.7435856  38.2391937  76.1970368
 107.8816405  37.8312324  77.6483770 106.0401640  41.6922577  67.5316433
 106.9519496  41.9249964  67.3564130 105.5311287  42.2759621  66.9691511
  98.8487068  43.9718065  82.5705564  99.5901752  44.5103109  82.2940388
  98.1424053  44.5984353  82.7277116 104.3242407  46.1147205  81.1677725
 104.7325763  45.6729616  80.4232358 103.6019669  45.5399833  81.4211918
 100.6773477  41.0519812  78.5411282 101.5234673  41.4759225  78.6845931
 100.6172115  40.3953436  79.2349845 104.6471222  46.6748396  74.9230014
 104.0180084  46.8394110  74.2206082 104.2596884  47.0890005  75.6940978
 108.5260454  47.6102834  72.2774378 107.8411492  47.9901735  71.7271411
 108.6104303  48.2198160  73.0106326 103.8272923  38.7124180  80.1992456
 103.5833855  39.4666241  79.6626732 104.1032853  39.0909528  81.0339703
 105.7811386  45.2562793  78.8769722 105.9928281  45.8994552  78.2004103
 105.7341134  44.4225109  78.4091652 103.3837614  37.8680613  75.7806294
 102.5222094  38.1661867  76.0723031 103.4100049  38.0851012  74.8487326
 100.1999184  46.4122804  72.1880099 100.6637529  46.6910507  71.3984722
  99.9355982  45.5106248  72.0053190  97.0923265  45.9594285  75.1259863
  97.6624622  46.3881554  74.4877347  97.6831377  45.6776870  75.8244048
  99.1368070  42.5345956  68.9969665  99.8392113  42.9867000  69.4643591
  98.8048698  41.8929775  69.6249558  97.5848431  41.1257713  83.3720874
  96.9547092  41.8073994  83.6056271  97.4784519  41.0140794  82.4274012
  92.8793404  40.7929509  74.2986798  92.0892458  41.0487037  73.8226909
  93.3704651  41.6077847  74.4038839 106.8957213  48.1334748  77.0492079
 107.7174657  47.7314935  76.7674761 106.8919616  48.0302982  78.0008195
  94.8308149  41.1574088  71.2570275  94.0339313  41.2692782  71.7753770
  94.6033741  41.4960740  70.3911165 100.6613817  47.6818791  79.2052789
 100.7258249  48.1439199  80.0410961  99.9524741  47.0516156  79.3335099
  91.1631107  41.0459999  76.7301789  91.4139145  41.9307009  76.9959365
  91.6990655  40.8664601  75.9576881 114.9863207  44.4773496  73.3977050
 114.2326915  43.9080895  73.2421055 115.1210748  44.4436161  74.3447685
  96.8629174  35.4278479  85.7346125  96.4696120  34.8744677  86.4093769
  97.6795315  35.7389057  86.1252642  93.8291232  46.8662337  69.6459695
  94.3415753  47.6605587  69.7965260  94.4813945  46.1688627  69.5793296
  99.7797135  36.8436358  83.3266382 100.5206849  37.4443511  83.2470844
 100.0115058  36.1013996  82.7684424  94.9238473  42.0292725  81.6044611
  94.8091988  41.1277982  81.9051710  94.0682991  42.2756422  81.2529428
 102.0030311  49.9710465  83.2032112 101.5594165  49.1846844  82.8853016
 102.6647525  50.1589616  82.5376003  96.7617432  51.5006267  77.7292790
  97.3124857  51.3723330  76.9569784  95.9228908  51.8001156  77.3787683
 104.1011549  50.2513265  81.2313513 104.0830024  51.0722146  80.7393782
 105.0231469  50.1267340  81.4563654 100.5584603  47.7657395  82.0737021
 101.0912940  47.0045683  81.8436329 100.0298684  47.4731047  82.8161176
 103.7254298  32.8717461  77.6030663 103.3818568  33.7619102  77.5269774
 104.0933261  32.6819118  76.7400248  91.7940149  45.1950991  70.4219265
  92.6315371  45.6047999  70.2052973  91.9718416  44.2550433  70.3919459
 103.6904581  42.8626072  66.1103098 103.1751204  43.6330676  66.3491486
 103.4181889  42.1891208  66.7336160 101.2751692  37.7075773  71.1688337
 100.4193288  37.3182623  70.9893975 101.6878644  37.7867733  70.3088122
 102.8050839  35.2422116  75.5679896 102.3015634  35.2052251  74.7547702
 103.0981445  36.1514859  75.6276553  99.0493724  35.3260846  74.5746078
  99.9146721  35.1303654  74.2151968  99.1171233  35.0971197  75.5015435
 108.6638855  45.6158426  68.0456272 107.8868298  45.2769586  67.6011434
 109.3430336  45.6211050  67.3711237 103.4790884  40.7353164  67.9362879
 103.1741020  41.0499313  68.7873023 104.4321326  40.8134584  67.9790212
 101.9237316  46.8943387  69.5855833 101.3958677  46.1596147  69.2729071
 101.4224819  47.6718064  69.3395802 106.9030162  45.0892408  74.7022880
 106.2453836  45.7791669  74.7903008 107.7070561  45.4788840  75.0456866
  96.6556043  37.5563053  71.9462445  97.2299795  37.3338235  71.2135638
  97.2427026  37.6251748  72.6991046 105.7135621  43.4436780  72.7526822
 106.2267502  44.0766772  73.2548531 106.3636845  42.8437976  72.3870182
  96.9825631  39.5867514  65.9658330  96.1462943  39.9242201  66.2867605
  96.8430400  39.4516494  65.0285467  98.9578711  34.4304302  70.6737514
  98.3043124  34.1153320  70.0494129  98.9159185  33.8080043  71.3997337
 100.0689916  44.7123597  62.5890806  99.1616978  44.4812851  62.7881955
 100.5660948  43.9161217  62.7764788 102.9757995  53.4221105  65.5087493
 102.3019694  53.7252801  66.1172450 103.3623817  54.2250185  65.1592950
 102.1916452  40.9186236  74.9985162 101.2739013  41.1401183  74.8406850
 102.6076595  40.9932546  74.1396869 102.9751499  42.3177652  70.1287842
 103.7223318  42.8299049  69.8194964 103.2443089  41.9961704  70.9892236
 101.2478149  44.8136192  67.1114797 100.3389369  44.5295225  67.2087266
 101.2773233  45.2335271  66.2518103 106.4797417  48.4242782  70.8805964
 106.0259744  47.5833692  70.9371155 105.8491384  49.0604180  71.2180744
 105.4230336  39.3534768  72.1106632 104.6853093  38.8412154  72.4416874
 105.6757110  38.9135149  71.2989908 104.9230356  50.2619279  71.8155782
 105.2153331  50.8224336  71.0968148 105.4328977  50.5547840  72.5708941
 105.5241964  32.1311020  72.7048401 105.8300841  31.2708383  72.4174316
 106.2494569  32.7228640  72.5047395  91.8166320  42.5341706  71.0929999
  91.6190720  41.9411067  70.3681065  91.2612984  42.2293917  71.8105938
  99.7963044  42.4264813  73.2124592  99.8511653  41.4738649  73.1367069
  98.9854246  42.5824252  73.6965890 100.9454237  46.3544936  64.4502875
 100.5073667  45.6380795  63.9908513 101.6864678  46.5821051  63.8887967
  97.7355403  41.0441873  70.9714971  96.9223269  41.3436043  71.3780163
  98.2314398  40.6497561  71.6889453  99.8863981  51.0399630  72.9049235
  99.8440160  51.2660476  71.9757768 100.8026680  50.8063004  73.0535037
 103.3329615  41.5083697  79.8029865 103.6879003  41.7355170  80.6624330
 103.9801746  41.8402074  79.1807120 109.0627352  44.6302133  70.5079194
 108.9245251  44.8203729  69.5800383 108.7063571  45.3921516  70.9647245
  97.2269478  38.6160228  76.5876206  97.8668858  38.4748987  75.8899169
  96.3947009  38.3294742  76.2114808 109.0896732  46.6978660  75.5190465
 109.5233238  46.6053949  76.3673519 109.8028312  46.6736160  74.8810481
  98.0029782  47.9162659  72.7011198  98.7970381  47.4212979  72.4993773
  97.2921475  47.3880522  72.3378904 102.8224627  50.2980754  77.0523566
 102.8761649  50.8671690  77.8201282 101.9539408  50.4682639  76.6877603
  94.3112546  42.0605740  68.7770951  93.3810134  41.9990196  68.9940913
  94.4070018  41.5381693  67.9807592  94.2298095  38.5860553  71.3649193
  94.4904912  39.5005886  71.2558353  95.0515267  38.1184996  71.5145805
  95.7023020  39.9998310  78.5348017  96.3746073  39.7915672  77.8860666
  94.8752806  39.8020396  78.0953249 109.9512281  46.7402361  78.0523351
 110.1448171  47.6448171  78.2982626 109.8512899  46.2809780  78.8861936
 101.6048592  36.6260251  80.5513678 100.9576507  37.3250201  80.4578154
 102.3749607  37.0596395  80.9189926 105.0127390  46.8909103  83.6264231
 104.8612896  46.6619655  82.7094315 105.0032069  47.8479705  83.6395576
 101.7812726  44.4641016  78.6110498 102.7104786  44.6152176  78.4379465
 101.3603756  44.5525037  77.7559144 100.5801058  48.4891681  76.3809035
 100.4412144  48.1210465  77.2534973  99.7915654  49.0039320  76.2092993
 102.1306273  47.8673283  73.7697873 101.7956106  47.8274053  74.6655523
 101.6310219  47.2017999  73.2968283  96.1050517  43.2740913  79.2950454
  95.9670315  42.5421152  79.8961993  97.0155441  43.1849813  79.0134642
 105.0665465  45.2129318  64.0434933 104.4494636  44.4876146  63.9467985
 104.5981953  45.9738678  63.7002007  98.7332818  42.9860873  78.7834134
  99.4432436  42.3454065  78.7420752  98.6902126  43.2373767  79.7060315
 106.7219597  49.9228226  81.7040713 106.6632143  49.2387446  81.0371296
 107.1239115  50.6647216  81.2521339  97.4461752  39.9726091  80.6029773
  96.9099109  39.5216829  81.2551370  96.8578460  40.1071999  79.8600238
  96.8564011  39.4314742  63.1656237  95.9793477  39.3103543  62.8018484
  97.3321764  38.6400820  62.9135126 106.7237004  47.8867810  79.9354693
 105.8363783  47.5493732  80.0581092 107.2935555  47.1550841  80.1723458
  93.1800873  39.1082098  77.6882768  93.0959062  38.5007768  76.9533178
  92.3583580  39.5991117  77.6892264 100.2538157  52.5469262  76.9015936
 100.1808329  53.3524234  77.4135241  99.8115550  52.7461228  76.0763957
 103.3524587  37.5935662  73.0552963 103.8493287  36.8405624  72.7354033
 102.5811568  37.6299978  72.4896172 111.2054344  43.2976027  74.6971254
 111.1944221  44.1800743  74.3265188 110.3371724  42.9447578  74.5025791
 102.7136841  52.4456096  79.0574095 103.4264813  53.0803561  78.9849996
 102.2226869  52.5419962  78.2414096 104.4354368  46.3507349  70.6291386
 103.5010646  46.4708811  70.4596091 104.6131036  45.4479816  70.3651396
  99.9359556  39.7353045  72.7824648  99.5657343  39.1824085  73.4705553
 100.4318648  39.1311178  72.2299648 107.8226919  42.1924668  71.1641420
 108.2887371  43.0252660  71.0901723 108.2734420  41.7269650  71.8686679
  97.7648754  50.1950540  79.8779665  98.4658214  50.8287023  80.0309060
  97.2943869  50.5365271  79.1175305 105.8903150  48.5368490  68.1627573
 106.1662994  48.4225084  69.0721447 105.0207649  48.1385974  68.1239746
 105.7943582  34.5605255  75.2032322 104.8806662  34.7909482  75.3714529
 106.2236683  34.6443699  76.0546354 105.5650040  42.7495147  77.7032216
 104.9121490  42.9971055  77.0484669 105.9430420  41.9359285  77.3694693
 102.5257214  52.7854840  71.8060386 102.7079609  51.9676496  72.2688138
 103.3490200  53.0022533  71.3685276 102.8599380  51.7123026  69.0675435
 103.3887146  51.2015480  68.4545597 103.1227599  51.3965556  69.9320968
 101.6137613  43.4914958  84.1898253 100.9378250  43.3909088  84.8600628
 102.4365247  43.3354172  84.6534250  93.3616472  49.7286895  76.8110768
  93.9469909  48.9830583  76.9438672  93.1641311  50.0390852  77.6947432
 100.3560396  54.7981886  78.4255869 100.9078704  54.9613507  79.1904954
 100.6966590  55.3886324  77.7535894  95.3324889  37.1457036  79.0277754
  95.3966216  38.0071866  78.6155151  95.2692010  36.5331037  78.2950112
  94.8077162  39.2180168  82.6750788  95.4349201  38.8357245  83.2888312
  93.9505081  38.9994370  83.0406480 105.2071270  49.6243143  84.2804523
 105.7511174  50.2373102  83.7859478 104.6258115  50.1822722  84.7971536
  91.5842705  41.0256597  68.6069143  91.8796146  40.1167276  68.5536196
  90.6830740  41.0044337  68.2850145 103.4928783  52.7463861  75.4119551
 103.3679923  51.9453601  74.9030497 104.1507875  53.2410055  74.9233521
  95.1136952  39.1012594  74.5896691  94.3923537  39.7148561  74.4504165
  95.9030207  39.6370359  74.5113337 105.5563692  50.5472881  77.0399101
 104.6094027  50.4278233  76.9677428 105.9046465  49.6595379  77.1225363
  97.9163265  36.4367020  80.8637343  98.4397667  36.6829317  81.6263652
  97.6975598  37.2687055  80.4440480  93.3130546  38.7070695  68.7308468
  92.9843252  37.8268074  68.5483574  93.6669917  38.6518364  69.6184857
 102.5610125  50.3425598  73.2403453 102.4135088  49.4142305  73.4211023
 103.3863619  50.3645688  72.7560529  96.4272369  38.9943665  69.0983946
  96.7668442  39.5229586  68.3762554  96.8744490  39.3324071  69.8742512
 106.1644247  51.1654156  74.3268326 107.0890794  50.9597018  74.1892777
 105.9959550  50.9170557  75.2357668  99.1215810  37.3780715  78.5487014
  98.7812631  36.5788528  78.9507693  98.4154816  37.6782426  77.9763847
  99.7732282  34.4630028  77.0014337 100.5958351  33.9890506  76.8793227
 100.0170346  35.2420512  77.5013023  98.4140517  37.4918286  67.2977238
  99.1348879  37.8699539  66.7940955  97.7905821  38.2107163  67.4012216
 102.5571639  38.1963435  68.2335571 102.7735254  39.0788073  67.9324399
 102.0765707  37.8049649  67.5041213  97.2970861  41.1549148  74.8106315
  97.1515442  41.4689451  75.7030597  96.8196064  41.7734049  74.2577214
  99.1567244  38.1451696  74.8587205  99.1428812  37.2492790  74.5219503
  99.8739672  38.1522360  75.4925491 101.0093374  38.5789037  76.9040332
 100.7511152  39.5006107  76.9024663 100.4778415  38.1819471  77.5940796
 105.9539563  51.6839824  69.6830418 106.1276441  51.1186246  68.9304270
 106.4468454  52.4840719  69.5009908  91.7716523  43.6954493  77.7493976
  91.2269991  44.4714301  77.8814251  92.6495873  44.0425297  77.5913098
  98.5604140  37.0266077  70.1274775  98.6820051  36.0982723  70.3265662
  98.2706182  37.0404763  69.2153090 101.4295330  34.7120987  73.2641495
 101.4517027  34.7760320  72.3093474 101.8463389  33.8725496  73.4582001
 111.8078954  44.4476247  71.3020717 112.2510100  43.6983572  70.9039841
 110.9305465  44.4386383  70.9194449 106.9414736  51.0006588  66.7827316
 107.6365640  51.6213281  67.0014631 107.2837886  50.1501939  67.0579694
  92.5582545  42.8224389  80.6424133  91.8164281  42.9707024  81.2288764
  92.2375289  43.0832655  79.7790883 108.8406159  48.4506294  68.3114647
 109.3657483  48.7893566  67.5863967 108.7528511  47.5153309  68.1277781
 100.5026207  52.3640367  80.4404523 100.8113334  52.1189514  81.3127223
 101.3001689  52.5687006  79.9523394 100.5246820  54.5178277  72.6709900
 100.0851810  54.0254656  73.3642757 101.2754936  53.9751245  72.4301975
  97.9720692  50.0616286  74.7432202  97.3500701  49.3986991  74.4434429
  98.6425559  50.0877418  74.0605849  91.2047764  48.6276144  73.6323461
  90.3679672  48.1998319  73.4507463  91.1771409  48.8208588  74.5694253
  98.0445219  38.5398074  84.3364708  98.0933375  39.4160197  83.9542477
  98.5867733  37.9975467  83.7636351 108.5300065  49.0839197  83.6165845
 107.7395609  49.0663336  83.0770344 108.2933419  49.6227491  84.3714881
 108.6497940  45.9331664  80.9298573 108.6995945  45.7681671  81.8714096
 108.5411863  45.0658923  80.5396454  97.5334199  48.6120209  68.2190662
  97.6822319  49.2955674  67.5657335  98.3400642  48.5925299  68.7340118
 105.9401702  41.9162592  82.2457880 106.8411565  41.7769057  81.9541878
 106.0149677  42.0817047  83.1856057 100.2744508  39.2929446  81.0911066
  99.4047817  39.5863013  80.8193655 100.5103988  39.8769891  81.8118330
 110.1516137  48.3528605  81.1740595 109.8600945  48.7158586  82.0104056
 109.5388268  47.6395613  80.9953927 111.3511819  45.9181485  73.6943165
 112.1858710  46.3571289  73.8580725 111.4870948  45.4420138  72.8751411
 108.4003325  43.4761220  79.6420653 108.8757447  43.6688866  78.8339504
 107.4768890  43.5320406  79.3964036  95.2886832  44.6385387  69.2251731
  95.0432874  43.7347717  69.4231941  95.4582746  44.6402537  68.2831209
 102.9783541  35.5109063  78.6076487 103.4965485  36.2470090  78.2822975
 102.6238674  35.8173057  79.4423246  94.5582479  40.3713745  66.7237892
  93.8651724  40.4458100  66.0677928  94.3134231  39.6074088  67.2459409
 103.2296136  31.9309346  74.1277383 103.5097889  31.2632535  74.7537810
 104.0146743  32.1238442  73.6152047 101.0329604  51.1068340  65.6902409
 100.4603571  51.7258527  65.2372881 101.6062398  51.6567702  66.2242331
 107.1004994  40.3526980  77.8748958 108.0522417  40.4525078  77.8961182
 106.9308444  39.5605248  78.3847043 105.1219373  37.4382563  78.0608359
 104.5269306  37.7187576  77.3654848 104.8369070  37.9276464  78.8325100
 104.2526864  51.3905490  66.8210992 105.1857537  51.3251052  67.0243867
 104.1650077  52.2261757  66.3625524 106.8814881  50.7071360  63.7814939
 106.8028512  50.3731224  64.6750697 107.7024547  51.1993128  63.7806412
 109.5793072  43.5733100  76.9891258 109.5469392  42.6349100  77.1750942
 110.1893695  43.6517136  76.2557083 101.4176403  42.4429153  63.0318462
 102.3635507  42.3135361  63.1006880 101.0390648  41.7043814  63.5087890
 109.7287560  40.3644143  77.0349541 109.2126609  39.5802600  76.8479470
 110.6127509  40.0362860  77.1996061 107.3898287  34.1085159  72.9945354
 107.1923108  33.8000247  73.8788686 107.9997993  34.8346798  73.1243284
 115.3969622  44.6349106  76.1297295 116.1273010  44.3734395  76.6904998
 114.7876567  43.8977828  76.1699363 113.4784919  42.7756969  76.7271746
 112.7518082  42.6412934  76.1188238 113.0632206  43.0833798  77.5328464
 101.3015095  46.4946899  84.4919119 102.2218105  46.6725498  84.6859165
 101.2664678  45.5502944  84.3398818  99.6019320  40.3679129  62.9673347
  98.6950775  40.0712242  63.0436061  99.8795301  40.0708947  62.1007633
  90.5197260  41.6885492  73.4172394  90.2000044  40.8350801  73.1246768
  89.9730688  41.9034071  74.1730361  94.2977168  44.4047933  77.1341900
  94.5163177  45.3365041  77.1529934  94.7102942  44.0455908  77.9196704
 101.2181385  34.9116019  69.1217588 100.4082114  34.5663104  69.4972835
 101.9065802  34.6023562  69.7105200 103.1471934  33.9894065  70.7441885
 103.7002972  34.4089519  71.4031908 103.3842020  33.0629814  70.7864841
  99.1705033  39.9781139  86.5244649  99.0701760  40.9275496  86.4556740
  98.9526575  39.6499378  85.6520719  98.3718104  37.2266064  63.1085326
  99.2337268  37.5520962  63.3681144  98.5568449  36.4397560  62.5958392
  90.3885520  45.3088404  75.3865515  89.6948992  44.8942357  74.8735470
  91.1358511  45.3508940  74.7898934 106.5250741  36.0994591  70.2520549
 105.9449410  36.7579395  69.8698602 106.2586674  35.2771935  69.8407967
 104.9754307  35.4999648  72.4541870 105.4754086  35.6116183  71.6456189
 105.6189915  35.1960701  73.0942678  99.0336303  43.4078278  85.3409711
  98.5503385  44.2078638  85.5473600  99.1197242  43.4186223  84.3877155
  92.3022263  45.2406658  73.2631530  92.2792951  45.3394345  72.3113413
  92.6122899  46.0871808  73.5848696  94.9609641  47.2982813  77.3778144
  95.9152894  47.2666755  77.3108076  94.7622164  46.8373436  78.1928370
  95.5509023  45.8683929  79.9448942  96.3701912  46.3628007  79.9683779
  95.8245830  44.9515897  79.9166510 105.3075619  38.2594681  69.3076898
 104.4201474  38.5444332  69.0897092 105.7229608  38.0988444  68.4604175
 108.6590155  38.2841202  73.0231237 109.4350545  38.7737654  73.2955854
 107.9338289  38.7099256  73.4803106 111.0962714  38.9968821  74.0805178
 111.6907204  38.7564557  73.3698486 111.1689297  38.2775952  74.7078714
 104.4518832  48.0239356  63.4024918 105.1554682  48.2289358  64.0182573
 103.7281481  48.5916118  63.6674001 105.2816643  43.7749217  69.5227188
 105.2251844  44.2317768  68.6834820 105.8344985  43.0139902  69.3450031
 109.0921449  39.5638949  70.3477307 108.8358383  39.1635584  71.1785515
 108.4674317  40.2782743  70.2227446 113.4033786  42.3035022  72.8548599
 112.8433344  42.3728211  73.6280161 112.7977290  42.1276007  72.1348095
 106.3605530  48.4621885  65.4523378 107.1951134  48.0303083  65.2700852
 106.1989873  48.2903899  66.3800272 106.0151422  44.9653998  66.8179717
 105.9600226  44.7998270  65.8768161 105.3897477  45.6730031  66.9741907
  90.8043937  40.2022063  80.6441139  91.4502801  39.6921017  81.1328364
  90.5961088  40.9390744  81.2184564 103.3297329  47.2702910  86.1433280
 104.1988489  47.4443562  85.7819915 102.8504081  48.0897327  86.0209009
  99.3247547  34.4662107  66.3965035  99.3126217  35.4103947  66.5533306
 100.2170969  34.2832253  66.1024497  97.4983509  54.3900011  77.8222713
  98.4010756  54.4223621  78.1389208  97.2720879  53.4600462  77.8369049
  99.2537111  53.1430998  74.4832792  98.3032742  53.1432859  74.3697164
  99.5569598  52.3963732  73.9668827 103.1399667  31.0604884  70.6510972
 102.3732063  30.5063371  70.7967655 103.5510372  31.1326753  71.5125124
  95.1441428  37.3489680  84.7416153  96.0072889  36.9926485  84.9519478
  94.5706839  37.0103574  85.4291558 114.9889805  58.9791536  75.5478554
 115.6268215  58.8598283  74.8441894 114.8710648  59.9272380  75.6066507
 111.7979511  58.9318964  75.4840079 111.4598023  58.8160029  74.5960614
 112.6669279  58.5310129  75.4641085 107.6566327  60.7854441  71.4736970
 107.0931192  60.6944377  70.7053258 107.5418722  59.9654345  71.9539463
 112.2799294  60.0853816  81.4426285 112.2687935  59.6906614  80.5706788
 112.4419934  59.3519888  82.0360056 105.2030759  62.2805632  74.3121191
 105.9952051  61.9396457  73.8967490 105.4427409  62.3900607  75.2323344
 113.2365886  64.4525408  66.7851435 112.5853865  65.0379489  66.3985449
 114.0310248  64.9831603  66.8446472 107.1621513  61.5414545  67.1838569
 107.9352389  60.9943532  67.0451445 107.5146912  62.4058795  67.3953031
 109.0006555  62.8690928  80.3905469 108.7096421  63.7736558  80.2752135
 109.6363540  62.9107455  81.1049538 109.9262762  60.2467776  76.9806828
 110.5226334  60.0223799  76.2663791 109.9837734  59.5052522  77.5832276
 109.4987791  57.7007211  64.8157019 109.7513311  57.1788733  64.0540482
 108.5612350  57.5373357  64.9183703 114.5431073  56.7042990  72.6231762
 115.3294163  56.2862413  72.2722179 114.8069778  57.6089082  72.7913411
 114.7141151  62.1415840  67.3220419 114.0786984  62.2150467  68.0341324
 114.3838557  62.7309439  66.6439499 119.9439500  56.6418223  73.5264741
 120.6764672  56.0717440  73.7602570 119.1878856  56.2539824  73.9671247
 109.2184079  59.6035317  67.0181394 109.1020337  58.9280221  67.6862479
 109.3286339  59.1167691  66.2013547 111.5615620  59.0645465  70.7228083
 111.1973827  58.5376086  71.4341005 112.4182736  58.6743934  70.5494569
 117.4664921  50.3539797  77.9859350 117.1348246  51.2235208  77.7620565
 116.8710534  50.0376081  78.6653380 111.2021107  54.0935364  65.7189432
 111.3695510  54.9615601  66.0859903 111.0118276  54.2562646  64.7950721
 113.9596440  62.5552343  77.3855262 113.6597163  63.4577382  77.2771070
 113.6147500  62.2884526  78.2376415 107.4108922  59.0066140  73.4191967
 106.4859418  58.8742354  73.6269659 107.6593335  59.7860359  73.9161909
 117.3593584  55.0734883  75.0652700 116.4510461  55.0050292  74.7711461
 117.3081180  55.5506828  75.8934525 111.1810328  56.5493022  66.7036099
 111.0609953  56.9950073  67.5421579 110.4862916  56.8978339  66.1449637
 104.7717733  58.6499414  74.2535756 104.9010114  58.9033892  75.1675168
 104.0915184  59.2427122  73.9340411 108.9417220  69.3196664  70.3526230
 108.8641250  70.2704489  70.4314711 108.3378864  68.9742536  71.0101156
 111.4334450  56.4924529  83.0087597 110.6567784  57.0518449  82.9990462
 112.0725013  56.9781312  83.5302467 119.2255231  53.2751322  76.8430574
 118.5829611  53.5683855  76.1970368 118.7210159  53.1604242  77.6483770
 116.8795394  57.0214495  67.5316433 117.7913250  57.2541882  67.3564130
 116.3705041  57.6051539  66.9691511 109.6880822  59.3009982  82.5705564
 110.4295507  59.8395026  82.2940388 108.9817808  59.9276271  82.7277116
 115.1636162  61.4439123  81.1677725 115.5719518  61.0021533  80.4232358
 114.4413423  60.8691750  81.4211918 111.5167232  56.3811730  78.5411282
 112.3628427  56.8051143  78.6845931 111.4565870  55.7245354  79.2349845
 115.4864977  62.0040313  74.9230014 114.8573839  62.1686028  74.2206082
 115.0990639  62.4181923  75.6940978 119.3654208  62.9394751  72.2774378
 118.6805247  63.3193653  71.7271411 119.4498058  63.5490078  73.0106326
 114.6666677  54.0416098  80.1992456 114.4227609  54.7958158  79.6626732
 114.9426608  54.4201445  81.0339703 116.6205140  60.5854710  78.8769722
 116.8322035  61.2286470  78.2004103 116.5734888  59.7517027  78.4091652
 114.2231369  53.1972531  75.7806294 113.3615848  53.4953784  76.0723031
 114.2493804  53.4142930  74.8487326 111.0392938  61.7414721  72.1880099
 111.5031284  62.0202424  71.3984722 110.7749736  60.8398166  72.0053190
 107.9317019  61.2886203  75.1259863 108.5018377  61.7173471  74.4877347
 108.5225131  61.0068788  75.8244048 109.9761824  57.8637874  68.9969665
 110.6785868  58.3158918  69.4643591 109.6442453  57.2221693  69.6249558
 108.4242186  56.4549630  83.3720874 107.7940847  57.1365911  83.6056271
 108.3178274  56.3432712  82.4274012 103.7187158  56.1221426  74.2986798
 102.9286212  56.3778955  73.8226909 104.2098406  56.9369764  74.4038839
 117.7350968  63.4626666  77.0492079 118.5568412  63.0606853  76.7674761
 117.7313371  63.3594900  78.0008195 105.6701904  56.4866006  71.2570275
 104.8733067  56.5984700  71.7753770 105.4427496  56.8252658  70.3911165
 111.5007571  63.0110709  79.2052789 111.5652004  63.4731116  80.0410961
 110.7918495  62.3808074  79.3335099 102.0024861  56.3751917  76.7301789
 102.2532900  57.2598927  76.9959365 102.5384410  56.1956518  75.9576881
 125.8256961  59.8065414  73.3977050 125.0720669  59.2372812  73.2421055
 125.9604502  59.7728079  74.3447685 111.2155589  64.6778816  69.0731770
 111.0801264  65.5230352  69.5016618 111.7565402  64.8798094  68.3097704
 107.7022929  50.7570396  85.7346125 107.3089874  50.2036595  86.4093769
 108.5189069  51.0680975  86.1252642 106.4779871  65.3120011  71.7282448
 106.6546499  66.2337975  71.5403432 107.2736705  64.9978430  72.1576828
 110.6190890  52.1728275  83.3266382 111.3600603  52.7735429  83.2470844
 110.8508813  51.4305913  82.7684424 105.7632228  57.3584643  81.6044611
 105.6485743  56.4569900  81.9051710 104.9076745  57.6048339  81.2529428
 112.8424065  65.3002383  83.2032112 112.3987920  64.5138762  82.8853016
 113.5041279  65.4881533  82.5376003 107.6011187  66.8298185  77.7292790
 108.1518612  66.7015248  76.9569784 106.7622663  67.1293074  77.3787683
 114.9405304  65.5805183  81.2313513 114.9223779  66.4014064  80.7393782
 115.8625224  65.4559258  81.4563654 111.3978358  63.0949312  82.0737021
 111.9306694  62.3337601  81.8436329 110.8692439  62.8022964  82.8161176
 114.5648053  48.2009378  77.6030663 114.2212322  49.0911020  77.5269774
 114.9327015  48.0111036  76.7400248 102.6333903  60.5242909  70.4219265
 103.4709125  60.9339917  70.2052973 102.8112171  59.5842351  70.3919459
 114.5298335  58.1917989  66.1103098 114.0144959  58.9622594  66.3491486
 114.2575644  57.5183126  66.7336160 112.1145446  53.0367690  71.1688337
 111.2587043  52.6474541  70.9893975 112.5272398  53.1159651  70.3088122
 113.6444593  50.5714034  75.5679896 113.1409389  50.5344169  74.7547702
 113.9375200  51.4806776  75.6276553 109.8887479  50.6552763  74.5746078
 110.7540476  50.4595572  74.2151968 109.9564988  50.4263115  75.5015435
 119.5032609  60.9450344  68.0456272 118.7262052  60.6061504  67.6011434
 120.1824090  60.9502967  67.3711237 114.3184639  56.0645082  67.9362879
 114.0134774  56.3791231  68.7873023 115.2715081  56.1426501  67.9790212
 112.7631070  62.2235305  69.5855833 112.2352432  61.4888064  69.2729071
 112.2618573  63.0009981  69.3395802 117.7423916  60.4184325  74.7022880
 117.0847591  61.1083587  74.7903008 118.5464316  60.8080757  75.0456866
 107.4949798  52.8854971  71.9462445 108.0693550  52.6630153  71.2135638
 108.0820780  52.9543666  72.6991046 116.5529375  58.7728698  72.7526822
 117.0661257  59.4058690  73.2548531 117.2030599  58.1729894  72.3870182
 107.8219385  54.9159432  65.9658330 106.9856697  55.2534119  66.2867605
 107.6824155  54.7808412  65.0285467 109.7972466  49.7596220  70.6737514
 109.1436878  49.4445237  70.0494129 109.7552940  49.1371961  71.3997337
 110.9083671  60.0415515  62.5890806 110.0010732  59.8104769  62.7881955
 111.4054703  59.2453134  62.7764788 113.0310206  56.2478154  74.9985162
 112.1132767  56.4693101  74.8406850 113.4470350  56.3224464  74.1396869
 113.8145254  57.6469569  70.1287842 114.5617073  58.1590966  69.8194964
 114.0836843  57.3253622  70.9892236 112.0871904  60.1428110  67.1114797
 111.1783123  59.8587143  67.2087266 112.1166988  60.5627189  66.2518103
 117.3191171  63.7534699  70.8805964 116.8653498  62.9125609  70.9371155
 116.6885138  64.3896098  71.2180744 116.2624091  54.6826686  72.1106632
 115.5246848  54.1704072  72.4416874 116.5150864  54.2427067  71.2989908
 115.7624111  65.5911196  71.8155782 116.0547085  66.1516253  71.0968148
 116.2722731  65.8839757  72.5708941 116.3635718  47.4602938  72.7048401
 116.6694595  46.6000301  72.4174316 117.0888323  48.0520558  72.5047395
 102.6560074  57.8633624  71.0929999 102.4584474  57.2702985  70.3681065
 102.1006738  57.5585834  71.8105938 110.6356798  57.7556731  73.2124592
 110.6905408  56.8030567  73.1367069 109.8248000  57.9116170  73.6965890
 111.7847992  61.6836854  64.4502875 111.3467422  60.9672713  63.9908513
 112.5258433  61.9112968  63.8887967 108.5749158  56.3733790  70.9714971
 107.7617023  56.6727961  71.3780163 109.0708152  55.9789479  71.6889453
 110.7257736  66.3691547  72.9049235 110.6833915  66.5952394  71.9757768
 111.6420435  66.1354922  73.0535037 114.1723370  56.8375615  79.8029865
 114.5272757  57.0647088  80.6624330 114.8195501  57.1693992  79.1807120
 119.9021107  59.9594051  70.5079194 119.7639005  60.1495647  69.5800383
 119.5457325  60.7213434  70.9647245 108.0663233  53.9452146  76.5876206
 108.7062612  53.8040905  75.8899169 107.2340763  53.6586659  76.2114808
 119.9290486  62.0270578  75.5190465 120.3626993  61.9345867  76.3673519
 120.6422067  62.0028078  74.8810481 108.8423537  63.2454576  72.7011198
 109.6364135  62.7504896  72.4993773 108.1315229  62.7172439  72.3378904
 113.6618381  65.6272672  77.0523566 113.7155403  66.1963608  77.8201282
 112.7933162  65.7974557  76.6877603 105.1506300  57.3897658  68.7770951
 104.2203888  57.3282114  68.9940913 105.2463772  56.8673611  67.9807592
 105.0691849  53.9152471  71.3649193 105.3298666  54.8297804  71.2558353
 105.8909021  53.4476913  71.5145805 106.5416774  55.3290228  78.5348017
 107.2139828  55.1207590  77.8860666 105.7146561  55.1312314  78.0953249
 120.7906036  62.0694278  78.0523351 120.9841926  62.9740089  78.2982626
 120.6906654  61.6101697  78.8861936 112.4442346  51.9552169  80.5513678
 111.7970262  52.6542119  80.4578154 113.2143362  52.3888313  80.9189926
 115.8521144  62.2201021  83.6264231 115.7006651  61.9911573  82.7094315
 115.8425824  63.1771623  83.6395576 112.6206481  59.7932934  78.6110498
 113.5498541  59.9444093  78.4379465 112.1997511  59.8816955  77.7559144
 111.4194813  63.8183598  76.3809035 111.2805898  63.4502383  77.2534973
 110.6309409  64.3331238  76.2092993 112.9700028  63.1965201  73.7697873
 112.6349860  63.1565971  74.6655523 112.4703973  62.5309917  73.2968283
 106.9444272  58.6032831  79.2950454 106.8064070  57.8713070  79.8961993
 107.8549195  58.5141731  79.0134642 115.9059219  60.5421235  64.0434933
 115.2888390  59.8168063  63.9467985 115.4375708  61.3030596  63.7002007
 109.5726572  58.3152790  78.7834134 110.2826191  57.6745983  78.7420752
 109.5295881  58.5665685  79.7060315 117.5613351  65.2520144  81.7040713
 117.5025897  64.5679364  81.0371296 117.9632869  65.9939134  81.2521339
 108.2855506  55.3018008  80.6029773 107.7492863  54.8508747  81.2551370
 107.6972215  55.4363917  79.8600238 107.6957765  54.7606660  63.1656237
 106.8187232  54.6395460  62.8018484 108.1715518  53.9692738  62.9135126
 117.5630758  63.2159728  79.9354693 116.6757537  62.8785649  80.0581092
 118.1329309  62.4842759  80.1723458 104.0194628  54.4374016  77.6882768
 103.9352816  53.8299685  76.9533178 103.1977334  54.9283034  77.6892264
 111.0931912  67.8761180  76.9015936 111.0202083  68.6816151  77.4135241
 110.6509305  68.0753146  76.0763957 110.8821691  67.1132950  70.4118758
 110.0989213  67.6554630  70.5056982 111.5814437  67.6306930  70.8112999
 114.1918341  52.9227579  73.0552963 114.6887041  52.1697542  72.7354033
 113.4205323  52.9591896  72.4896172 122.0448099  58.6267945  74.6971254
 122.0337975  59.5092660  74.3265188 121.1765478  58.2739496  74.5025791
 113.5530595  67.7748014  79.0574095 114.2658567  68.4095479  78.9849996
 113.0620624  67.8711880  78.2414096 115.2748122  61.6799267  70.6291386
 114.3404401  61.8000729  70.4596091 115.4524791  60.7771733  70.3651396
 110.7753310  55.0644962  72.7824648 110.4051098  54.5116003  73.4705553
 111.2712403  54.4603096  72.2299648 118.6620673  57.5216586  71.1641420
 119.1281126  58.3544578  71.0901723 119.1128174  57.0561568  71.8686679
 108.6042509  65.5242457  79.8779665 109.3051968  66.1578940  80.0309060
 108.1337624  65.8657189  79.1175305 116.7296905  63.8660407  68.1627573
 117.0056749  63.7517002  69.0721447 115.8601403  63.4677892  68.1239746
 116.6337336  49.8897173  75.2032322 115.7200416  50.1201400  75.3714529
 117.0630438  49.9735617  76.0546354 116.4043795  58.0787065  77.7032216
 115.7515245  58.3262972  77.0484669 116.7824175  57.2651203  77.3694693
 113.3650969  68.1146758  71.8060386 113.5473363  67.2968414  72.2688138
 114.1883955  68.3314450  71.3685276 113.6993134  67.0414943  69.0675435
 114.2280901  66.5307398  68.4545597 113.9621354  66.7257473  69.9320968
 112.4531368  58.8206876  84.1898253 111.7772005  58.7201005  84.8600628
 113.2759002  58.6646090  84.6534250 104.2010227  65.0578812  76.8110768
 104.7863664  64.3122500  76.9438672 104.0035065  65.3682769  77.6947432
 107.0548882  68.0930060  71.8273211 106.3859257  68.5776188  71.3437251
 106.9161752  68.3399280  72.7416589  98.7927882  57.6284413  75.5315211
  98.8311981  57.0948003  76.3252329  98.2868174  57.1019618  74.9126188
 111.1954151  70.1273803  78.4255869 111.7472459  70.2905425  79.1904954
 111.5360344  70.7178241  77.7535894 106.1718644  52.4748953  79.0277754
 106.2359970  53.3363784  78.6155151 106.1085764  51.8622955  78.2950112
 105.6470916  54.5472086  82.6750788 106.2742955  54.1649163  83.2888312
 104.7898835  54.3286288  83.0406480 116.0465025  64.9535061  84.2804523
 116.5904929  65.5665019  83.7859478 115.4651870  65.5114639  84.7971536
 102.4236459  56.3548515  68.6069143 102.7189900  55.4459193  68.5536196
 101.5224495  56.3336254  68.2850145 114.3322538  68.0755779  75.4119551
 114.2073677  67.2745519  74.9030497 114.9901629  68.5701972  74.9233521
 105.9530706  54.4304511  74.5896691 105.2317292  55.0440479  74.4504165
 106.7423962  54.9662276  74.5113337 116.3957446  65.8764799  77.0399101
 115.4487782  65.7570150  76.9677428 116.7440219  64.9887297  77.1225363
 108.7557020  51.7658938  80.8637343 109.2791421  52.0121234  81.6263652
 108.5369353  52.5978973  80.4440480 104.1524301  54.0362613  68.7308468
 103.8237007  53.1559991  68.5483574 104.5063671  53.9810281  69.6184857
 113.4003880  65.6717515  73.2403453 113.2528842  64.7434223  73.4211023
 114.2257373  65.6937606  72.7560529 107.2666124  54.3235582  69.0983946
 107.6062196  54.8521504  68.3762554 107.7138244  54.6615988  69.8742512
 117.0038001  66.4946074  74.3268326 117.9284549  66.2888935  74.1892777
 116.8353305  66.2462475  75.2357668 109.9609565  52.7072633  78.5487014
 109.6206385  51.9080446  78.9507693 109.2548571  53.0074344  77.9763847
 110.6126037  49.7921945  77.0014337 111.4352106  49.3182424  76.8793227
 110.8564100  50.5712429  77.5013023 109.2534271  52.8210204  67.2977238
 109.9742634  53.1991457  66.7940955 108.6299575  53.5399081  67.4012216
 113.3965394  53.5255353  68.2335571 113.6129008  54.4079991  67.9324399
 112.9159461  53.1341566  67.5041213 108.1364615  56.4841066  74.8106315
 107.9909196  56.7981369  75.7030597 107.6589819  57.1025966  74.2577214
 109.9960998  53.4743614  74.8587205 109.9822567  52.5784707  74.5219503
 110.7133426  53.4814278  75.4925491 111.8487129  53.9080954  76.9040332
 111.5904907  54.8298025  76.9024663 111.3172169  53.5111389  77.5940796
 116.7933318  67.0131741  69.6830418 116.9670195  66.4478164  68.9304270
 117.2862209  67.8132636  69.5009908 102.6110277  59.0246410  77.7493976
 102.0663746  59.8006218  77.8814251 103.4889627  59.3717215  77.5913098
 109.3997894  52.3557994  70.1274775 109.5213805  51.4274641  70.3265662
 109.1099936  52.3696680  69.2153090 112.2689085  50.0412905  73.2641495
 112.2910781  50.1052238  72.3093474 112.6857144  49.2017413  73.4582001
 122.6472709  59.7768164  71.3020717 123.0903855  59.0275490  70.9039841
 121.7699219  59.7678301  70.9194449 117.7808490  66.3298506  66.7827316
 118.4759395  66.9505198  67.0014631 118.1231640  65.4793857  67.0579694
 103.3976299  58.1516307  80.6424133 102.6558035  58.2998942  81.2288764
 103.0769044  58.4124572  79.7790883 119.6799913  63.7798211  68.3114647
 120.2051237  64.1185484  67.5863967 119.5922266  62.8445227  68.1277781
 111.3419962  67.6932285  80.4404523 111.6507088  67.4481432  81.3127223
 112.1395444  67.8978923  79.9523394 111.3640574  69.8470195  72.6709900
 110.9245564  69.3546573  73.3642757 112.1148691  69.3043162  72.4301975
 103.8432913  66.0381735  72.6734528 104.6690933  65.7385507  72.2933171
 103.4926965  65.2689358  73.1224317 108.8114446  65.3908204  74.7432202
 108.1894455  64.7278909  74.4434429 109.4819313  65.4169336  74.0605849
 102.0441518  63.9568062  73.6323461 101.2073426  63.5290236  73.4507463
 102.0165163  64.1500505  74.5694253 108.8838974  53.8689992  84.3364708
 108.9327129  54.7452115  83.9542477 109.4261488  53.3267385  83.7636351
 119.3693819  64.4131115  83.6165845 118.5789363  64.3955254  83.0770344
 119.1327174  64.9519409  84.3714881 119.4891694  61.2623581  80.9298573
 119.5389699  61.0973589  81.8714096 119.3805618  60.3950840  80.5396454
 108.3727953  63.9412127  68.2190662 108.5216073  64.6247591  67.5657335
 109.1794397  63.9217217  68.7340118 116.7795457  57.2454509  82.2457880
 117.6805320  57.1060974  81.9541878 116.8543431  57.4108964  83.1856057
 111.1138262  54.6221364  81.0911066 110.2441572  54.9154930  80.8193655
 111.3497742  55.2061809  81.8118330 120.9909891  63.6820523  81.1740595
 120.6994700  64.0450503  82.0104056 120.3782022  62.9687531  80.9953927
 122.1905574  61.2473403  73.6943165 123.0252465  61.6863207  73.8580725
 122.3264702  60.7712056  72.8751411 119.2397079  58.8053137  79.6420653
 119.7151201  58.9980784  78.8339504 118.3162645  58.8612323  79.3964036
 106.1280586  59.9677305  69.2251731 105.8826628  59.0639635  69.4231941
 106.2976501  59.9694455  68.2831209 113.8177296  50.8400981  78.6076487
 114.3359240  51.5762008  78.2822975 113.4632429  51.1464974  79.4423246
 105.3976234  55.7005662  66.7237892 104.7045479  55.7750017  66.0677928
 105.1527985  54.9366006  67.2459409 114.0689890  47.2601264  74.1277383
 114.3491644  46.5924453  74.7537810 114.8540497  47.4530359  73.6152047
 111.8723359  66.4360257  65.6902409 111.2997326  67.0550445  65.2372881
 112.4456152  66.9859619  66.2242331 117.9398748  55.6818898  77.8748958
 118.8916171  55.7816995  77.8961182 117.7702199  54.8897166  78.3847043
 115.9613128  52.7674481  78.0608359 115.3663060  53.0479494  77.3654848
 115.6762825  53.2568382  78.8325100 115.0920618  66.7197408  66.8210992
 116.0251292  66.6542969  67.0243867 115.0043831  67.5553674  66.3625524
 117.7208635  66.0363278  63.7814939 117.6422267  65.7023142  64.6750697
 118.5418302  66.5285046  63.7806412 120.4186826  58.9025017  76.9891258
 120.3863146  57.9641018  77.1750942 121.0287450  58.9809054  76.2557083
 112.2570157  57.7721070  63.0318462 113.2029262  57.6427278  63.1006880
 111.8784402  57.0335732  63.5087890 120.5681315  55.6936061  77.0349541
 120.0520363  54.9094517  76.8479470 121.4521263  55.3654777  77.1996061
 118.2292042  49.4377076  72.9945354 118.0316863  49.1292164  73.8788686
 118.8391747  50.1638715  73.1243284 126.2363376  59.9641024  76.1297295
 126.9666765  59.7026312  76.6904998 125.6270322  59.2269746  76.1699363
 124.3178673  58.1048887  76.7271746 123.5911837  57.9704852  76.1188238
 123.9025960  58.4125715  77.5328464 112.1408850  61.8238816  84.4919119
 113.0611859  62.0017415  84.6859165 112.1058433  60.8794862  84.3398818
 110.4413074  55.6971047  62.9673347 109.5344530  55.4004159  63.0436061
 110.7189055  55.4000865  62.1007633 101.3591015  57.0177410  73.4172394
 101.0393799  56.1642718  73.1246768 100.8124443  57.2325988  74.1730361
 105.1370922  59.7339851  77.1341900 105.3556932  60.6656959  77.1529934
 105.5496696  59.3747825  77.9196704 112.0575140  50.2407936  69.1217588
 111.2475868  49.8955021  69.4972835 112.7459557  49.9315480  69.7105200
 113.9865688  49.3185983  70.7441885 114.5396727  49.7381437  71.4031908
 114.2235775  48.3921731  70.7864841 110.0098787  55.3073057  86.5244649
 109.9095514  56.2567414  86.4556740 109.7920330  54.9791296  85.6520719
 109.2111859  52.5557982  63.1085326 110.0731023  52.8812880  63.3681144
 109.3962203  51.7689478  62.5958392 101.2279275  60.6380322  75.3865515
 100.5342746  60.2234274  74.8735470 101.9752266  60.6800858  74.7898934
 117.3644495  51.4286508  70.2520549 116.7843164  52.0871312  69.8698602
 117.0980428  50.6063853  69.8407967 115.8148062  50.8291566  72.4541870
 116.3147840  50.9408101  71.6456189 116.4583670  50.5252619  73.0942678
 109.8730058  58.7370196  85.3409711 109.3897139  59.5370556  85.5473600
 109.9590997  58.7478141  84.3877155 103.1416017  60.5698575  73.2631530
 103.1186705  60.6686263  72.3113413 103.4516654  61.4163726  73.5848696
 105.8003395  62.6274730  77.3778144 106.7546649  62.5958673  77.3108076
 105.6015919  62.1665354  78.1928370 106.3902777  61.1975846  79.9448942
 107.2095666  61.6919925  79.9683779 106.6639585  60.2807815  79.9166510
 116.1469373  53.5886599  69.3076898 115.2595228  53.8736249  69.0897092
 116.5623362  53.4280362  68.4604175 119.4983910  53.6133120  73.0231237
 120.2744300  54.1029572  73.2955854 118.7732044  54.0391174  73.4803106
 121.9356468  54.3260739  74.0805178 122.5300959  54.0856475  73.3698486
 122.0083052  53.6067869  74.7078714 104.1553624  68.1694350  74.3948342
 104.0208092  67.4094751  73.8286340 103.7385686  68.8935250  73.9277131
 115.2912587  63.3531273  63.4024918 115.9948437  63.5581276  64.0182573
 114.5675236  63.9208035  63.6674001 116.1210397  59.1041135  69.5227188
 116.0645599  59.5609686  68.6834820 116.6738740  58.3431819  69.3450031
 119.9315203  54.8930866  70.3477307 119.6752137  54.4927502  71.1785515
 119.3068071  55.6074660  70.2227446 124.2427541  57.6326940  72.8548599
 123.6827099  57.7020129  73.6280161 123.6371044  57.4567924  72.1348095
 107.3122750  69.0663667  74.6066785 107.1955134  70.0109099  74.5045475
 106.4915196  68.7637228  74.9952584 117.1999284  63.7913803  65.4523378
 118.0344888  63.3595001  65.2700852 117.0383627  63.6195816  66.3800272
 116.8545176  60.2945916  66.8179717 116.7993980  60.1290187  65.8768161
 116.2291232  61.0021949  66.9741907 101.6437691  55.5313980  80.6441139
 102.2896555  55.0212934  81.1328364 101.4354843  56.2682662  81.2184564
 114.1691084  62.5994828  86.1433280 115.0382243  62.7735480  85.7819915
 113.6897835  63.4189245  86.0209009 110.1641302  49.7954025  66.3965035
 110.1519972  50.7395865  66.5533306 111.0564724  49.6124170  66.1024497
 108.3377264  69.7191929  77.8222713 109.2404511  69.7515539  78.1389208
 108.1114634  68.7892380  77.8369049 110.0930866  68.4722915  74.4832792
 109.1426497  68.4724777  74.3697164 110.3963352  67.7255650  73.9668827
 113.9793421  46.3896802  70.6510972 113.2125817  45.8355288  70.7967655
 114.3904126  46.4618670  71.5125124 105.9835182  52.6781597  84.7416153
 106.8466644  52.3218402  84.9519478 105.4100593  52.3395492  85.4291558
 125.8283559  74.3083454  75.5478554 126.4661969  74.1890201  74.8441894
 125.7104402  75.2564298  75.6066507 122.6373266  74.2610882  75.4840079
 122.2991777  74.1451946  74.5960614 123.5063034  73.8602047  75.4641085
 123.1193049  75.4145734  81.4426285 123.1081689  75.0198532  80.5706788
 123.2813688  74.6811806  82.0360056 119.8400310  78.1982845  80.3905469
 119.5490176  79.1028476  80.2752135 120.4757294  78.2399373  81.1049538
 120.7656517  75.5759694  76.9806828 121.3620089  75.3515716  76.2663791
 120.8231488  74.8344439  77.5832276 120.3381545  73.0299129  64.8157019
 120.5907066  72.5080650  64.0540482 119.4006104  72.8665275  64.9183703
 125.3824828  72.0334908  72.6231762 126.1687917  71.6154331  72.2722179
 125.6463532  72.9381000  72.7913411 130.7833255  71.9710141  73.5264741
 131.5158427  71.4009358  73.7602570 130.0272611  71.5831741  73.9671247
 122.4009375  74.3937382  70.7228083 122.0367582  73.8668003  71.4341005
 123.2576491  74.0035851  70.5494569 128.3058675  65.6831715  77.9859350
 127.9742000  66.5527126  77.7620565 127.7104289  65.3667999  78.6653380
 122.0414862  69.4227282  65.7189432 122.2089264  70.2907518  66.0859903
 121.8512031  69.5854564  64.7950721 118.2502676  74.3358058  73.4191967
 117.3253173  74.2034272  73.6269659 118.4987090  75.1152277  73.9161909
 128.1987339  70.4026801  75.0652700 127.2904216  70.3342209  74.7711461
 128.1474934  70.8798746  75.8934525 122.0204083  71.8784939  66.7036099
 121.9003708  72.3241990  67.5421579 121.3256671  72.2270257  66.1449637
 115.6111487  73.9791331  74.2535756 115.7403869  74.2325810  75.1675168
 114.9308939  74.5719039  73.9340411 122.2728204  71.8216447  83.0087597
 121.4961538  72.3810367  82.9990462 122.9118767  72.3073230  83.5302467
 130.0648985  68.6043239  76.8430574 129.4223365  68.8975773  76.1970368
 129.5603914  68.4896160  77.6483770 120.5274577  74.6301900  82.5705564
 121.2689261  75.1686944  82.2940388 119.8211562  75.2568189  82.7277116
 126.0029916  76.7731040  81.1677725 126.4113272  76.3313451  80.4232358
 125.2807178  76.1983668  81.4211918 122.3560986  71.7103647  78.5411282
 123.2022182  72.1343061  78.6845931 122.2959624  71.0537272  79.2349845
 126.3258731  77.3332231  74.9230014 125.6967593  77.4977945  74.2206082
 125.9384393  77.7473841  75.6940978 125.5060432  69.3708016  80.1992456
 125.2621364  70.1250076  79.6626732 125.7820362  69.7493363  81.0339703
 127.4598894  75.9146628  78.8769722 127.6715790  76.5578388  78.2004103
 127.4128643  75.0808944  78.4091652 125.0625123  68.5264449  75.7806294
 124.2009602  68.8245702  76.0723031 125.0887558  68.7434847  74.8487326
 120.8155579  73.1929792  68.9969665 121.5179622  73.6450835  69.4643591
 120.4836207  72.5513610  69.6249558 119.2635940  71.7841548  83.3720874
 118.6334601  72.4657829  83.6056271 119.1572028  71.6724630  82.4274012
 114.5580913  71.4513344  74.2986798 113.7679967  71.7070873  73.8226909
 115.0492160  72.2661682  74.4038839 128.5744722  78.7918583  77.0492079
 129.3962166  78.3898771  76.7674761 128.5707125  78.6886818  78.0008195
 116.5095658  71.8157923  71.2570275 115.7126822  71.9276618  71.7753770
 116.2821250  72.1544576  70.3911165 112.8418616  71.7043835  76.7301789
 113.0926654  72.5890845  76.9959365 113.3778164  71.5248436  75.9576881
 136.6650715  75.1357332  73.3977050 135.9114424  74.5664730  73.2421055
 136.7998257  75.1019996  74.3447685 118.5416683  66.0862314  85.7346125
 118.1483629  65.5328513  86.4093769 119.3582824  66.3972892  86.1252642
 121.4584644  67.5020193  83.3266382 122.1994358  68.1027346  83.2470844
 121.6902567  66.7597831  82.7684424 116.6025982  72.6876560  81.6044611
 116.4879497  71.7861818  81.9051710 115.7470500  72.9340257  81.2529428
 123.6817820  80.6294301  83.2032112 123.2381674  79.8430679  82.8853016
 124.3435034  80.8173451  82.5376003 125.7799058  80.9097101  81.2313513
 125.7617533  81.7305982  80.7393782 126.7018978  80.7851176  81.4563654
 122.2372112  78.4241230  82.0737021 122.7700449  77.6629518  81.8436329
 121.7086193  78.1314882  82.8161176 125.4041807  63.5301296  77.6030663
 125.0606077  64.4202938  77.5269774 125.7720770  63.3402954  76.7400248
 122.9539201  68.3659608  71.1688337 122.0980797  67.9766458  70.9893975
 123.3666153  68.4451569  70.3088122 124.4838348  65.9005951  75.5679896
 123.9803143  65.8636086  74.7547702 124.7768954  66.8098694  75.6276553
 120.7281233  65.9844681  74.5746078 121.5934230  65.7887490  74.2151968
 120.7958742  65.7555033  75.5015435 125.1578393  71.3936999  67.9362879
 124.8528529  71.7083148  68.7873023 126.1108835  71.4718419  67.9790212
 128.5817671  75.7476243  74.7022880 127.9241345  76.4375504  74.7903008
 129.3858070  76.1372675  75.0456866 118.3343552  68.2146889  71.9462445
 118.9087304  67.9922070  71.2135638 118.9214535  68.2835583  72.6991046
 118.6613140  70.2451350  65.9658330 117.8250452  70.5826036  66.2867605
 118.5217909  70.1100330  65.0285467 120.6366220  65.0888138  70.6737514
 119.9830633  64.7737155  70.0494129 120.5946694  64.4663878  71.3997337
 123.8703961  71.5770071  74.9985162 122.9526522  71.7985018  74.8406850
 124.2864104  71.6516382  74.1396869 124.6539008  72.9761487  70.1287842
 125.4010827  73.4882884  69.8194964 124.9230598  72.6545540  70.9892236
 127.1017845  70.0118603  72.1106632 126.3640602  69.4995989  72.4416874
 127.3544619  69.5718985  71.2989908 127.2029473  62.7894855  72.7048401
 127.5088350  61.9292219  72.4174316 127.9282078  63.3812475  72.5047395
 121.4750553  73.0848648  73.2124592 121.5299162  72.1322485  73.1367069
 120.6641755  73.2408087  73.6965890 119.4142912  71.7025708  70.9714971
 118.6010778  72.0019879  71.3780163 119.9101907  71.3081397  71.6889453
 125.0117124  72.1667532  79.8029865 125.3666512  72.3939006  80.6624330
 125.6589255  72.4985909  79.1807120 118.9056987  69.2744064  76.5876206
 119.5456367  69.1332823  75.8899169 118.0734518  68.9878577  76.2114808
 130.7684241  77.3562495  75.5190465 131.2020747  77.2637784  76.3673519
 131.4815821  77.3319996  74.8810481 115.9085604  69.2444389  71.3649193
 116.1692421  70.1589722  71.2558353 116.7302776  68.7768831  71.5145805
 117.3810529  70.6582146  78.5348017 118.0533582  70.4499508  77.8860666
 116.5540315  70.4604232  78.0953249 131.6299790  77.3986196  78.0523351
 131.8235680  78.3032007  78.2982626 131.5300408  76.9393615  78.8861936
 123.2836101  67.2844087  80.5513678 122.6364016  67.9834036  80.4578154
 124.0537116  67.7180231  80.9189926 126.6914899  77.5492939  83.6264231
 126.5400405  77.3203490  82.7094315 126.6819578  78.5063540  83.6395576
 123.4600235  75.1224852  78.6110498 124.3892295  75.2736011  78.4379465
 123.0391265  75.2108872  77.7559144 123.8093782  78.5257119  73.7697873
 123.4743615  78.4857889  74.6655523 123.3097728  77.8601835  73.2968283
 117.7838026  73.9324749  79.2950454 117.6457824  73.2004988  79.8961993
 118.6942950  73.8433649  79.0134642 120.4120327  73.6444708  78.7834134
 121.1219945  73.0037900  78.7420752 120.3689635  73.8957603  79.7060315
 128.4007106  80.5812061  81.7040713 128.3419652  79.8971281  81.0371296
 128.8026624  81.3231051  81.2521339 119.1249261  70.6309926  80.6029773
 118.5886618  70.1800664  81.2551370 118.5365969  70.7655835  79.8600238
 118.5351520  70.0898577  63.1656237 117.6580986  69.9687378  62.8018484
 119.0109273  69.2984656  62.9135126 128.4024513  78.5451645  79.9354693
 127.5151292  78.2077567  80.0581092 128.9723064  77.8134677  80.1723458
 114.8588382  69.7665934  77.6882768 114.7746571  69.1591603  76.9533178
 114.0371088  70.2574952  77.6892264 125.0312096  68.2519497  73.0552963
 125.5280795  67.4989459  72.7354033 124.2599077  68.2883814  72.4896172
 132.8841853  73.9559863  74.6971254 132.8731730  74.8384578  74.3265188
 132.0159233  73.6031413  74.5025791 121.6147065  70.3936880  72.7824648
 121.2444852  69.8407920  73.4705553 122.1106157  69.7895014  72.2299648
 127.4731091  65.2189091  75.2032322 126.5594171  65.4493317  75.3714529
 127.9024192  65.3027535  76.0546354 127.2437549  73.4078983  77.7032216
 126.5908999  73.6554890  77.0484669 127.6217929  72.5943121  77.3694693
 123.2925122  74.1498794  84.1898253 122.6165759  74.0492923  84.8600628
 124.1152756  73.9938007  84.6534250 109.6321636  72.9576330  75.5315211
 109.6705736  72.4239921  76.3252329 109.1261929  72.4311536  74.9126188
 117.0112398  67.8040871  79.0277754 117.0753725  68.6655702  78.6155151
 116.9479519  67.1914873  78.2950112 116.4864671  69.8764003  82.6750788
 117.1136710  69.4941081  83.2888312 115.6292590  69.6578205  83.0406480
 126.8858779  80.2826979  84.2804523 127.4298683  80.8956937  83.7859478
 126.3045624  80.8406557  84.7971536 125.1716292  83.4047697  75.4119551
 125.0467432  82.6037436  74.9030497 125.8295384  83.8993890  74.9233521
 116.7924461  69.7596429  74.5896691 116.0711046  70.3732397  74.4504165
 117.5817716  70.2954194  74.5113337 127.2351201  81.2056717  77.0399101
 126.2881536  81.0862068  76.9677428 127.5833974  80.3179215  77.1225363
 119.5950774  67.0950856  80.8637343 120.1185176  67.3413152  81.6263652
 119.3763107  67.9270890  80.4440480 114.9918055  69.3654530  68.7308468
 114.6630761  68.4851909  68.5483574 115.3457426  69.3102199  69.6184857
 118.1059878  69.6527500  69.0983946 118.4455951  70.1813421  68.3762554
 118.5531999  69.9907906  69.8742512 120.8003319  68.0364551  78.5487014
 120.4600140  67.2372364  78.9507693 120.0942325  68.3366262  77.9763847
 121.4519791  65.1213863  77.0014337 122.2745860  64.6474341  76.8793227
 121.6957855  65.9004347  77.5013023 120.0928026  68.1502122  67.2977238
 120.8136388  68.5283374  66.7940955 119.4693330  68.8690998  67.4012216
 124.2359148  68.8547271  68.2335571 124.4522763  69.7371908  67.9324399
 123.7553216  68.4633484  67.5041213 118.9758370  71.8132984  74.8106315
 118.8302951  72.1273287  75.7030597 118.4983573  72.4317884  74.2577214
 120.8354753  68.8035532  74.8587205 120.8216321  67.9076625  74.5219503
 121.5527181  68.8106196  75.4925491 122.6880883  69.2372872  76.9040332
 122.4298661  70.1589943  76.9024663 122.1565924  68.8403307  77.5940796
 113.4504032  74.3538328  77.7493976 112.9057500  75.1298136  77.8814251
 114.3283382  74.7009133  77.5913098 120.2391649  67.6849912  70.1274775
 120.3607560  66.7566558  70.3265662 119.9493691  67.6988598  69.2153090
 123.1082839  65.3704822  73.2641495 123.1304536  65.4344156  72.3093474
 123.5250898  64.5309331  73.4582001 133.4866463  75.1060082  71.3020717
 133.9297609  74.3567407  70.9039841 132.6092974  75.0970218  70.9194449
 114.2370054  73.4808224  80.6424133 113.4951790  73.6290860  81.2288764
 113.9162798  73.7416490  79.7790883 119.7232728  69.1981909  84.3364708
 119.7720884  70.0744032  83.9542477 120.2655242  68.6559302  83.7636351
 130.2087574  79.7423033  83.6165845 129.4183118  79.7247172  83.0770344
 129.9720928  80.2811326  84.3714881 130.3285449  76.5915499  80.9298573
 130.3783454  76.4265506  81.8714096 130.2199372  75.7242758  80.5396454
 127.6189211  72.5746427  82.2457880 128.5199074  72.4352892  81.9541878
 127.6937186  72.7400882  83.1856057 121.9532017  69.9513282  81.0911066
 121.0835326  70.2446848  80.8193655 122.1891497  70.5353727  81.8118330
 131.8303646  79.0112441  81.1740595 131.5388454  79.3742421  82.0104056
 131.2175777  78.2979449  80.9953927 133.0299328  76.5765320  73.6943165
 133.8646219  77.0155124  73.8580725 133.1658457  76.1003974  72.8751411
 130.0790834  74.1345055  79.6420653 130.5544956  74.3272701  78.8339504
 129.1556399  74.1904241  79.3964036 124.6571050  66.1692899  78.6076487
 125.1752994  66.9053926  78.2822975 124.3026183  66.4756892  79.4423246
 124.9083645  62.5893181  74.1277383 125.1885398  61.9216370  74.7537810
 125.6934252  62.7822277  73.6152047 128.7792503  71.0110815  77.8748958
 129.7309926  71.1108913  77.8961182 128.6095953  70.2189084  78.3847043
 126.8006882  68.0966398  78.0608359 126.2056815  68.3771411  77.3654848
 126.5156579  68.5860299  78.8325100 131.2580581  74.2316935  76.9891258
 131.2256901  73.2932936  77.1750942 131.8681204  74.3100972  76.2557083
 131.4075069  71.0227978  77.0349541 130.8914118  70.2386435  76.8479470
 132.2915018  70.6946695  77.1996061 129.0685796  64.7668994  72.9945354
 128.8710617  64.4584082  73.8788686 129.6785502  65.4930633  73.1243284
 137.0757131  75.2932942  76.1297295 137.8060519  75.0318230  76.6904998
 136.4664076  74.5561664  76.1699363 135.1572428  73.4340804  76.7271746
 134.4305591  73.2996769  76.1188238 134.7419715  73.7417633  77.5328464
 122.9802604  77.1530734  84.4919119 123.9005614  77.3309333  84.6859165
 122.9452187  76.2086779  84.3398818 112.1984769  72.3469328  73.4172394
 111.8787553  71.4934636  73.1246768 111.6518197  72.5617906  74.1730361
 115.9764677  75.0631769  77.1341900 116.1950686  75.9948877  77.1529934
 116.3890450  74.7039743  77.9196704 122.8968894  65.5699854  69.1217588
 122.0869623  65.2246939  69.4972835 123.5853311  65.2607398  69.7105200
 124.8259443  64.6477901  70.7441885 125.3790481  65.0673354  71.4031908
 125.0629529  63.7213649  70.7864841 120.8492542  70.6364974  86.5244649
 120.7489269  71.5859331  86.4556740 120.6314084  70.3083213  85.6520719
 120.0505613  67.8849900  63.1085326 120.9124777  68.2104798  63.3681144
 120.2355958  67.0981395  62.5958392 112.0673029  75.9672239  75.3865515
 111.3736501  75.5526192  74.8735470 112.8146020  76.0092776  74.7898934
 128.2038250  66.7578426  70.2520549 127.6236919  67.4163230  69.8698602
 127.9374183  65.9355771  69.8407967 126.6541816  66.1583484  72.4541870
 127.1541595  66.2700018  71.6456189 127.2977424  65.8544537  73.0942678
 120.7123812  74.0662113  85.3409711 120.2290894  74.8662473  85.5473600
 120.7984751  74.0770058  84.3877155 117.2296532  76.5267764  79.9448942
 118.0489421  77.0211843  79.9683779 117.5033339  75.6099732  79.9166510
 126.9863128  68.9178516  69.3076898 126.0988983  69.2028167  69.0897092
 127.4017117  68.7572280  68.4604175 130.3377664  68.9425037  73.0231237
 131.1138054  69.4321490  73.2955854 129.6125798  69.3683092  73.4803106
 132.7750223  69.6552657  74.0805178 133.3694713  69.4148393  73.3698486
 132.8476806  68.9359787  74.7078714 130.7708958  70.2222784  70.3477307
 130.5145892  69.8219420  71.1785515 130.1461826  70.9366578  70.2227446
 135.0821295  72.9618857  72.8548599 134.5220853  73.0312047  73.6280161
 134.4764799  72.7859842  72.1348095 112.4831446  70.8605898  80.6441139
 113.1290310  70.3504852  81.1328364 112.2748597  71.5974580  81.2184564
 125.0084838  77.9286745  86.1433280 125.8775998  78.1027398  85.7819915
 124.5291590  78.7481162  86.0209009 121.0035056  65.1245943  66.3965035
 120.9913726  66.0687782  66.5533306 121.8958478  64.9416088  66.1024497
 124.8187176  61.7188719  70.6510972 124.0519572  61.1647206  70.7967655
 125.2297881  61.7910588  71.5125124 116.8228937  68.0073515  84.7416153
 117.6860398  67.6510320  84.9519478 116.2494348  67.6687410  85.4291558
 136.6677314  89.6375371  75.5478554 137.3055724  89.5182119  74.8441894
 136.5498157  90.5856215  75.6066507 133.4767020  89.5902799  75.4840079
 133.1385532  89.4743864  74.5960614 134.3456788  89.1893965  75.4641085
 133.9586803  90.7437651  81.4426285 133.9475444  90.3490449  80.5706788
 134.1207443  90.0103724  82.0360056 130.6794064  93.5274763  80.3905469
 130.3883930  94.4320394  80.2752135 131.3151049  93.5691291  81.1049538
 131.6050271  90.9051612  76.9806828 132.2013843  90.6807634  76.2663791
 131.6625243  90.1636357  77.5832276 136.2218582  87.3626825  72.6231762
 137.0081672  86.9446248  72.2722179 136.4857287  88.2672917  72.7913411
 141.6227009  87.3002058  73.5264741 142.3552181  86.7301275  73.7602570
 140.8666365  86.9123659  73.9671247 139.1452430  81.0123633  77.9859350
 138.8135755  81.8819043  77.7620565 138.5498043  80.6959917  78.6653380
 135.6383949  93.2136179  77.3855262 135.3384672  94.1161217  77.2771070
 135.2935009  92.9468362  78.2376415 139.0381093  85.7318719  75.0652700
 138.1297970  85.6634127  74.7711461 138.9868689  86.2090664  75.8934525
 130.6204729  99.9780499  70.3526230 130.5428759 100.9288324  70.4314711
 130.0166373  99.6326371  71.0101156 133.1121959  87.1508364  83.0087597
 132.3355293  87.7102284  82.9990462 133.7512522  87.6365147  83.5302467
 140.9042740  83.9335157  76.8430574 140.2617120  84.2267690  76.1970368
 140.3997668  83.8188077  77.6483770 138.5582903  87.6798330  67.5316433
 139.4700759  87.9125717  67.3564130 138.0492550  88.2635374  66.9691511
 131.3668331  89.9593818  82.5705564 132.1083016  90.4978862  82.2940388
 130.6605317  90.5860106  82.7277116 136.8423671  92.1022958  81.1677725
 137.2507027  91.6605369  80.4232358 136.1200932  91.5275586  81.4211918
 133.1954741  87.0395565  78.5411282 134.0415936  87.4634978  78.6845931
 133.1353379  86.3829189  79.2349845 137.1652485  92.6624149  74.9230014
 136.5361348  92.8269863  74.2206082 136.7778148  93.0765758  75.6940978
 141.0441717  93.5978587  72.2774378 140.3592756  93.9777488  71.7271411
 141.1285567  94.2073913  73.0106326 136.3454186  84.6999933  80.1992456
 136.1015118  85.4541994  79.6626732 136.6214117  85.0785281  81.0339703
 138.2992649  91.2438546  78.8769722 138.5109544  91.8870306  78.2004103
 138.2522397  90.4100862  78.4091652 135.9018878  83.8556366  75.7806294
 135.0403357  84.1537620  76.0723031 135.9281313  84.0726765  74.8487326
 130.1029695  87.1133466  83.3720874 129.4728356  87.7949747  83.6056271
 129.9965783  87.0016547  82.4274012 139.4138477  94.1210501  77.0492079
 140.2355921  93.7190688  76.7674761 139.4100880  94.0178735  78.0008195
 133.1795080  93.6694544  79.2052789 133.2439513  94.1314952  80.0410961
 132.4706004  93.0391909  79.3335099 147.5044470  90.4649250  73.3977050
 146.7508178  89.8956648  73.2421055 147.6392011  90.4311914  74.3447685
 129.3810438  81.4154232  85.7346125 128.9877383  80.8620430  86.4093769
 130.1976578  81.7264810  86.1252642 132.2978399  82.8312111  83.3266382
 133.0388112  83.4319264  83.2470844 132.5296321  82.0889749  82.7684424
 127.4419737  88.0168478  81.6044611 127.3273252  87.1153735  81.9051710
 126.5864254  88.2632175  81.2529428 134.5211574  95.9586218  83.2032112
 134.0775429  95.1722597  82.8853016 135.1828788  96.1465369  82.5376003
 129.2798696  97.4882020  77.7292790 129.8306121  97.3599083  76.9569784
 128.4410171  97.7876909  77.3787683 136.6192812  96.2389018  81.2313513
 136.6011288  97.0597899  80.7393782 137.5412733  96.1143093  81.4563654
 133.0765867  93.7533148  82.0737021 133.6094203  92.9921436  81.8436329
 132.5479948  93.4606800  82.8161176 136.2435562  78.8593214  77.6030663
 135.8999831  79.7494855  77.5269774 136.6114524  78.6694871  76.7400248
 135.3232102  81.2297869  75.5679896 134.8196898  81.1928004  74.7547702
 135.6162709  82.1390612  75.6276553 141.1820118  91.6034179  68.0456272
 140.4049561  91.2645339  67.6011434 141.8611599  91.6086803  67.3711237
 139.4211425  91.0768161  74.7022880 138.7635100  91.7667422  74.7903008
 140.2251825  91.4664593  75.0456866 138.2316884  89.4312533  72.7526822
 138.7448766  90.0642525  73.2548531 138.8818108  88.8313729  72.3870182
 135.4939258  99.4096858  65.5087493 134.8200957  99.7128554  66.1172450
 135.8805080 100.2125938  65.1592950 134.7097715  86.9061989  74.9985162
 133.7920276  87.1276936  74.8406850 135.1257859  86.9808299  74.1396869
 138.9978680  94.4118535  70.8805964 138.5441007  93.5709445  70.9371155
 138.3672647  95.0479933  71.2180744 137.9411600  85.3410521  72.1106632
 137.2034357  84.8287907  72.4416874 138.1938373  84.9010902  71.2989908
 137.4411620  96.2495032  71.8155782 137.7334594  96.8100089  71.0968148
 137.9510240  96.5423593  72.5708941 138.0423227  78.1186773  72.7048401
 138.3482104  77.2584136  72.4174316 138.7675832  78.7104393  72.5047395
 132.4045245  97.0275383  72.9049235 132.3621424  97.2536229  71.9757768
 133.3207944  96.7938757  73.0535037 135.8510879  87.4959450  79.8029865
 136.2060266  87.7230923  80.6624330 136.4983010  87.8277827  79.1807120
 141.5808616  90.6177886  70.5079194 141.4426514  90.8079482  69.5800383
 141.2244834  91.3797269  70.9647245 141.6077995  92.6854413  75.5190465
 142.0414502  92.5929702  76.3673519 142.3209576  92.6611914  74.8810481
 135.3405890  96.2856507  77.0523566 135.3942912  96.8547443  77.8201282
 134.4720671  96.4558392  76.6877603 128.2204283  85.9874063  78.5348017
 128.8927337  85.7791426  77.8860666 127.3934070  85.7896149  78.0953249
 142.4693545  92.7278114  78.0523351 142.6629435  93.6323924  78.2982626
 142.3694163  92.2685533  78.8861936 134.1229855  82.6136004  80.5513678
 133.4757770  83.3125954  80.4578154 134.8930871  83.0472148  80.9189926
 137.5308653  92.8784856  83.6264231 137.3794160  92.6495408  82.7094315
 137.5213333  93.8355458  83.6395576 134.2993990  90.4516769  78.6110498
 135.2286050  90.6027929  78.4379465 133.8785020  90.5400790  77.7559144
 133.6930474  99.5776530  67.7234572 133.8682229  99.1064573  68.5380195
 133.0063262 100.2042296  67.9515833 134.6487537  93.8549036  73.7697873
 134.3137369  93.8149806  74.6655523 134.1491482  93.1893752  73.2968283
 128.6231781  89.2616666  79.2950454 128.4851579  88.5296905  79.8961993
 129.5336704  89.1725566  79.0134642 137.5846728  91.2005071  64.0434933
 136.9675899  90.4751899  63.9467985 137.1163217  91.9614431  63.7002007
 131.2514081  88.9736626  78.7834134 131.9613700  88.3329818  78.7420752
 131.2083390  89.2249521  79.7060315 139.2400860  95.9103979  81.7040713
 139.1813406  95.2263199  81.0371296 139.6420378  96.6522969  81.2521339
 129.9643015  85.9601844  80.6029773 129.4280372  85.5092582  81.2551370
 129.3759724  86.0947752  79.8600238 128.2591559 102.7265893  74.4974432
 128.4988157 103.3584417  75.1753451 127.4160755 102.3753933  74.7839791
 139.2418267  93.8743563  79.9354693 138.3545046  93.5369485  80.0581092
 139.8116818  93.1426594  80.1723458 125.6982137  85.0957851  77.6882768
 125.6140325  84.4883521  76.9533178 124.8764843  85.5866870  77.6892264
 132.7719421  98.5345015  76.9015936 132.6989592  99.3399987  77.4135241
 132.3296814  98.7336981  76.0763957 132.5609200  97.7716785  70.4118758
 131.7776722  98.3138466  70.5056982 133.2601945  98.2890765  70.8112999
 135.8705850  83.5811415  73.0552963 136.3674550  82.8281377  72.7354033
 135.0992832  83.6175731  72.4896172 143.7235608  89.2851780  74.6971254
 143.7125484  90.1676496  74.3265188 142.8552987  88.9323331  74.5025791
 135.2318104  98.4331849  79.0574095 135.9446076  99.0679314  78.9849996
 134.7408133  98.5295715  78.2414096 140.3408182  88.1800421  71.1641420
 140.8068635  89.0128413  71.0901723 140.7915683  87.7145403  71.8686679
 130.2830018  96.1826293  79.8779665 130.9839477  96.8162776  80.0309060
 129.8125133  96.5241024  79.1175305 138.4084414  94.5244243  68.1627573
 138.6844257  94.4100837  69.0721447 137.5388912  94.1261727  68.1239746
 138.3124845  80.5481008  75.2032322 137.3987925  80.7785235  75.3714529
 138.7417947  80.6319452  76.0546354 138.0831304  88.7370900  77.7032216
 137.4302754  88.9846808  77.0484669 138.4611684  87.9235038  77.3694693
 135.0438478  98.7730593  71.8060386 135.2260872  97.9552249  72.2688138
 135.8671464  98.9898286  71.3685276 135.3780643  97.6998779  69.0675435
 135.9068410  97.1891233  68.4545597 135.6408863  97.3841309  69.9320968
 134.1318877  89.4790711  84.1898253 133.4559514  89.3784841  84.8600628
 134.9546511  89.3229925  84.6534250 125.8797736  95.7162648  76.8110768
 126.4651173  94.9706336  76.9438672 125.6822574  96.0266605  77.6947432
 132.8741660 100.7857639  78.4255869 133.4259968 100.9489260  79.1904954
 133.2147853 101.3762077  77.7535894 127.8506153  83.1332789  79.0277754
 127.9147479  83.9947619  78.6155151 127.7873273  82.5206790  78.2950112
 127.3258425  85.2055921  82.6750788 127.9530464  84.8232998  83.2888312
 126.4686344  84.9870123  83.0406480 137.7252534  95.6118896  84.2804523
 138.2692438  96.2248855  83.7859478 137.1439379  96.1698475  84.7971536
 136.0110047  98.7339614  75.4119551 135.8861186  97.9329354  74.9030497
 136.6689138  99.2285808  74.9233521 138.0744955  96.5348634  77.0399101
 137.1275291  96.4153986  76.9677428 138.4227728  95.6471132  77.1225363
 130.4344529  82.4242773  80.8637343 130.9578930  82.6705070  81.6263652
 130.2156862  83.2562808  80.4440480 135.0791389  96.3301351  73.2403453
 134.9316351  95.4018058  73.4211023 135.9044882  96.3521441  72.7560529
 138.6825510  97.1529909  74.3268326 139.6072058  96.9472771  74.1892777
 138.5140814  96.9046310  75.2357668 131.6397074  83.3656468  78.5487014
 131.2993894  82.5664281  78.9507693 130.9336080  83.6658179  77.9763847
 132.2913546  80.4505781  77.0014337 133.1139615  79.9766259  76.8793227
 132.5351609  81.2296265  77.5013023 133.5274638  84.5664790  76.9040332
 133.2692416  85.4881860  76.9024663 132.9959678  84.1695224  77.5940796
 138.4720827  97.6715577  69.6830418 138.6457704  97.1061999  68.9304270
 138.9649718  98.4716472  69.5009908 133.9476593  80.6996740  73.2641495
 133.9698290  80.7636073  72.3093474 134.3644652  79.8601249  73.4582001
 144.3260218  90.4352000  71.3020717 144.7691364  89.6859325  70.9039841
 143.4486728  90.4262136  70.9194449 139.4595999  96.9882341  66.7827316
 140.1546904  97.6089034  67.0014631 139.8019149  96.1377692  67.0579694
 125.0763808  88.8100142  80.6424133 124.3345544  88.9582777  81.2288764
 124.7556553  89.0708408  79.7790883 141.3587422  94.4382047  68.3114647
 141.8838746  94.7769319  67.5863967 141.2709775  93.5029062  68.1277781
 133.0207471  98.3516120  80.4404523 133.3294597  98.1065267  81.3127223
 133.8182953  98.5562759  79.9523394 133.0428083 100.5054030  72.6709900
 132.6033073 100.0130409  73.3642757 133.7936200  99.9626998  72.4301975
 125.5220422  96.6965571  72.6734528 126.3478442  96.3969343  72.2933171
 125.1714474  95.9273193  73.1224317 123.7229027  94.6151897  73.6323461
 122.8860935  94.1874072  73.4507463 123.6952672  94.8084341  74.5694253
 130.5626483  84.5273827  84.3364708 130.6114638  85.4035950  83.9542477
 131.1048997  83.9851220  83.7636351 141.0481328  95.0714950  83.6165845
 140.2576872  95.0539089  83.0770344 140.8114683  95.6103244  84.3714881
 141.1679203  91.9207417  80.9298573 141.2177208  91.7557424  81.8714096
 141.0593127  91.0534676  80.5396454 138.4582966  87.9038345  82.2457880
 139.3592829  87.7644810  81.9541878 138.5330940  88.0692800  83.1856057
 132.7925771  85.2805199  81.0911066 131.9229080  85.5738766  80.8193655
 133.0285251  85.8645644  81.8118330 142.6697400  94.3404358  81.1740595
 142.3782208  94.7034339  82.0104056 142.0569531  93.6271367  80.9953927
 143.8693083  91.9057238  73.6943165 144.7039974  92.3447042  73.8580725
 144.0052211  91.4295891  72.8751411 140.9184588  89.4636973  79.6420653
 141.3938710  89.6564619  78.8339504 139.9950154  89.5196159  79.3964036
 135.4964805  81.4984816  78.6076487 136.0146749  82.2345843  78.2822975
 135.1419938  81.8048810  79.4423246 135.7477399  77.9185099  74.1277383
 136.0279153  77.2508288  74.7537810 136.5328006  78.1114195  73.6152047
 133.5510868  97.0944093  65.6902409 132.9784835  97.7134280  65.2372881
 134.1243661  97.6443455  66.2242331 139.6186257  86.3402733  77.8748958
 140.5703680  86.4400831  77.8961182 139.4489708  85.5481001  78.3847043
 137.6400637  83.4258316  78.0608359 137.0450569  83.7063329  77.3654848
 137.3550334  83.9152217  78.8325100 136.7708127  97.3781243  66.8210992
 137.7038801  97.3126805  67.0243867 136.6831340  98.2137510  66.3625524
 139.3996144  96.6947113  63.7814939 139.3209776  96.3606977  64.6750697
 140.2205811  97.1868881  63.7806412 142.0974335  89.5608853  76.9891258
 142.0650655  88.6224853  77.1750942 142.7074959  89.6392889  76.2557083
 142.2468824  86.3519896  77.0349541 141.7307872  85.5678353  76.8479470
 143.1308772  86.0238613  77.1996061 139.9079551  80.0960912  72.9945354
 139.7104372  79.7876000  73.8788686 140.5179256  80.8222551  73.1243284
 145.9966182  88.7632722  76.7271746 145.2699346  88.6288687  76.1188238
 145.5813469  89.0709551  77.5328464 133.8196359  92.4822652  84.4919119
 134.7399368  92.6601251  84.6859165 133.7845942  91.5378697  84.3398818
 126.8158431  90.3923686  77.1341900 127.0344441  91.3240794  77.1529934
 127.2284205  90.0331661  77.9196704 135.6653197  79.9769819  70.7441885
 136.2184236  80.3965272  71.4031908 135.9023284  79.0505567  70.7864841
 131.6886296  85.9656892  86.5244649 131.5883023  86.9151249  86.4556740
 131.4707839  85.6375131  85.6520719 139.0432004  82.0870344  70.2520549
 138.4630673  82.7455148  69.8698602 138.7767937  81.2647688  69.8407967
 137.4935571  81.4875401  72.4541870 137.9935349  81.5991936  71.6456189
 138.1371179  81.1836454  73.0942678 131.5517567  89.3954031  85.3409711
 131.0684648  90.1954391  85.5473600 131.6378506  89.4061976  84.3877155
 127.4790904  93.2858566  77.3778144 128.4334158  93.2542508  77.3108076
 127.2803428  92.8249189  78.1928370 128.0690286  91.8559682  79.9448942
 128.8883175  92.3503760  79.9683779 128.3427094  90.9391650  79.9166510
 137.8256882  84.2470434  69.3076898 136.9382737  84.5320085  69.0897092
 138.2410871  84.0864197  68.4604175 141.1771418  84.2716955  73.0231237
 141.9531809  84.7613407  73.2955854 140.4519553  84.6975009  73.4803106
 143.6143977  84.9844574  74.0805178 144.2088468  84.7440310  73.3698486
 143.6870561  84.2651705  74.7078714 125.8341133  98.8278185  74.3948342
 125.6995601  98.0678586  73.8286340 125.4173195  99.5519085  73.9277131
 136.9700096  94.0115109  63.4024918 137.6735946  94.2165111  64.0182573
 136.2462745  94.5791871  63.6674001 137.7997906  89.7624970  69.5227188
 137.7433107  90.2193521  68.6834820 138.3526249  89.0015655  69.3450031
 141.6102712  85.5514702  70.3477307 141.3539646  85.1511338  71.1785515
 140.9855580  86.2658496  70.2227446 145.9215050  88.2910775  72.8548599
 145.3614608  88.3603964  73.6280161 145.3158553  88.1151760  72.1348095
 128.9910259  99.7247502  74.6066785 128.8742643 100.6692935  74.5045475
 128.1702705  99.4221064  74.9952584 138.8786793  94.4497638  65.4523378
 139.7132397  94.0178836  65.2700852 138.7171136  94.2779652  66.3800272
 138.5332685  90.9529751  66.8179717 138.4781489  90.7874023  65.8768161
 137.9078741  91.6605784  66.9741907 135.8478593  93.2578663  86.1433280
 136.7169752  93.4319315  85.7819915 135.3685344  94.0773080  86.0209009
 130.0164773 100.3775764  77.8222713 130.9192020 100.4099374  78.1389208
 129.7902143  99.4476215  77.8369049 131.7718375  99.1306751  74.4832792
 130.8214006  99.1308612  74.3697164 132.0750861  98.3839485  73.9668827
 135.6580930  77.0480637  70.6510972 134.8913326  76.4939124  70.7967655
 136.0691635  77.1202506  71.5125124 127.6622691  83.3365433  84.7416153
 128.5254153  82.9802238  84.9519478 127.0888102  82.9979328  85.4291558
 144.3160775 104.9194717  75.4840079 143.9779286 104.8035782  74.5960614
 145.1850543 104.5185882  75.4641085 140.1747590 106.7730194  71.4736970
 139.6112455 106.6820130  70.7053258 140.0599985 105.9530098  71.9539463
 144.7980558 106.0729569  81.4426285 144.7869198 105.6782367  80.5706788
 144.9601197 105.3395641  82.0360056 137.7212022 108.2681385  74.3121191
 138.5133314 107.9272210  73.8967490 137.9608672 108.3776360  75.2323344
 145.7547149 110.4401161  66.7851435 145.1035129 111.0255242  66.3985449
 146.5491512 110.9707356  66.8446472 139.6802776 107.5290298  67.1838569
 140.4533652 106.9819285  67.0451445 140.0328175 108.3934548  67.3953031
 141.5187819 108.8566681  80.3905469 141.2277685 109.7612312  80.2752135
 142.1544803 108.8983208  81.1049538 142.4444026 106.2343529  76.9806828
 143.0407598 106.0099552  76.2663791 142.5018997 105.4928275  77.5832276
 142.0169054 103.6882965  64.8157019 142.2694575 103.1664486  64.0540482
 141.0793613 103.5249110  64.9183703 147.0612337 102.6918743  72.6231762
 147.8475426 102.2738166  72.2722179 147.3251041 103.5964835  72.7913411
 147.2322414 108.1291593  67.3220419 146.5968247 108.2026220  68.0341324
 146.9019821 108.7185192  66.6439499 141.7365343 105.5911070  67.0181394
 141.6201601 104.9155974  67.6862479 141.8467603 105.1043444  66.2013547
 144.0796884 105.0521218  70.7228083 143.7155091 104.5251839  71.4341005
 144.9364000 104.6619687  70.5494569 143.7202371 100.0811117  65.7189432
 143.8876773 100.9491354  66.0859903 143.5299540 100.2438399  64.7950721
 146.4777704 108.5428096  77.3855262 146.1778427 109.4453135  77.2771070
 146.1328763 108.2760279  78.2376415 139.9290185 104.9941893  73.4191967
 139.0040682 104.8618107  73.6269659 140.1774598 105.7736112  73.9161909
 143.6991592 102.5368775  66.7036099 143.5791217 102.9825826  67.5421579
 143.0044180 102.8854092  66.1449637 137.2898996 104.6375167  74.2535756
 137.4191377 104.8909646  75.1675168 136.6096448 105.2302875  73.9340411
 141.4598484 115.3072417  70.3526230 141.3822513 116.2580242  70.4314711
 140.8560127 114.9618289  71.0101156 143.9515713 102.4800282  83.0087597
 143.1749047 103.0394202  82.9990462 144.5906276 102.9657065  83.5302467
 142.2062086 105.2885735  82.5705564 142.9476770 105.8270779  82.2940388
 141.4999071 105.9152024  82.7277116 144.0348495 102.3687483  78.5411282
 144.8809691 102.7926896  78.6845931 143.9747133 101.7121107  79.2349845
 147.1847941 100.0291851  80.1992456 146.9408873 100.7833911  79.6626732
 147.4607871 100.4077199  81.0339703 146.7412632  99.1848284  75.7806294
 145.8797111  99.4829538  76.0723031 146.7675067  99.4018683  74.8487326
 143.5574202 107.7290475  72.1880099 144.0212547 108.0078177  71.3984722
 143.2931000 106.8273919  72.0053190 140.4498283 107.2761956  75.1259863
 141.0199640 107.7049224  74.4877347 141.0406395 106.9944541  75.8244048
 142.4943088 103.8513627  68.9969665 143.1967131 104.3034671  69.4643591
 142.1623716 103.2097446  69.6249558 140.9423449 102.4425383  83.3720874
 140.3122110 103.1241664  83.6056271 140.8359537 102.3308465  82.4274012
 136.2368422 102.1097180  74.2986798 135.4467476 102.3654708  73.8226909
 136.7279669 102.9245517  74.4038839 138.1883167 102.4741759  71.2570275
 137.3914331 102.5860453  71.7753770 137.9608759 102.8128411  70.3911165
 144.0188835 108.9986462  79.2052789 144.0833267 109.4606869  80.0410961
 143.3099759 108.3683827  79.3335099 134.5206125 102.3627670  76.7301789
 134.7714163 103.2474680  76.9959365 135.0565673 102.1832272  75.9576881
 143.7336853 110.6654569  69.0731770 143.5982527 111.5106105  69.5016618
 144.2746665 110.8673847  68.3097704 140.2204192  96.7446149  85.7346125
 139.8271138  96.1912348  86.4093769 141.0370332  97.0556728  86.1252642
 137.1866250 108.1830008  69.6459695 137.6990770 108.9773258  69.7965260
 137.8388963 107.4856298  69.5793296 138.9961135 111.2995764  71.7282448
 139.1727763 112.2213729  71.5403432 139.7917968 110.9854183  72.1576828
 143.1372153  98.1604028  83.3266382 143.8781867  98.7611182  83.2470844
 143.3690076  97.4181666  82.7684424 138.2813491 103.3460396  81.6044611
 138.1667006 102.4445653  81.9051710 137.4258009 103.5924092  81.2529428
 145.3605329 111.2878136  83.2032112 144.9169183 110.5014515  82.8853016
 146.0222542 111.4757287  82.5376003 140.1192450 112.8173938  77.7292790
 140.6699875 112.6891001  76.9569784 139.2803926 113.1168827  77.3787683
 143.9159621 109.0825065  82.0737021 144.4487958 108.3213354  81.8436329
 143.3873702 108.7898717  82.8161176 147.0829316  94.1885131  77.6030663
 146.7393585  95.0786773  77.5269774 147.4508279  93.9986789  76.7400248
 135.1515167 106.5118662  70.4219265 135.9890389 106.9215670  70.2052973
 135.3293434 105.5718104  70.3919459 147.0479599 104.1793742  66.1103098
 146.5326222 104.9498347  66.3491486 146.7756907 103.5058879  66.7336160
 144.6326710  99.0243443  71.1688337 143.7768306  98.6350294  70.9893975
 145.0453662  99.1035404  70.3088122 146.1625856  96.5589787  75.5679896
 145.6590652  96.5219922  74.7547702 146.4556463  97.4682529  75.6276553
 142.4068742  96.6428516  74.5746078 143.2721739  96.4471325  74.2151968
 142.4746251  96.4138868  75.5015435 146.8365902 102.0520835  67.9362879
 146.5316038 102.3666984  68.7873023 147.7896344 102.1302254  67.9790212
 145.2812334 108.2111058  69.5855833 144.7533695 107.4763817  69.2729071
 144.7799837 108.9885734  69.3395802 140.0131061  98.8730724  71.9462445
 140.5874813  98.6505906  71.2135638 140.6002044  98.9419419  72.6991046
 140.3400649 100.9035185  65.9658330 139.5037961 101.2409872  66.2867605
 140.2005418 100.7684165  65.0285467 142.3153729  95.7471973  70.6737514
 141.6618141  95.4320990  70.0494129 142.2734203  95.1247714  71.3997337
 143.4264934 106.0291268  62.5890806 142.5191996 105.7980522  62.7881955
 143.9235966 105.2328887  62.7764788 146.3333013 114.7388775  65.5087493
 145.6594712 115.0420472  66.1172450 146.7198835 115.5417856  65.1592950
 145.5491470 102.2353907  74.9985162 144.6314031 102.4568854  74.8406850
 145.9651613 102.3100217  74.1396869 146.3326517 103.6345322  70.1287842
 147.0798336 104.1466720  69.8194964 146.6018107 103.3129375  70.9892236
 144.6053167 106.1303863  67.1114797 143.6964387 105.8462896  67.2087266
 144.6348251 106.5502942  66.2518103 135.1741338 103.8509377  71.0929999
 134.9765738 103.2578738  70.3681065 134.6188002 103.5461587  71.8105938
 143.1538061 103.7432484  73.2124592 143.2086671 102.7906320  73.1367069
 142.3429264 103.8991923  73.6965890 144.3029255 107.6712607  64.4502875
 143.8648685 106.9548466  63.9908513 145.0439696 107.8988722  63.8887967
 141.0930421 102.3609543  70.9714971 140.2798287 102.6603714  71.3780163
 141.5889416 101.9665232  71.6889453 143.2438999 112.3567300  72.9049235
 143.2015178 112.5828147  71.9757768 144.1601698 112.1230675  73.0535037
 146.6904633 102.8251368  79.8029865 147.0454021 103.0522841  80.6624330
 147.3376764 103.1569745  79.1807120 140.5844496  99.9327899  76.5876206
 141.2243875  99.7916658  75.8899169 139.7522027  99.6462412  76.2114808
 141.3604800 109.2330329  72.7011198 142.1545399 108.7380649  72.4993773
 140.6496492 108.7048192  72.3378904 146.1799645 111.6148425  77.0523566
 146.2336667 112.1839361  77.8201282 145.3114426 111.7850310  76.6877603
 137.6687564 103.3773411  68.7770951 136.7385152 103.3157867  68.9940913
 137.7645036 102.8549364  67.9807592 137.5873113  99.9028224  71.3649193
 137.8479930 100.8173557  71.2558353 138.4090285  99.4352666  71.5145805
 139.0598038 101.3165981  78.5348017 139.7321091 101.1083343  77.8860666
 138.2327824 101.1188067  78.0953249 144.9623610  97.9427922  80.5513678
 144.3151525  98.6417872  80.4578154 145.7324625  98.3764066  80.9189926
 145.1387744 105.7808687  78.6110498 146.0679804 105.9319846  78.4379465
 144.7178774 105.8692708  77.7559144 143.9376076 109.8059351  76.3809035
 143.7987162 109.4378136  77.2534973 143.1490672 110.3206991  76.2092993
 144.5324228 114.9068448  67.7234572 144.7075984 114.4356491  68.5380195
 143.8457016 115.5334214  67.9515833 145.4881291 109.1840954  73.7697873
 145.1531124 109.1441724  74.6655523 144.9885237 108.5185670  73.2968283
 139.4625535 104.5908584  79.2950454 139.3245333 103.8588823  79.8961993
 140.3730459 104.5017484  79.0134642 142.0907836 104.3028543  78.7834134
 142.8007454 103.6621736  78.7420752 142.0477144 104.5541438  79.7060315
 140.8036770 101.2893761  80.6029773 140.2674127 100.8384500  81.2551370
 140.2153478 101.4239670  79.8600238 139.0985313 118.0557811  74.4974432
 139.3381912 118.6876335  75.1753451 138.2554510 117.7045851  74.7839791
 140.2139029 100.7482413  63.1656237 139.3368495 100.6271213  62.8018484
 140.6896782  99.9568491  62.9135126 131.7341169 105.5359572  73.2597744
 132.4212209 105.2221302  72.6718759 131.5789298 106.4400937  72.9864996
 136.5375891 100.4249769  77.6882768 136.4534080  99.8175438  76.9533178
 135.7158597 100.9158787  77.6892264 143.6113175 113.8636933  76.9015936
 143.5383347 114.6691904  77.4135241 143.1690568 114.0628899  76.0763957
 143.4002955 113.1008703  70.4118758 142.6170477 113.6430383  70.5056982
 144.0995700 113.6182683  70.8112999 146.7099605  98.9103332  73.0552963
 147.2068304  98.1573295  72.7354033 145.9386586  98.9467649  72.4896172
 146.0711859 113.7623767  79.0574095 146.7839831 114.3971232  78.9849996
 145.5801887 113.8587633  78.2414096 143.2934574 101.0520715  72.7824648
 142.9232361 100.4991756  73.4705553 143.7893666 100.4478849  72.2299648
 141.1223772 111.5118210  79.8779665 141.8233232 112.1454693  80.0309060
 140.6518887 111.8532942  79.1175305 145.8832232 114.1022511  71.8060386
 146.0654627 113.2844167  72.2688138 146.7065218 114.3190203  71.3685276
 146.2174398 113.0290696  69.0675435 146.7462164 112.5183151  68.4545597
 146.4802617 112.7133226  69.9320968 144.9712631 104.8082629  84.1898253
 144.2953268 104.7076758  84.8600628 145.7940265 104.6521843  84.6534250
 136.7191490 111.0454566  76.8110768 137.3044927 110.2998253  76.9438672
 136.5216329 111.3558522  77.6947432 139.5730146 114.0805813  71.8273211
 138.9040521 114.5651941  71.3437251 139.4343015 114.3275033  72.7416589
 131.3109145 103.6160166  75.5315211 131.3493245 103.0823756  76.3252329
 130.8049438 103.0895371  74.9126188 143.7135414 116.1149556  78.4255869
 144.2653722 116.2781178  79.1904954 144.0541608 116.7053994  77.7535894
 138.6899907  98.4624706  79.0277754 138.7541234  99.3239537  78.6155151
 138.6267028  97.8498708  78.2950112 138.1652180 100.5347839  82.6750788
 138.7924219 100.1524916  83.2888312 137.3080099 100.3162041  83.0406480
 134.9417723 102.3424268  68.6069143 135.2371164 101.4334946  68.5536196
 134.0405758 102.3212007  68.2850145 146.8503801 114.0631532  75.4119551
 146.7254941 113.2621272  74.9030497 147.5082893 114.5577725  74.9233521
 138.4711970 100.4180264  74.5896691 137.7498555 101.0316232  74.4504165
 139.2605225 100.9538029  74.5113337 141.2738283  97.7534691  80.8637343
 141.7972685  97.9996987  81.6263652 141.0550616  98.5854726  80.4440480
 136.6705564 100.0238366  68.7308468 136.3418270  99.1435744  68.5483574
 137.0244935  99.9686034  69.6184857 145.9185143 111.6593268  73.2403453
 145.7710106 110.7309976  73.4211023 146.7438637 111.6813359  72.7560529
 139.7847387 100.3111335  69.0983946 140.1243460 100.8397257  68.3762554
 140.2319508 100.6491741  69.8742512 142.4790828  98.6948386  78.5487014
 142.1387649  97.8956199  78.9507693 141.7729834  98.9950097  77.9763847
 143.1307300  95.7797698  77.0014337 143.9533369  95.3058177  76.8793227
 143.3745364  96.5588182  77.5013023 141.7715535  98.8085957  67.2977238
 142.4923897  99.1867210  66.7940955 141.1480839  99.5274834  67.4012216
 145.9146657  99.5131106  68.2335571 146.1310272 100.3955744  67.9324399
 145.4340725  99.1217319  67.5041213 140.6545879 102.4716819  74.8106315
 140.5090459 102.7857122  75.7030597 140.1771082 103.0901719  74.2577214
 142.5142262  99.4619367  74.8587205 142.5003830  98.5660460  74.5219503
 143.2314690  99.4690031  75.4925491 144.3668392  99.8956707  76.9040332
 144.1086170 100.8173778  76.9024663 143.8353433  99.4987142  77.5940796
 135.1291541 105.0122164  77.7493976 134.5845009 105.7881971  77.8814251
 136.0070891 105.3592968  77.5913098 141.9179158  98.3433747  70.1274775
 142.0395069  97.4150394  70.3265662 141.6281200  98.3572433  69.2153090
 144.7870348  96.0288658  73.2641495 144.8092045  96.0927991  72.3093474
 145.2038407  95.1893166  73.4582001 135.9157563 104.1392060  80.6424133
 135.1739299 104.2874695  81.2288764 135.5950307 104.4000325  79.7790883
 143.8601225 113.6808038  80.4404523 144.1688352 113.4357185  81.3127223
 144.6576707 113.8854676  79.9523394 143.8821837 115.8345948  72.6709900
 143.4426828 115.3422326  73.3642757 144.6329954 115.2918915  72.4301975
 136.3614176 112.0257489  72.6734528 137.1872196 111.7261260  72.2933171
 136.0108228 111.2565111  73.1224317 141.3295710 111.3783957  74.7432202
 140.7075719 110.7154662  74.4434429 142.0000577 111.4045089  74.0605849
 134.5622782 109.9443815  73.6323461 133.7254690 109.5165989  73.4507463
 134.5346427 110.1376258  74.5694253 141.4020237  99.8565745  84.3364708
 141.4508393 100.7327868  83.9542477 141.9442751  99.3143138  83.7636351
 140.8909217 109.9287880  68.2190662 141.0397337 110.6123344  67.5657335
 141.6975660 109.9092970  68.7340118 143.6319526 100.6097117  81.0911066
 142.7622835 100.9030683  80.8193655 143.8679006 101.1937562  81.8118330
 138.6461850 105.9553058  69.2251731 138.4007891 105.0515388  69.4231941
 138.8157764 105.9570208  68.2831209 146.3358559  96.8276734  78.6076487
 146.8540503  97.5637761  78.2822975 145.9813692  97.1340727  79.4423246
 137.9157497 101.6881415  66.7237892 137.2226742 101.7625770  66.0677928
 137.6709249 100.9241759  67.2459409 146.5871154  93.2477017  74.1277383
 146.8672907  92.5800206  74.7537810 147.3721760  93.4406112  73.6152047
 144.3904622 112.4236011  65.6902409 143.8178589 113.0426198  65.2372881
 144.9637416 112.9735372  66.2242331 144.7751421 103.7596823  63.0318462
 145.7210525 103.6303031  63.1006880 144.3965666 103.0211485  63.5087890
 144.6590113 107.8114569  84.4919119 145.5793123 107.9893168  84.6859165
 144.6239696 106.8670615  84.3398818 142.9594338 101.6846800  62.9673347
 142.0525793 101.3879912  63.0436061 143.2370319 101.3876618  62.1007633
 133.8772278 103.0053163  73.4172394 133.5575062 102.1518471  73.1246768
 133.3305706 103.2201741  74.1730361 137.6552186 105.7215604  77.1341900
 137.8738195 106.6532712  77.1529934 138.0677959 105.3623578  77.9196704
 144.5756403  96.2283689  69.1217588 143.7657132  95.8830774  69.4972835
 145.2640820  95.9191233  69.7105200 146.5046952  95.3061736  70.7441885
 147.0577990  95.7257190  71.4031908 146.7417038  94.3797484  70.7864841
 142.5280051 101.2948810  86.5244649 142.4276778 102.2443167  86.4556740
 142.3101593 100.9667049  85.6520719 141.7293122  98.5433735  63.1085326
 142.5912286  98.8688633  63.3681144 141.9143467  97.7565231  62.5958392
 133.7460538 106.6256075  75.3865515 133.0524010 106.2110027  74.8735470
 134.4933529 106.6676611  74.7898934 142.3911321 104.7245949  85.3409711
 141.9078403 105.5246309  85.5473600 142.4772260 104.7353894  84.3877155
 135.6597281 106.5574328  73.2631530 135.6367969 106.6562016  72.3113413
 135.9697917 107.4039479  73.5848696 138.3184659 108.6150483  77.3778144
 139.2727912 108.5834426  77.3108076 138.1197182 108.1541107  78.1928370
 138.9084041 107.1851599  79.9448942 139.7276930 107.6795678  79.9683779
 139.1820848 106.2683568  79.9166510 136.6734887 114.1570103  74.3948342
 136.5389355 113.3970504  73.8286340 136.2566950 114.8811003  73.9277131
 139.8304013 115.0539420  74.6066785 139.7136397 115.9984852  74.5045475
 139.0096459 114.7512981  74.9952584 134.1618955 101.5189733  80.6441139
 134.8077818 101.0088687  81.1328364 133.9536106 102.2558415  81.2184564
 146.6872347 108.5870581  86.1433280 147.5563507 108.7611233  85.7819915
 146.2079099 109.4064998  86.0209009 142.6822565  95.7829778  66.3965035
 142.6701235  96.7271618  66.5533306 143.5745987  95.5999923  66.1024497
 140.8558527 115.7067682  77.8222713 141.7585774 115.7391292  78.1389208
 140.6295897 114.7768133  77.8369049 142.6112129 114.4598668  74.4832792
 141.6607760 114.4600530  74.3697164 142.9144615 113.7131403  73.9668827
 146.4974685  92.3772555  70.6510972 145.7307081  91.8231041  70.7967655
 146.9085390  92.4494423  71.5125124 138.5016446  98.6657350  84.7416153
 139.3647907  98.3094155  84.9519478 137.9281857  98.3271245  85.4291558
 147.0762176 117.4389097  74.2986798 146.2861230 117.6946626  73.8226909
 147.5673424 118.2537435  74.4038839 145.3599879 117.6919588  76.7301789
 145.6107918 118.5766598  76.9959365 145.8959428 117.5124189  75.9576881
 145.9908921 121.8410580  70.4219265 146.8284143 122.2507588  70.2052973
 146.1687189 120.9010022  70.3919459 146.0135092 119.1801295  71.0929999
 145.8159492 118.5870656  70.3681065 145.4581756 118.8753505  71.8105938
 142.5734923 120.8651490  73.2597744 143.2605963 120.5513220  72.6718759
 142.4183052 121.7692855  72.9864996 147.3769646 115.7541687  77.6882768
 147.2927834 115.1467356  76.9533178 146.5552352 116.2450705  77.6892264
 142.1502900 118.9452083  75.5315211 142.1886999 118.4115674  76.3252329
 141.6443192 118.4187289  74.9126188 145.7811477 117.6716186  68.6069143
 146.0764918 116.7626864  68.5536196 144.8799513 117.6503925  68.2850145
 145.9685295 120.3414081  77.7493976 145.4238763 121.1173889  77.8814251
 146.8464645 120.6884886  77.5913098 146.7551317 119.4683977  80.6424133
 146.0133053 119.6166613  81.2288764 146.4344062 119.7292243  79.7790883
 145.4016536 125.2735733  73.6323461 144.5648444 124.8457907  73.4507463
 145.3740181 125.4668176  74.5694253 144.7166033 118.3345081  73.4172394
 144.3968817 117.4810389  73.1246768 144.1699461 118.5493659  74.1730361
 144.5854293 121.9547992  75.3865515 143.8917764 121.5401945  74.8735470
 145.3327284 121.9968529  74.7898934 146.4991035 121.8866246  73.2631530
 146.4761723 121.9853933  72.3113413 146.8091672 122.7331397  73.5848696
 145.0012709 116.8481651  80.6441139 145.6471573 116.3380605  81.1328364
 144.7929860 117.5850333  81.2184564  76.4235958   0.3383033  57.0771537
  76.3459988   1.2890858  57.1560017  75.8197602  -0.0071094  57.7346463
  75.0829924  -2.1515446  64.4538097  75.6337350  -2.2798383  63.6815091
  74.2441400  -1.8520557  64.1032990  81.2970487  -0.2300608  52.2332799
  80.6232186   0.0731089  52.8417757  81.6836309   0.5728472  51.8838256
  79.4961702  -0.0620936  54.4479878  79.6713458  -0.5332893  55.2625501
  78.8094490   0.5644831  54.6761139  74.0622788   3.0868427  61.2219739
  74.3019386   3.7186951  61.8998757  73.2191984   2.7356467  61.5085098
  78.5750650  -1.1052450  63.6261243  78.5020821  -0.2997479  64.1380547
  78.1328043  -0.9060485  62.8009264  78.3640429  -1.8680680  57.1364064
  77.5807951  -1.3259000  57.2302289  79.0633174  -1.3506701  57.5358305
  81.0349333  -1.2065616  65.7819401  81.7477305  -0.5718152  65.7095303
  80.5439362  -1.1101750  64.9659403  74.5367620  -0.8883571  58.5518517
  73.8677995  -0.4037443  58.0682557  74.3980490  -0.6414350  59.4661896
  78.6772888   1.1460173  65.1501176  79.2291196   1.3091794  65.9150261
  79.0179082   1.7364611  64.4781200  78.8238700  -1.2881345  67.1649830
  79.1325826  -1.5332199  68.0372529  79.6214182  -1.0834707  66.6768700
  78.8459312   0.8656564  59.3955206  78.4064302   0.3732943  60.0888063
  79.5967429   0.3229532  59.1547282  71.3251651  -2.9431895  59.3979835
  72.1509671  -3.2428123  59.0178478  70.9745703  -3.7124273  59.8469623
  69.5260256  -5.0245568  60.3568768  68.6892164  -5.4523394  60.1752769
  69.4983901  -4.8313125  61.2939559  71.6372362  -0.8119281  61.1193649
  71.5026830  -1.5718880  60.5531647  71.2204424  -0.0878381  60.6522438
  74.7941487   0.0850036  61.3312092  74.6773872   1.0295469  61.2290782
  73.9733934  -0.2176402  61.7197891  75.8196002   0.7378298  64.5468020
  76.7223248   0.7701909  64.8634515  75.5933372  -0.1921251  64.5614356
  77.5749604  -0.5090715  61.2078099  76.6245235  -0.5088854  61.0942471
  77.8782090  -1.2557981  60.6914133  93.3102297   5.3269823  62.2723861
  93.9480707   5.2076571  61.5687201  93.1923140   6.2750667  62.3311813
  90.1192003   5.2797251  62.2085386  89.7810515   5.1638316  61.3205921
  90.9881772   4.8788416  62.1886392  85.9778819   7.1332728  58.1982277
  85.4143684   7.0422665  57.4298564  85.8631214   6.3132632  58.6784769
  90.6011786   6.4332103  68.1671591  90.5900427   6.0384901  67.2952095
  90.7632426   5.6998176  68.7605363  83.5243251   8.6283919  61.0366497
  84.3164543   8.2874744  60.6212796  83.7639901   8.7378894  61.9568650
  91.5578378  10.8003695  53.5096742  90.9066358  11.3857776  53.1230755
  92.3522741  11.3309890  53.5691779  85.4834005   7.8892833  53.9083876
  86.2564881   7.3421820  53.7696752  85.8359404   8.7537082  54.1198337
  87.3219048   9.2169215  67.1150775  87.0308914  10.1214846  66.9997442
  87.9576032   9.2585742  67.8294845  88.2475254   6.5946063  63.7052135
  88.8438827   6.3702086  62.9909098  88.3050226   5.8530809  64.3077583
  87.8200283   4.0485499  51.5402326  88.0725803   3.5267020  50.7785789
  86.8824842   3.8851644  51.6429009  93.0353643   8.4894127  54.0465726
  92.3999476   8.5628754  54.7586631  92.7051049   9.0787726  53.3684805
  87.5396572   5.9513605  53.7426701  87.4232830   5.2758508  54.4107785
  87.6498831   5.4645979  52.9258854  89.8828112   5.4123752  57.4473390
  89.5186320   4.8854373  58.1586312  90.7395228   5.0222221  57.2739875
  92.2808933   8.9030630  64.1100569  91.9809656   9.8055669  64.0016376
  91.9359992   8.6362814  64.9621722  85.7321414   5.3544427  60.1437273
  84.8071911   5.2220641  60.3514965  85.9805827   6.1338646  60.6407216
  89.5022820   2.8971309  53.4281405  89.3822446   3.3428360  54.2666886
  88.8075409   3.2456627  52.8694944  83.0930225   4.9977701  60.9781062
  83.2222606   5.2512180  61.8920474  82.4127676   5.5905409  60.6585718
  87.2629712  15.6674951  57.0771537  87.1853742  16.6182776  57.1560017
  86.6591356  15.3220823  57.7346463  89.7546942   2.8402816  69.7332904
  88.9780276   3.3996736  69.7235768  90.3937505   3.3259599  70.2547774
  88.0093314   5.6488270  69.2950871  88.7507999   6.1873313  69.0185694
  87.3030300   6.2754558  69.4522422  93.4848654   7.7917410  67.8923032
  93.8932010   7.3499821  67.1477664  92.7625916   7.2170038  68.1457225
  89.8379724   2.7290017  65.2656589  90.6840919   3.1529430  65.4091238
  89.7778362   2.0723641  65.9595152  93.8077469   8.3518601  61.6475321
  93.1786331   8.5164315  60.9451389  93.4203131   8.7660210  62.4186285
  97.6866701   9.2873038  59.0019685  97.0017739   9.6671940  58.4516718
  97.7710550   9.8968365  59.7351632  94.9417632   6.9332997  65.6015028
  95.1534528   7.5764757  64.9249409  94.8947381   6.0995314  65.1336958
  89.3605431   8.0893009  58.9125406  89.8243776   8.3680712  58.1230029
  89.0962229   7.1876453  58.7298497  86.2529512   7.6364490  61.8505169
  86.8230869   8.0651759  61.2122654  86.8437624   7.3547075  62.5489355
  88.2974317   4.2116161  55.7214971  88.9998360   4.6637205  56.1888898
  87.9654945   3.5699980  56.3494864  86.7454678   2.8027918  70.0966181
  86.1153339   3.4844199  70.3301577  86.6390766   2.6910999  69.1519319
  82.0399651   2.4699714  61.0232105  81.2498705   2.7257242  60.5472215
  82.5310898   3.2848052  61.1284145  96.0563460   9.8104953  63.7737386
  96.8780904   9.4085140  63.4920067  96.0525863   9.7073187  64.7253501
  83.9914396   2.8344293  57.9815581  83.1945559   2.9462987  58.4999077
  83.7639988   3.1730945  57.1156472  89.8220064   9.3588996  65.9298096
  89.8864496   9.8209403  66.7656268  89.1130988   8.7286361  66.0580406
  80.3237354   2.7230204  63.4547096  80.5745392   3.6077214  63.7204671
  80.8596902   2.5434806  62.6822187  89.5368081  11.0257104  55.7977076
  89.4013756  11.8708639  56.2261924  90.0777894  11.2276381  55.0343010
  82.9897479   8.5432542  56.3705001  83.5021999   9.3375792  56.5210566
  83.6420192   7.8458832  56.3038603  84.7992363  11.6598298  58.4527755
  84.9758992  12.5816263  58.2648739  85.5949197  11.3456717  58.8822134
  84.0844720   3.7062930  68.3289918  83.9698235   2.8048187  68.6297017
  83.2289238   3.9526627  67.9774734  91.1636558  11.6480670  69.9277418
  90.7200412  10.8617049  69.6098323  91.8253771  11.8359821  69.2621309
  85.9223679  13.1776472  64.4538097  86.4731104  13.0493535  63.6815091
  85.0835155  13.4771361  64.1032990  93.2617796  11.9283470  67.9558820
  93.2436271  12.7492351  67.4639089  94.1837716  11.8037545  68.1808961
  89.7190850   9.4427600  68.7982328  90.2519187   8.6815888  68.5681636
  89.1904931   9.1501251  69.5406483  80.9546396   6.8721196  57.1464572
  81.7921618   7.2818204  56.9298280  81.1324663   5.9320638  57.1164766
  92.8510828   4.5396277  52.8348405  92.3357451   5.3100881  53.0736792
  92.5788136   3.8661413  53.4581466  97.8245102   7.2928631  54.7701578
  97.0474545   6.9539791  54.3256741  98.5036583   7.2981255  54.0956543
  91.0843563   8.5713592  56.3101140  90.5564924   7.8366352  55.9974378
  90.5831065   9.3488268  56.0641108  96.0636409   6.7662613  61.4268186
  95.4060083   7.4561874  61.5148315  96.8676808   7.1559045  61.7702173
  94.8741867   5.1206985  59.4772128  95.3873749   5.7536977  59.9793838
  95.5243091   4.5208181  59.1115488  86.1431877   1.2637719  52.6903637
  85.3069190   1.6012406  53.0112912  86.0036647   1.1286699  51.7530774
  89.2296163   6.3893802  49.3136113  88.3223225   6.1583056  49.5127262
  89.7267195   5.5931422  49.5010095  92.1364242  15.0991310  52.2332799
  91.4625940  15.4023006  52.8417757  92.5230064  15.9020390  51.8838256
  91.3522698   2.5956441  61.7230469  90.4345260   2.8171388  61.5652157
  91.7682842   2.6702751  60.8642176  92.1357746   3.9947857  56.8533149
  92.8829565   4.5069254  56.5440271  92.4049336   3.6731909  57.7137543
  90.4084396   6.4906397  53.8360103  89.4995616   6.2065430  53.9332573
  90.4379480   6.9105476  52.9763410  95.6403664  10.1012987  57.6051271
  95.1865991   9.2603897  57.6616461  95.0097630  10.7374385  57.9426051
  94.0836603  11.9389483  58.5401089  94.3759577  12.4994541  57.8213455
  94.5935223  12.2318044  59.2954248  80.9772567   4.2111911  57.8175305
  80.7796966   3.6181272  57.0926372  80.4219231   3.9064122  58.5351244
  88.9569290   4.1035018  59.9369899  89.0117900   3.1508854  59.8612375
  88.1460492   4.2594457  60.4211197  90.1060484   8.0315141  51.1748182
  89.6679914   7.3151000  50.7153819  90.8470925   8.2591256  50.6133273
  86.8961650   2.7212078  57.6960277  86.0829516   3.0206248  58.1025470
  87.3920644   2.3267766  58.4134760  89.0470228  12.7169835  59.6294542
  89.0046407  12.9430681  58.7003074  89.9632927  12.4833209  59.7780343
  92.4935862   3.1853902  66.5275171  92.8485250   3.4125375  67.3869637
  93.1407993   3.5172279  65.9052427  98.2233599   6.3072338  57.2324500
  98.0851497   6.4973934  56.3045690  97.8669818   7.0691721  57.6892552
  98.2502978   8.3748865  62.2435772  98.6839485   8.2824154  63.0918826
  98.9634559   8.3506365  61.6055788  87.1636029   9.5932864  59.4256505
  87.9576627   9.0983184  59.2239080  86.4527721   9.0650727  59.0624210
  91.9830873  11.9750959  63.7768872  92.0367896  12.5441895  64.5446588
  91.1145655  12.1452844  63.4122910  83.4718792   3.7375945  55.5016258
  82.5416380   3.6760401  55.7186220  83.5676264   3.2151898  54.7052899
  83.3904341   0.2630758  58.0894499  83.6511159   1.1776091  57.9803660
  84.2121514  -0.2044799  58.2391112  84.8629267   1.6768515  65.2593324
  85.5352320   1.4685877  64.6105973  84.0359053   1.4790601  64.8198556
  99.1118528   8.4172566  64.7768657  99.3054418   9.3218376  65.0227932
  99.0119146   7.9579985  65.6107242  94.1733637   8.5679308  70.3509538
  94.0219143   8.3389860  69.4339622  94.1638316   9.5249910  70.3640883
  90.9418973   6.1411221  65.3355804  91.8711033   6.2922381  65.1624772
  90.5210003   6.2295242  64.4804451  89.7407305  10.1661886  63.1054342
  89.6018391   9.7980670  63.9780280  88.9521901  10.6809525  62.9338300
  90.3355457  15.2670982  54.4479878  90.5107213  14.7959025  55.2625501
  89.6488245  15.8936748  54.6761139  91.2912520   9.5443488  60.4943180
  90.9562353   9.5044258  61.3900830  90.7916466   8.8788204  60.0213590
  85.2656764   4.9511118  66.0195761  85.1276562   4.2191357  66.6207300
  86.1761687   4.8620018  65.7379949  94.2271712   6.8899523  50.7680239
  93.6100882   6.1646351  50.6713292  93.7588200   7.6508883  50.4247314
  87.8939065   4.6631078  65.5079441  88.6038683   4.0224270  65.4666059
  87.8508373   4.9143972  66.4305621  95.8825843  11.5998431  68.4286020
  95.8238389  10.9157651  67.7616603  96.2845362  12.3417421  67.9766646
  86.6067999   1.6496295  67.3275080  86.0705356   1.1987034  67.9796676
  86.0184707   1.7842204  66.5845544  84.9016542  18.4160345  61.2219739
  85.1413140  19.0478869  61.8998757  84.0585739  18.0648385  61.5085098
  95.8843251   9.5638015  66.6599999  94.9970029   9.2263937  66.7826398
  96.4541802   8.8321046  66.8968765  77.5372398   5.8962107  59.9843051
  78.2243438   5.5823837  59.3964066  77.3820526   6.8003471  59.7110302
  82.3407120   0.7852303  64.4128075  82.2565309   0.1777973  63.6778484
  81.5189826   1.2761321  64.4137571  89.4144404  14.2239467  63.6261243
  89.3414575  15.0294439  64.1380547  88.9721797  14.4231433  62.8009264
  89.2034184  13.4611237  57.1364064  88.4201706  14.0032917  57.2302289
  89.9026929  13.9785217  57.5358305  91.8743088  14.1226301  65.7819401
  92.5871060  14.7573766  65.7095303  91.3833116  14.2190167  64.9659403
  93.5960614   8.0277554  57.3536693  92.6616893   8.1479016  57.1841397
  93.7737283   7.1250021  57.0896703  86.9255001  11.8720745  66.6024972
  87.6264461  12.5057228  66.7554366  86.4550116  12.2135476  65.8420611
  95.0509397  10.2138694  54.8872879  95.3269241  10.0995289  55.7966753
  94.1813896   9.8156179  54.8485052  91.6863461  14.4625045  58.5305693
  91.8685855  13.6446701  58.9933445  92.5096447  14.6792738  58.0930583
  92.0205626  13.3893230  55.7920741  92.5493393  12.8785685  55.1790903
  92.2833846  13.0735761  56.6566274  90.7743860   5.1685163  70.9143560
  90.0984497   5.0679293  71.5845935  91.5971494   5.0124377  71.3779557
  82.5222719  11.4057100  63.5356075  83.1076156  10.6600788  63.6683979
  82.3247558  11.7161056  64.4192739  85.3761374  14.4408347  58.5518517
  84.7071750  14.9254475  58.0682557  85.2374244  14.6877568  59.4661896
  77.1140374   3.9762700  62.2560518  77.1524473   3.4426291  63.0497636
  76.6080667   3.4497905  61.6371495  89.5166643  16.4752091  65.1501176
  90.0684951  16.6383712  65.9150261  89.8572836  17.0656528  64.4781200
  83.9683409   0.8950373  69.3996095  84.5955447   0.5127450  70.0133619
  83.1111328   0.6764575  69.7651787  94.3677517  11.3013348  71.0049830
  94.9117421  11.9143306  70.5104785  93.7864362  11.8592927  71.5216843
  80.7448951   2.7026802  55.3314449  81.0402393   1.7937481  55.2781503
  79.8436987   2.6814542  55.0095452  92.6535030  14.4234066  62.1364858
  92.5286170  13.6223806  61.6275803  93.3114121  14.9180260  61.6478828
  84.2743198   0.7782799  61.3141998  83.5529784   1.3918766  61.1749471
  85.0636454   1.3140563  61.2358644  94.7169939  12.2243086  63.7644408
  93.7700274  12.1048437  63.6922735  95.0652712  11.3365584  63.8470669
  82.4736793   0.3840900  55.4553774  82.1449499  -0.4961721  55.2728880
  82.8276164   0.3288568  56.3430164  91.7216372  12.0195802  59.9648760
  91.5741334  11.0912510  60.1456330  92.5469865  12.0415893  59.4805835
  85.5878616   0.6713870  55.8229252  85.9274689   1.1999791  55.1007861
  86.0350737   1.0094276  56.5987819  95.3250494  12.8424361  61.0513633
  96.2497041  12.6367223  60.9138084  95.1565797  12.5940762  61.9602974
  86.4577108   2.8319353  61.5351622  86.3121688   3.1459656  62.4275903
  85.9802311   3.4504254  60.9822520  95.1145810  13.3610029  56.4075724
  95.2882687  12.7956451  55.6549577  95.6074701  14.1610924  56.2255214
  80.9322770   5.3724698  64.4739283  80.3876238   6.1484506  64.6059557
  81.8102120   5.7195502  64.3158404  96.1020982  12.6776793  53.5072623
  96.7971887  13.2983486  53.7259937  96.4444133  11.8272144  53.7825000
  81.7188792   4.4994594  67.3669440  80.9770528   4.6477229  67.9534070
  81.3981536   4.7602860  66.5036189  98.0012406  10.1276499  55.0359953
  98.5263730  10.4663771  54.3109273  97.9134758   9.1923514  54.8523088
  89.6632454  14.0410572  67.1649830  89.9719581  13.7959719  68.0372529
  90.4607936  14.2457211  66.6768700  89.6853066  16.1948482  59.3955206
  89.2458057  15.7024861  60.0888063  90.4361183  15.6521450  59.1547282
  82.1645405  12.3860023  59.3979835  82.9903425  12.0863795  59.0178478
  81.8139457  11.6167645  59.8469623  87.1326938  11.7386491  61.4677508
  86.5106948  11.0757196  61.1679736  87.8031805  11.7647623  60.7851156
  80.3654010  10.3046349  60.3568768  79.5285919   9.8768524  60.1752769
  80.3377656  10.4978793  61.2939559  97.6906312  10.7609402  70.3411151
  96.9001855  10.7433541  69.8015651  97.4539666  11.2997696  71.0960188
  97.8104187   7.6101869  67.6543880  97.8602192   7.4451876  68.5959403
  97.7018110   6.7429128  67.2641761  86.6940445  10.2890414  54.9435969
  86.8428566  10.9725879  54.2902641  87.5006889  10.2695504  55.4585424
  99.3122383  10.0298810  67.8985901  99.0207192  10.3928791  68.7349362
  98.6994515   9.3165818  67.7199233 100.5118066   7.5951690  60.4188472
 101.3464957   8.0341494  60.5826032 100.6477195   7.1190343  59.5996717
  97.5609572   5.1531425  66.3665959  98.0363693   5.3459071  65.5584811
  96.6375137   5.2090611  66.1209343  84.4493078   6.3155592  55.9497038
  84.2039120   5.4117922  56.1477248  84.6188993   6.3172742  55.0076516
  83.7188726   2.0483950  53.4483199  83.0257971   2.1228304  52.7923235
  83.4740478   1.2844293  53.9704716  90.1935851  12.7838545  52.4147716
  89.6209818  13.4028732  51.9618188  90.7668645  13.3337906  52.9487638
  93.4133111  13.0675695  53.5456298  94.3463784  13.0021257  53.7489174
  93.3256323  13.9031962  53.0870831  96.0421127  12.3841565  50.5060246
  95.9634759  12.0501429  51.3996004  96.8630794  12.8763333  50.5051718
  90.5782649   4.1199358  49.7563769  91.5241754   3.9905566  49.8252187
  90.1996894   3.3814019  50.2333197  90.4621342   8.1717104  71.2164426
  91.3824351   8.3495703  71.4104472  90.4270925   7.2273149  71.0644125
  88.7625567   2.0449334  49.6918654  87.8557022   1.7482447  49.7681367
  89.0401548   1.7479152  48.8252940  79.6803507   3.3655697  60.1417700
  79.3606291   2.5121005  59.8492074  79.1336935   3.5804275  60.8975668
  83.4583414   6.0818138  63.8587207  83.6769424   7.0135246  63.8775241
  83.8709188   5.7226113  64.6442011  88.3311280   1.6551344  73.2489956
  88.2308007   2.6045701  73.1802047  88.1132822   1.3269583  72.3766026
  79.5491767   6.9858609  62.1110822  78.8555238   6.5712562  61.5980776
  80.2964758   7.0279145  61.5144241  88.1942550   5.0848483  72.0655017
  87.7109632   5.8848843  72.2718906  88.2803489   5.0956428  71.1122461
  81.4628509   6.9176863  59.9876837  81.4399198   7.0164550  59.0358720
  81.7729146   7.7642013  60.3094003  84.1215887   8.9753018  64.1023451
  85.0759141   8.9436960  64.0353383  83.9228411   8.5143641  64.9173677
  84.7115269   7.5454134  66.6694249  85.5308158   8.0398212  66.6929086
  84.9852077   6.6286102  66.6411816  82.4766116  14.5172637  61.1193649
  82.3420584  13.7573038  60.5531647  82.0598178  15.2413537  60.6522438
  93.6125079   9.7009561  50.1270224  94.3160929   9.9059563  50.7427880
  92.8887728  10.2686323  50.3919308  94.4422889   5.4519422  56.2472494
  94.3858091   5.9087973  55.4080127  94.9951232   4.6910106  56.0695337
  85.6335242  15.4141954  61.3312092  85.5167626  16.3587387  61.2290782
  84.8127688  15.1115516  61.7197891  95.5211777  10.1392090  52.1768684
  96.3557380   9.7073288  51.9946159  95.3596119   9.9674104  53.1045579
  95.1757669   6.6424203  53.5425024  95.1206472   6.4768475  52.6013468
  94.5503724   7.3500236  53.6987213  79.9650184   1.8792268  67.3686446
  80.6109047   1.3691221  67.8573671  79.7567335   2.6160949  67.9429871
  92.4903576   8.9473115  72.8678586  93.3594736   9.1213767  72.5065221
  92.0110327   9.7667532  72.7454316  86.6589756  16.0670216  64.5468020
  87.5617003  16.0993826  64.8634515  86.4327126  15.1370667  64.5614356
  88.4143358  14.8201203  61.2078099  87.4638989  14.8203064  61.0942471
  88.7175844  14.0733937  60.6914133 104.1496052  20.6561741  62.2723861
 104.7874462  20.5368488  61.5687201 104.0316895  21.6042585  62.3311813
 100.9585758  20.6089169  62.2085386 100.6204269  20.4930234  61.3205921
 101.8275526  20.2080334  62.1886392  96.8172574  22.4624645  58.1982277
  96.2537439  22.3714582  57.4298564  96.7024969  21.6424550  58.6784769
 101.4405541  21.7624021  68.1671591 101.4294182  21.3676819  67.2952095
 101.6026180  21.0290093  68.7605363  94.3637006  23.9575837  61.0366497
  95.1558297  23.6166662  60.6212796  94.6033656  24.0670812  61.9568650
 102.3972132  26.1295613  53.5096742 101.7460112  26.7149694  53.1230755
 103.1916495  26.6601808  53.5691779  96.3227759  23.2184750  53.9083876
  97.0958635  22.6713737  53.7696752  96.6753158  24.0829000  54.1198337
  98.1612802  24.5461133  67.1150775  97.8702668  25.4506763  66.9997442
  98.7969786  24.5877660  67.8294845  99.0869009  21.9237981  63.7052135
  99.6832581  21.6994003  62.9909098  99.1443980  21.1822727  64.3077583
  98.6594037  19.3777416  51.5402326  98.9119558  18.8558938  50.7785789
  97.7218596  19.2143562  51.6429009 103.7037320  18.3813195  59.3477069
 104.4900409  17.9632618  58.9967486 103.9676024  19.2859287  59.5158717
 103.8747397  23.8186045  54.0465726 103.2393230  23.8920672  54.7586631
 103.5444804  24.4079644  53.3684805 109.1045747  18.3188428  60.2510048
 109.8370919  17.7487645  60.4847877 108.3485103  17.9310028  60.6916553
  98.3790326  21.2805522  53.7426701  98.2626584  20.6050426  54.4107785
  98.4892586  20.7937896  52.9258854 100.7221867  20.7415669  57.4473390
 100.3580074  20.2146290  58.1586312 101.5788983  20.3514139  57.2739875
 106.6271168  12.0310002  64.7104656 106.2954492  12.9005413  64.4865871
 106.0316781  11.7146286  65.3898687 100.3627354  15.7705569  52.4434739
 100.5301756  16.6385806  52.8105210 100.1724523  15.9332851  51.5196028
 103.1202687  24.2322548  64.1100569 102.8203410  25.1347587  64.0016376
 102.7753747  23.9654731  64.9621722  96.5715169  20.6836345  60.1437273
  95.6465665  20.5512559  60.3514965  96.8199582  21.4630564  60.6407216
 106.5199831  16.7505088  61.7898006 105.6116708  16.6820497  61.4956767
 106.4687427  17.2277033  62.6179832 100.3416575  18.2263227  53.4281405
 100.2216200  18.6720277  54.2666886  99.6469163  18.5748544  52.8694944
  93.9323980  20.3269618  60.9781062  94.0616361  20.5804097  61.8920474
  93.2521431  20.9197326  60.6585718  98.1023467  30.9966868  57.0771537
  98.0247497  31.9474694  57.1560017  97.4985110  30.6512741  57.7346463
 100.5940697  18.1694734  69.7332904  99.8174031  18.7288654  69.7235768
 101.2331260  18.6551517  70.2547774 108.3861477  14.9521527  63.5675880
 107.7435858  15.2454060  62.9215675 107.8816406  14.8374447  64.3729077
 106.0401641  18.6984700  54.2561739 106.9519497  18.9312087  54.0809437
 105.5311288  19.2821744  53.6936818  98.8487069  20.9780187  69.2950871
  99.5901753  21.5165231  69.0185694  98.1424054  21.6046476  69.4522422
 104.3242409  23.1209328  67.8923032 104.7325765  22.6791738  67.1477664
 103.6019670  22.5461955  68.1457225 100.6773479  18.0581934  65.2656589
 101.5234674  18.4821348  65.4091238 100.6172116  17.4015559  65.9595152
 104.6471223  23.6810518  61.6475321 104.0180086  23.8456232  60.9451389
 104.2596885  24.0952128  62.4186285 108.5260455  24.6164956  59.0019685
 107.8411493  24.9963858  58.4516718 108.6104304  25.2260283  59.7351632
 103.8272924  15.7186303  66.9237763 103.5833856  16.4728363  66.3872038
 104.1032855  16.0971650  67.7585010 105.7811387  22.2624915  65.6015028
 105.9928282  22.9056675  64.9249409 105.7341135  21.4287232  65.1336958
 103.3837616  14.8742736  62.5051600 102.5222095  15.1723989  62.7968338
 103.4100050  15.0913135  61.5732633 100.1999185  23.4184926  58.9125406
 100.6637531  23.6972629  58.1230029  99.9355983  22.5168371  58.7298497
  97.0923266  22.9656408  61.8505169  97.6624623  23.3943676  61.2122654
  97.6831378  22.6838993  62.5489355  99.1368071  19.5408079  55.7214971
  99.8392115  19.9929122  56.1888898  98.8048700  18.8991898  56.3494864
  97.5848433  18.1319835  70.0966181  96.9547093  18.8136116  70.3301577
  97.4784521  18.0202917  69.1519319  92.8793405  17.7991631  61.0232105
  92.0892459  18.0549160  60.5472215  93.3704653  18.6139969  61.1284145
 106.8957215  25.1396871  63.7737386 107.7174658  24.7377058  63.4920067
 106.8919618  25.0365105  64.7253501  94.8308151  18.1636211  57.9815581
  94.0339314  18.2754905  58.4999077  94.6033743  18.5022863  57.1156472
 100.6613818  24.6880914  65.9298096 100.7258251  25.1501321  66.7656268
  99.9524742  24.0578279  66.0580406  91.1631108  18.0522122  63.4547096
  91.4139147  18.9369132  63.7204671  91.6990657  17.8726723  62.6822187
 114.9863208  21.4835619  60.1222357 114.2326916  20.9143017  59.9666361
 115.1210749  21.4498284  61.0692992 100.3761836  26.3549021  55.7977076
 100.2407511  27.2000557  56.2261924 100.9171648  26.5568299  55.0343010
  96.8629175  12.4340601  72.4591432  96.4696121  11.8806800  73.1339076
  97.6795316  12.7451180  72.8497949  93.8291233  23.8724459  56.3705001
  94.3415754  24.6667710  56.5210566  94.4813946  23.1750750  56.3038603
  95.6386118  26.9890216  58.4527755  95.8152746  27.9108180  58.2648739
  96.4342951  26.6748635  58.8822134  99.7797136  13.8498480  70.0511688
 100.5206850  14.4505633  69.9716151 100.0115059  13.1076118  69.4929731
  94.9238474  19.0354848  68.3289918  94.8091990  18.1340105  68.6297017
  94.0682992  19.2818544  67.9774734 102.0030312  26.9772588  69.9277418
 101.5594166  26.1908966  69.6098323 102.6647526  27.1651738  69.2621309
  96.7617433  28.5068389  64.4538097  97.3124859  28.3785453  63.6815091
  95.9228909  28.8063279  64.1032990 104.1011550  27.2575388  67.9558820
 104.0830026  28.0784269  67.4639089 105.0231470  27.1329463  68.1808961
 100.5584604  24.7719517  68.7982328 101.0912941  24.0107805  68.5681636
 100.0298686  24.4793169  69.5406483 103.7254299   9.8779583  64.3275970
 103.3818569  10.7681225  64.2515080 104.0933262   9.6881241  63.4645555
  91.7940150  22.2013114  57.1464572  92.6315372  22.6110122  56.9298280
  91.9718418  21.2612556  57.1164766 103.6904582  19.8688194  52.8348405
 103.1751206  20.6392799  53.0736792 103.4181891  19.1953331  53.4581466
 101.2751693  14.7137895  57.8933643 100.4193289  14.3244746  57.7139282
 101.6878645  14.7929856  57.0333429 102.8050840  12.2484238  62.2925203
 102.3015635  12.2114374  61.4793008 103.0981447  13.1576981  62.3521860
  99.0493726  12.3322968  61.2991385  99.9146722  12.1365777  60.9397274
  99.1171235  12.1033320  62.2260742 108.6638856  22.6220549  54.7701578
 107.8868299  22.2831709  54.3256741 109.3430337  22.6273172  54.0956543
 103.4790885  17.7415286  54.6608186 103.1741021  18.0561436  55.5118329
 104.4321327  17.8196706  54.7035519 101.9237317  23.9005510  56.3101140
 101.3958679  23.1658269  55.9974378 101.4224820  24.6780186  56.0641108
 106.9030163  22.0954530  61.4268186 106.2453838  22.7853792  61.5148315
 107.7070562  22.4850962  61.7702173  96.6556045  14.5625176  58.6707752
  97.2299797  14.3400358  57.9380945  97.2427027  14.6313871  59.4236353
 105.7135622  20.4498903  59.4772128 106.2267504  21.0828895  59.9793838
 106.3636846  19.8500098  59.1115488  96.9825632  16.5929637  52.6903637
  96.1462944  16.9304324  53.0112912  96.8430401  16.4578617  51.7530774
  98.9578712  11.4366425  57.3982821  98.3043125  11.1215442  56.7739436
  98.9159187  10.8142165  58.1242644 100.0689917  21.7185720  49.3136113
  99.1616979  21.4874973  49.5127262 100.5660949  20.9223339  49.5010095
 102.9757996  30.4283227  52.2332799 102.3019695  30.7314924  52.8417757
 103.3623818  31.2312308  51.8838256 102.1916453  17.9248359  61.7230469
 101.2739014  18.1463306  61.5652157 102.6076596  17.9994669  60.8642176
 102.9751501  19.3239774  56.8533149 103.7223320  19.8361171  56.5440271
 103.2443090  19.0023827  57.7137543 101.2478151  21.8198315  53.8360103
 100.3389370  21.5357348  53.9332573 101.2773235  22.2397393  52.9763410
 106.4797418  25.4304904  57.6051271 106.0259745  24.5895814  57.6616461
 105.8491385  26.0666303  57.9426051 105.4230338  16.3596890  58.8351938
 104.6853095  15.8474277  59.1662181 105.6757111  15.9197272  58.0235215
 104.9230357  27.2681401  58.5401089 105.2153332  27.8286458  57.8213455
 105.4328978  27.5609962  59.2954248 105.5241965   9.1373142  59.4293708
 105.8300842   8.2770506  59.1419623 106.2494570   9.7290763  59.2292701
  91.8166321  19.5403829  57.8175305  91.6190721  18.9473190  57.0926372
  91.2612985  19.2356039  58.5351244  99.7963045  19.4326936  59.9369899
  99.8511655  18.4800772  59.8612375  98.9854247  19.5886375  60.4211197
 100.9454239  23.3607059  51.1748182 100.5073668  22.6442918  50.7153819
 101.6864679  23.5883173  50.6133273  97.7355405  18.0503995  57.6960277
  96.9223270  18.3498166  58.1025470  98.2314399  17.6559684  58.4134760
  99.8863983  28.0461752  59.6294542  99.8440161  28.2722598  58.7003074
 100.8026681  27.8125127  59.7780343 103.3329616  18.5145820  66.5275171
 103.6879004  18.7417293  67.3869637 103.9801748  18.8464197  65.9052427
 109.0627353  21.6364256  57.2324500 108.9245252  21.8265852  56.3045690
 108.7063572  22.3983638  57.6892552  97.2269479  15.6222351  63.3121512
  97.8668859  15.4811110  62.6144476  96.3947010  15.3356864  62.9360114
 109.0896733  23.7040783  62.2435772 109.5233240  23.6116072  63.0918826
 109.8028314  23.6798283  61.6055788  98.0029783  24.9224781  59.4256505
  98.7970382  24.4275101  59.2239080  97.2921476  24.3942644  59.0624210
 102.8224628  27.3042877  63.7768872 102.8761650  27.8733813  64.5446588
 101.9539409  27.4744762  63.4122910  94.3112547  19.0667863  55.5016258
  93.3810135  19.0052318  55.7186220  94.4070019  18.5443816  54.7052899
  94.2298096  15.5922676  58.0894499  94.4904913  16.5068009  57.9803660
  95.0515268  15.1247118  58.2391112  95.7023021  17.0060433  65.2593324
  96.3746075  16.7977795  64.6105973  94.8752808  16.8082519  64.8198556
 109.9512283  23.7464483  64.7768657 110.1448173  24.6510294  65.0227932
 109.8512901  23.2871902  65.6107242 101.6048593  13.6322374  67.2758985
 100.9576508  14.3312324  67.1823461 102.3749609  14.0658518  67.6435233
 105.0127391  23.8971226  70.3509538 104.8612898  23.6681778  69.4339622
 105.0032071  24.8541827  70.3640883 101.7812728  21.4703139  65.3355804
 102.7104788  21.6214298  65.1624772 101.3603758  21.5587160  64.4804451
 100.5801059  25.4953803  63.1054342 100.4412145  25.1272588  63.9780280
  99.7915656  26.0101443  62.9338300 101.1749211  30.5962900  54.4479878
 101.3500967  30.1250943  55.2625501 100.4881999  31.2228666  54.6761139
 102.1306275  24.8735406  60.4943180 101.7956107  24.8336176  61.3900830
 101.6310220  24.2080122  60.0213590  96.1050518  20.2803036  66.0195761
  95.9670316  19.5483275  66.6207300  97.0155442  20.1911936  65.7379949
 105.0665466  22.2191440  50.7680239 104.4494637  21.4938268  50.6713292
 104.5981955  22.9800801  50.4247314  98.7332819  19.9922995  65.5079441
  99.4432438  19.3516187  65.4666059  98.6902127  20.2435890  66.4305621
 106.7219598  26.9290349  68.4286020 106.6632144  26.2449569  67.7616603
 107.1239116  27.6709339  67.9766646  97.4461753  16.9788213  67.3275080
  96.9099110  16.5278952  67.9796676  96.8578462  17.1134122  66.5845544
  95.7410297  33.7452262  61.2219739  95.9806895  34.3770787  61.8998757
  94.8979493  33.3940302  61.5085098  96.8564012  16.4376865  49.8901544
  95.9793478  16.3165665  49.5263790  97.3321765  15.6462943  49.6380432
 106.7237005  24.8929933  66.6599999 105.8363784  24.5555854  66.7826398
 107.2935556  24.1612964  66.8968765  88.3766152  21.2254024  59.9843051
  89.0637192  20.9115754  59.3964066  88.2214281  22.1295389  59.7110302
  93.1800874  16.1144221  64.4128075  93.0959063  15.5069890  63.6778484
  92.3583581  16.6053239  64.4137571 100.2538158  29.5531385  63.6261243
 100.1808330  30.3586356  64.1380547  99.8115552  29.7523351  62.8009264
 100.0427938  28.7903155  57.1364064  99.2595460  29.3324835  57.2302289
 100.7420683  29.3077135  57.5358305 103.3524588  14.5997784  59.7798270
 103.8493288  13.8467747  59.4599340 102.5811570  14.6362101  59.2141479
 111.2054346  20.3038150  61.4216561 111.1944222  21.1862865  61.0510494
 110.3371725  19.9509701  61.2271098 102.7136842  29.4518219  65.7819401
 103.4264814  30.0865684  65.7095303 102.2226871  29.5482085  64.9659403
 104.4354369  23.3569472  57.3536693 103.5010648  23.4770934  57.1841397
 104.6131037  22.4541938  57.0896703  99.9359557  16.7415167  59.5069954
  99.5657345  16.1886208  60.1950860 100.4318649  16.1373301  58.9544954
 107.8226920  19.1986791  57.8886727 108.2887372  20.0314782  57.8147030
 108.2734421  18.7331772  58.5931986  97.7648756  27.2012662  66.6024972
  98.4658215  27.8349145  66.7554366  97.2943871  27.5427394  65.8420611
 105.8903151  25.5430612  54.8872879 106.1662995  25.4287207  55.7966753
 105.0207650  25.1448097  54.8485052 105.7943583  11.5667378  61.9277628
 104.8806663  11.7971605  62.0959835 106.2236684  11.6505822  62.7791661
 105.5650042  19.7557270  64.4277522 104.9121492  20.0033177  63.7729975
 105.9430421  18.9421408  64.0940000 102.5257215  29.7916963  58.5305693
 102.7079610  28.9738619  58.9933445 103.3490201  30.0084655  58.0930583
 102.8599381  28.7185148  55.7920741 103.3887147  28.2077603  55.1790903
 103.1227600  28.4027678  56.6566274 101.6137615  20.4977081  70.9143560
 100.9378252  20.3971210  71.5845935 102.4365248  20.3416295  71.3779557
  93.3616474  26.7349017  63.5356075  93.9469910  25.9892705  63.6683979
  93.1641312  27.0452974  64.4192739  96.2155129  29.7700265  58.5518517
  95.5465504  30.2546392  58.0682557  96.0767999  30.0169485  59.4661896
  87.9534128  19.3054618  62.2560518  87.9918228  18.7718208  63.0497636
  87.4474421  18.7789823  61.6371495 100.3560397  31.8044008  65.1501176
 100.9078705  31.9675630  65.9150261 100.6966591  32.3948446  64.4781200
  95.3324891  14.1519158  65.7523060  95.3966217  15.0133989  65.3400458
  95.2692011  13.5393160  65.0195419  94.8077163  16.2242291  69.3996095
  95.4349202  15.8419368  70.0133619  93.9505082  16.0056493  69.7651787
 105.2071272  26.6305266  71.0049830 105.7511176  27.2435224  70.5104785
 104.6258117  27.1884844  71.5216843  91.5842706  18.0318720  55.3314449
  91.8796147  17.1229398  55.2781503  90.6830742  18.0106459  55.0095452
 103.4928785  29.7525984  62.1364858 103.3679924  28.9515724  61.6275803
 104.1507876  30.2472177  61.6478828  95.1136953  16.1074716  61.3141998
  94.3923539  16.7210684  61.1749471  95.9030209  16.6432481  61.2358644
 105.5563693  27.5535004  63.7644408 104.6094029  27.4340355  63.6922735
 105.9046466  26.6657502  63.8470669  97.9163266  13.4429143  67.5882650
  98.4397668  13.6891439  68.3508959  97.6975600  14.2749178  67.1685787
  93.3130548  15.7132817  55.4553774  92.9843254  14.8330196  55.2728880
  93.6669918  15.6580486  56.3430164 102.5610126  27.3487720  59.9648760
 102.4135089  26.4204428  60.1456330 103.3863620  27.3707811  59.4805835
  96.4272371  16.0005787  55.8229252  96.7668443  16.5291708  55.1007861
  96.8744491  16.3386193  56.5987819 106.1644248  28.1716279  61.0513633
 107.0890796  27.9659140  60.9138084 105.9959552  27.9232680  61.9602974
  99.1215811  14.3842838  65.2732320  98.7812632  13.5850651  65.6753000
  98.4154818  14.6844549  64.7009153  99.7732283  11.4692150  63.7259643
 100.5958353  10.9952629  63.6038534 100.0170347  12.2482634  64.2258330
  98.4140518  14.4980409  54.0222545  99.1348880  14.8761662  53.5186262
  97.7905822  15.2169286  54.1257523 102.5571641  15.2025558  54.9580877
 102.7735255  16.0850196  54.6569705 102.0765708  14.8111771  54.2286519
  97.2970862  18.1611271  61.5351622  97.1515443  18.4751574  62.4275903
  96.8196066  18.7796171  60.9822520  99.1567245  15.1513819  61.5832511
  99.1428814  14.2554912  61.2464809  99.8739673  15.1584483  62.2170797
 101.0093376  15.5851159  63.6285639 100.7511153  16.5068230  63.6269969
 100.4778416  15.1881594  64.3186103 105.9539564  28.6901946  56.4075724
 106.1276442  28.1248369  55.6549577 106.4468456  29.4902841  56.2255214
  91.7716524  20.7016615  64.4739283  91.2269992  21.4776423  64.6059557
  92.6495874  21.0487420  64.3158404  98.5604141  14.0328199  56.8520082
  98.6820052  13.1044845  57.0510969  98.2706183  14.0466885  55.9398397
 101.4295331  11.7183110  59.9886801 101.4517028  11.7822443  59.0338781
 101.8463390  10.8787618  60.1827308 111.8078956  21.4538369  58.0266024
 112.2510102  20.7045694  57.6285147 110.9305466  21.4448506  57.6439756
 106.9414737  28.0068711  53.5072623 107.6365642  28.6275403  53.7259937
 107.2837887  27.1564062  53.7825000  92.5582546  19.8286512  67.3669440
  91.8164282  19.9769147  67.9534070  92.2375290  20.0894777  66.5036189
 108.8406160  25.4568416  55.0359953 109.3657484  25.7955689  54.3109273
 108.7528513  24.5215432  54.8523088 100.5026209  29.3702490  67.1649830
 100.8113335  29.1251637  68.0372529 101.3001691  29.5749128  66.6768700
 100.5246821  31.5240400  59.3955206 100.0851811  31.0316778  60.0888063
 101.2754938  30.9813367  59.1547282  93.0039160  27.7151940  59.3979835
  93.8297180  27.4155712  59.0178478  92.6533212  26.9459563  59.8469623
  97.9720693  27.0678409  61.4677508  97.3500702  26.4049114  61.1679736
  98.6425560  27.0939541  60.7851156  91.2047765  25.6338267  60.3568768
  90.3679673  25.2060441  60.1752769  91.1771410  25.8270710  61.2939559
  98.0445220  15.5460197  71.0610014  98.0933376  16.4222319  70.6787784
  98.5867735  15.0037590  70.4881657 108.5300066  26.0901320  70.3411151
 107.7395610  26.0725459  69.8015651 108.2933421  26.6289614  71.0960188
 108.6497941  22.9393786  67.6543880 108.6995946  22.7743794  68.5959403
 108.5411864  22.0721045  67.2641761  97.5334200  25.6182332  54.9435969
  97.6822320  26.3017796  54.2902641  98.3400643  25.5987422  55.4585424
 105.9401704  18.9224714  68.9703186 106.8411566  18.7831179  68.6787184
 106.0149678  19.0879169  69.9101364 100.2744509  16.2991569  67.8156373
  99.4047818  16.5925135  67.5438961 100.5103989  16.8832014  68.5363636
 110.1516138  25.3590728  67.8985901 109.8600946  25.7220708  68.7349362
 109.5388269  24.6457736  67.7199233 111.3511820  22.9243608  60.4188472
 112.1858712  23.3633412  60.5826032 111.4870949  22.4482261  59.5996717
 108.4003326  20.4823342  66.3665959 108.8757448  20.6750989  65.5584811
 107.4768892  20.5382528  66.1209343  95.2886833  21.6447510  55.9497038
  95.0432875  20.7409840  56.1477248  95.4582747  21.6464660  55.0076516
 102.9783543  12.5171186  65.3321793 103.4965487  13.2532213  65.0068282
 102.6238675  12.8235179  66.1668552  94.5582480  17.3775867  53.4483199
  93.8651725  17.4520222  52.7923235  94.3134232  16.6136211  53.9704716
 103.2296137   8.9371469  60.8522690 103.5097891   8.2694658  61.4783116
 104.0146744   9.1300564  60.3397354 101.0329605  28.1130462  52.4147716
 100.4603572  28.7320650  51.9618188 101.6062399  28.6629824  52.9487638
 107.1004995  17.3589103  64.5994265 108.0522418  17.4587200  64.6206489
 106.9308446  16.5667371  65.1092349 105.1219375  14.4444686  64.7853666
 104.5269307  14.7249698  64.0900154 104.8369071  14.9338587  65.5570407
 104.2526865  28.3967613  53.5456298 105.1857538  28.3313174  53.7489174
 104.1650078  29.2323879  53.0870831 106.8814882  27.7133483  50.5060246
 106.8028513  27.3793346  51.3996004 107.7024549  28.2055251  50.5051718
 109.5793073  20.5795222  63.7136565 109.5469393  19.6411223  63.8996248
 110.1893697  20.6579259  62.9802389 101.4176404  19.4491275  49.7563769
 102.3635509  19.3197483  49.8252187 101.0390649  18.7105937  50.2333197
 109.7287561  17.3706266  63.7594848 109.2126610  16.5864722  63.5724777
 110.6127510  17.0424982  63.9241367 107.3898288  11.1147281  59.7190660
 107.1923110  10.8062369  60.6033992 107.9997994  11.8408920  59.8488590
 115.3969623  21.6411229  62.8542601 116.1273011  21.3796517  63.4150305
 114.7876568  20.9039951  62.8944669 113.4784920  19.7819092  63.4517053
 112.7518084  19.6475057  62.8433544 113.0632207  20.0895920  64.2573771
 101.3015096  23.5009021  71.2164426 102.2218106  23.6787620  71.4104472
 101.2664679  22.5565067  71.0644125  99.6019321  17.3741252  49.6918654
  98.6950776  17.0774364  49.7681367  99.8795302  17.0771070  48.8252940
  90.5197261  18.6947615  60.1417700  90.2000046  17.8412923  59.8492074
  89.9730690  18.9096193  60.8975668  94.2977169  21.4110056  63.8587207
  94.5163179  22.3427164  63.8775241  94.7102943  21.0518030  64.6442011
 101.2181387  11.9178141  55.8462895 100.4082115  11.5725226  56.2218141
 101.9065804  11.6085685  56.4350507 103.1471935  10.9956188  57.4687192
 103.7002974  11.4151642  58.1277215 103.3842021  10.0691936  57.5110148
  99.1705034  16.9843262  73.2489956  99.0701761  17.9337619  73.1802047
  98.9526576  16.6561501  72.3766026  98.3718106  14.2328187  49.8330633
  99.2337270  14.5583085  50.0926450  98.5568450  13.4459683  49.3203699
  90.3885521  22.3150526  62.1110822  89.6948993  21.9004479  61.5980776
  91.1358512  22.3571063  61.5144241 106.5250742  13.1056713  56.9765856
 105.9449411  13.7641517  56.5943908 106.2586675  12.2834058  56.5653274
 104.9754308  12.5061771  59.1787176 105.4754087  12.6178305  58.3701495
 105.6189916  12.2022824  59.8187985  99.0336304  20.4140401  72.0655017
  98.5503386  21.2140761  72.2718906  99.1197243  20.4248345  71.1122461
  92.3022264  22.2468780  59.9876837  92.2792952  22.3456468  59.0358720
  92.6122900  23.0933931  60.3094003  94.9609642  24.3044935  64.1023451
  95.9152895  24.2728878  64.0353383  94.7622165  23.8435559  64.9173677
  95.5509024  22.8746051  66.6694249  96.3701913  23.3690130  66.6929086
  95.8245832  21.9578019  66.6411816 105.3075620  15.2656804  56.0322204
 104.4201475  15.5506454  55.8142399 105.7229609  15.1050567  55.1849481
 108.6590156  15.2903325  59.7476544 109.4350546  15.7799777  60.0201160
 107.9338290  15.7161379  60.2048413 111.0962715  16.0030944  60.8050484
 111.6907206  15.7626680  60.0943792 111.1689299  15.2838074  61.4324020
  93.3159871  29.8464555  61.1193649  93.1814339  29.0864956  60.5531647
  92.8991933  30.5705455  60.6522438 104.4518834  25.0301478  50.1270224
 105.1554684  25.2351481  50.7427880 103.7281482  25.5978240  50.3919308
 105.2816644  20.7811340  56.2472494 105.2251845  21.2379891  55.4080127
 105.8344986  20.0202024  56.0695337 109.0921450  16.5701071  57.0722614
 108.8358384  16.1697707  57.9030822 108.4674318  17.2844865  56.9472753
 113.4033788  19.3097145  59.5793905 112.8433346  19.3790334  60.3525467
 112.7977291  19.1338129  58.8593402  96.4728996  30.7433872  61.3312092
  96.3561381  31.6879304  61.2290782  95.6521443  30.4407433  61.7197891
 106.3605531  25.4684007  52.1768684 107.1951135  25.0365206  51.9946159
 106.1989874  25.2966021  53.1045579 106.0151423  21.9716121  53.5425024
 105.9600227  21.8060392  52.6013468 105.3897478  22.6792154  53.6987213
  90.8043938  17.2084185  67.3686446  91.4502802  16.6983139  67.8573671
  90.5961089  17.9452867  67.9429871 103.3297330  24.2765033  72.8678586
 104.1988490  24.4505685  72.5065221 102.8504082  25.0959449  72.7454316
  99.3247549  11.4724230  53.1210342  99.3126218  12.4166070  53.2778613
 100.2170971  11.2894375  52.8269803  97.4983511  31.3962134  64.5468020
  98.4010757  31.4285744  64.8634515  97.2720881  30.4662585  64.5614356
  99.2537113  30.1493120  61.2078099  98.3032744  30.1494982  61.0942471
  99.5569599  29.4025855  60.6914133 103.1399668   8.0667006  57.3756279
 102.3732064   7.5125493  57.5212961 103.5510373   8.1388875  58.2370430
  95.1441429  14.3551802  71.4661460  96.0072891  13.9988607  71.6764785
  94.5706840  14.0165697  72.1536864 114.9889806  35.9853659  62.2723861
 115.6268216  35.8660406  61.5687201 114.8710649  36.9334503  62.3311813
 111.7979512  35.9381087  62.2085386 111.4598024  35.8222151  61.3205921
 112.6669281  35.5372252  62.1886392 107.6566328  37.7916563  58.1982277
 107.0931193  37.7006500  57.4298564 107.5418723  36.9716468  58.6784769
 112.2799295  37.0915938  68.1671591 112.2687936  36.6968737  67.2952095
 112.4419935  36.3582011  68.7605363 105.2030760  39.2867755  61.0366497
 105.9952052  38.9458579  60.6212796 105.4427410  39.3962730  61.9568650
 113.2365887  41.4587531  53.5096742 112.5853867  42.0441611  53.1230755
 114.0310250  41.9893726  53.5691779 107.1621514  38.5476668  53.9083876
 107.9352390  38.0005655  53.7696752 107.5146913  39.4120917  54.1198337
 109.0006557  39.8753050  67.1150775 108.7096422  40.7798681  66.9997442
 109.6363541  39.9169578  67.8294845 109.9262763  37.2529899  63.7052135
 110.5226336  37.0285921  62.9909098 109.9837735  36.5114644  64.3077583
 109.4987792  34.7069334  51.5402326 109.7513312  34.1850855  50.7785789
 108.5612351  34.5435480  51.6429009 114.5431075  33.7105112  59.3477069
 115.3294164  33.2924536  58.9967486 114.8069779  34.6151205  59.5158717
 114.7141152  39.1477963  54.0465726 114.0786985  39.2212589  54.7586631
 114.3838558  39.7371562  53.3684805 119.9439502  33.6480346  60.2510048
 120.6764674  33.0779562  60.4847877 119.1878857  33.2601946  60.6916553
 109.2184081  36.6097440  53.7426701 109.1020339  35.9342343  54.4107785
 109.3286340  36.1229814  52.9258854 111.5615621  36.0707587  57.4473390
 111.1973829  35.5438208  58.1586312 112.4182737  35.6806056  57.2739875
 117.4664922  27.3601920  64.7104656 117.1348247  28.2297331  64.4865871
 116.8710535  27.0438204  65.3898687 111.2021108  31.0997487  52.4434739
 111.3695511  31.9677723  52.8105210 111.0118277  31.2624769  51.5196028
 113.9596442  39.5614466  64.1100569 113.6597165  40.4639505  64.0016376
 113.6147501  39.2946649  64.9621722 107.4108923  36.0128263  60.1437273
 106.4859420  35.8804477  60.3514965 107.6593336  36.7922482  60.6407216
 117.3593585  32.0797006  61.7898006 116.4510463  32.0112414  61.4956767
 117.3081181  32.5568951  62.6179832 111.1810329  33.5555144  53.4281405
 111.0609954  34.0012195  54.2666886 110.4862918  33.9040462  52.8694944
 104.7717734  35.6561536  60.9781062 104.9010115  35.9096015  61.8920474
 104.0915185  36.2489244  60.6585718 108.9417221  46.3258786  57.0771537
 108.8641251  47.2766611  57.1560017 108.3378865  45.9804659  57.7346463
 111.4334451  33.4986652  69.7332904 110.6567785  34.0580572  69.7235768
 112.0725014  33.9843435  70.2547774 119.2255232  30.2813444  63.5675880
 118.5829612  30.5745977  62.9215675 118.7210160  30.1666365  64.3729077
 116.8795395  34.0276618  54.2561739 117.7913252  34.2604004  54.0809437
 116.3705043  34.6113662  53.6936818 109.6880823  36.3072105  69.2950871
 110.4295508  36.8457149  69.0185694 108.9817809  36.9338394  69.4522422
 115.1636163  38.4501245  67.8923032 115.5719519  38.0083656  67.1477664
 114.4413425  37.8753873  68.1457225 111.5167233  33.3873852  65.2656589
 112.3628428  33.8113266  65.4091238 111.4565871  32.7307476  65.9595152
 115.4864978  39.0102436  61.6475321 114.8573840  39.1748150  60.9451389
 115.0990640  39.4244046  62.4186285 119.3654210  39.9456874  59.0019685
 118.6805248  40.3255775  58.4516718 119.4498059  40.5552200  59.7351632
 114.6666678  31.0478220  66.9237763 114.4227610  31.8020281  66.3872038
 114.9426609  31.4263568  67.7585010 116.6205141  37.5916833  65.6015028
 116.8322037  38.2348593  64.9249409 116.5734890  36.7579149  65.1336958
 114.2231370  30.2034653  62.5051600 113.3615849  30.5015907  62.7968338
 114.2493805  30.4205052  61.5732633 111.0392940  38.7476844  58.9125406
 111.5031285  39.0264547  58.1230029 110.7749738  37.8460289  58.7298497
 107.9317021  38.2948326  61.8505169 108.5018378  38.7235594  61.2122654
 108.5225133  38.0130910  62.5489355 109.9761826  34.8699996  55.7214971
 110.6785869  35.3221040  56.1888898 109.6442454  34.2283815  56.3494864
 108.4242187  33.4611753  70.0966181 107.7940848  34.1428034  70.3301577
 108.3178275  33.3494835  69.1519319 103.7187160  33.1283549  61.0232105
 102.9286214  33.3841078  60.5472215 104.2098407  33.9431887  61.1284145
 117.7350969  40.4688788  63.7737386 118.5568413  40.0668976  63.4920067
 117.7313372  40.3657022  64.7253501 105.6701905  33.4928128  57.9815581
 104.8733068  33.6046823  58.4999077 105.4427497  33.8314781  57.1156472
 111.5007573  40.0172832  65.9298096 111.5652005  40.4793239  66.7656268
 110.7918497  39.3870196  66.0580406 102.0024863  33.3814040  63.4547096
 102.2532901  34.2661049  63.7204671 102.5384411  33.2018641  62.6822187
 125.8256962  36.8127537  60.1222357 125.0720671  36.2434935  59.9666361
 125.9604503  36.7790201  61.0692992 111.2155590  41.6840939  55.7977076
 111.0801265  42.5292475  56.2261924 111.7565403  41.8860217  55.0343010
 107.7022930  27.7632519  72.4591432 107.3089876  27.2098717  73.1339076
 108.5189070  28.0743097  72.8497949 104.6684988  39.2016377  56.3705001
 105.1809508  39.9959627  56.5210566 105.3207701  38.5042668  56.3038603
 106.4779872  42.3182133  58.4527755 106.6546501  43.2400098  58.2648739
 107.2736706  42.0040553  58.8822134 110.6190891  29.1790398  70.0511688
 111.3600604  29.7797551  69.9716151 110.8508814  28.4368036  69.4929731
 105.7632229  34.3646765  68.3289918 105.6485744  33.4632022  68.6297017
 104.9076747  34.6110462  67.9774734 112.8424067  42.3064506  69.9277418
 112.3987921  41.5200884  69.6098323 113.5041280  42.4943656  69.2621309
 107.6011188  43.8360307  64.4538097 108.1518613  43.7077371  63.6815091
 106.7622664  44.1355196  64.1032990 114.9405305  42.5867305  67.9558820
 114.9223780  43.4076187  67.4639089 115.8625225  42.4621381  68.1808961
 111.3978359  40.1011435  68.7982328 111.9306696  39.3399723  68.5681636
 110.8692440  39.8085087  69.5406483 114.5648054  25.2071501  64.3275970
 114.2212323  26.0973143  64.2515080 114.9327016  25.0173159  63.4645555
 102.6333904  37.5305031  57.1464572 103.4709126  37.9402040  56.9298280
 102.8112172  36.5904474  57.1164766 114.5298337  35.1980112  52.8348405
 114.0144960  35.9684717  53.0736792 114.2575645  34.5245248  53.4581466
 112.1145448  30.0429813  57.8933643 111.2587044  29.6536663  57.7139282
 112.5272399  30.1221774  57.0333429 113.6444594  27.5776156  62.2925203
 113.1409390  27.5406291  61.4793008 113.9375201  28.4868899  62.3521860
 109.8887480  27.6614886  61.2991385 110.7540477  27.4657694  60.9397274
 109.9564989  27.4325238  62.2260742 119.5032611  37.9512467  54.7701578
 118.7262054  37.6123626  54.3256741 120.1824092  37.9565090  54.0956543
 114.3184640  33.0707204  54.6608186 114.0134775  33.3853353  55.5118329
 115.2715082  33.1488624  54.7035519 112.7631072  39.2297427  56.3101140
 112.2352433  38.4950187  55.9974378 112.2618574  40.0072104  56.0641108
 117.7423918  37.4246448  61.4268186 117.0847592  38.1145709  61.5148315
 118.5464317  37.8142880  61.7702173 107.4949799  29.8917094  58.6707752
 108.0693551  29.6692275  57.9380945 108.0820782  29.9605788  59.4236353
 116.5529376  35.7790821  59.4772128 117.0661258  36.4120812  59.9793838
 117.2030600  35.1792016  59.1115488 107.8219386  31.9221555  52.6903637
 106.9856699  32.2596241  53.0112912 107.6824156  31.7870535  51.7530774
 109.7972467  26.7658343  57.3982821 109.1436879  26.4507360  56.7739436
 109.7552941  26.1434083  58.1242644 110.9083672  37.0477638  49.3136113
 110.0010734  36.8166891  49.5127262 111.4054704  36.2515257  49.5010095
 113.8151751  45.7575145  52.2332799 113.1413449  46.0606842  52.8417757
 114.2017573  46.5604225  51.8838256 113.0310207  33.2540276  61.7230469
 112.1132769  33.4755223  61.5652157 113.4470351  33.3286587  60.8642176
 113.8145255  34.6531692  56.8533149 114.5617074  35.1653089  56.5440271
 114.0836845  34.3315745  57.7137543 112.0871905  37.1490233  53.8360103
 111.1783125  36.8649265  53.9332573 112.1166989  37.5689311  52.9763410
 117.3191173  40.7596822  57.6051271 116.8653500  39.9187732  57.6616461
 116.6885139  41.3958220  57.9426051 116.2624092  31.6888808  58.8351938
 115.5246849  31.1766194  59.1662181 116.5150866  31.2489190  58.0235215
 115.7624112  42.5973319  58.5401089 116.0547086  43.1578376  57.8213455
 116.2722732  42.8901880  59.2954248 116.3635720  24.4665060  59.4293708
 116.6694596  23.6062424  59.1419623 117.0888324  25.0582680  59.2292701
 102.6560076  34.8695747  57.8175305 102.4584475  34.2765107  57.0926372
 102.1006740  34.5647957  58.5351244 110.6356799  34.7618853  59.9369899
 110.6905409  33.8092690  59.8612375 109.8248001  34.9178292  60.4211197
 111.7847993  38.6898976  51.1748182 111.3467423  37.9734835  50.7153819
 112.5258434  38.9175091  50.6133273 108.5749159  33.3795913  57.6960277
 107.7617025  33.6790083  58.1025470 109.0708153  32.9851602  58.4134760
 110.7257737  43.3753670  59.6294542 110.6833916  43.6014516  58.7003074
 111.6420436  43.1417044  59.7780343 114.1723371  33.8437737  66.5275171
 114.5272759  34.0709211  67.3869637 114.8195502  34.1756114  65.9052427
 119.9021108  36.9656173  57.2324500 119.7639006  37.1557769  56.3045690
 119.5457327  37.7275556  57.6892552 108.0663234  30.9514268  63.3121512
 108.7062613  30.8103028  62.6144476 107.2340765  30.6648782  62.9360114
 119.9290487  39.0332700  62.2435772 120.3626994  38.9407989  63.0918826
 120.6422068  39.0090201  61.6055788 108.8423538  40.2516699  59.4256505
 109.6364136  39.7567019  59.2239080 108.1315230  39.7234562  59.0624210
 113.6618382  42.6334794  63.7768872 113.7155405  43.2025731  64.5446588
 112.7933164  42.8036679  63.4122910 105.1506301  34.3959781  55.5016258
 104.2203889  34.3344236  55.7186220 105.2463773  33.8735733  54.7052899
 105.0691850  30.9214593  58.0894499 105.3298668  31.8359927  57.9803660
 105.8909023  30.4539036  58.2391112 106.5416776  32.3352351  65.2593324
 107.2139829  32.1269713  64.6105973 105.7146562  32.1374437  64.8198556
 120.7906037  39.0756401  64.7768657 120.9841927  39.9802211  65.0227932
 120.6906655  38.6163820  65.6107242 112.4442348  28.9614292  67.2758985
 111.7970263  29.6604241  67.1823461 113.2143363  29.3950435  67.6435233
 115.8521146  39.2263144  70.3509538 115.7006652  38.9973695  69.4339622
 115.8425825  40.1833745  70.3640883 112.6206482  36.7995056  65.3355804
 113.5498542  36.9506216  65.1624772 112.1997512  36.8879077  64.4804451
 111.4194814  40.8245721  63.1054342 111.2805900  40.4564505  63.9780280
 110.6309410  41.3393360  62.9338300 112.0142966  45.9254817  54.4479878
 112.1894722  45.4542861  55.2625501 111.3275754  46.5520584  54.6761139
 112.9700029  40.2027324  60.4943180 112.6349862  40.1628094  61.3900830
 112.4703975  39.5372039  60.0213590 106.9444273  35.6094954  66.0195761
 106.8064071  34.8775192  66.6207300 107.8549196  35.5203854  65.7379949
 115.9059221  37.5483358  50.7680239 115.2888391  36.8230186  50.6713292
 115.4375709  38.3092718  50.4247314 109.5726574  35.3214913  65.5079441
 110.2826192  34.6808105  65.4666059 109.5295882  35.5727808  66.4305621
 117.5613352  42.2582266  68.4286020 117.5025898  41.5741486  67.7616603
 117.9632871  43.0001256  67.9766646 108.2855508  32.3080131  67.3275080
 107.7492865  31.8570869  67.9796676 107.6972216  32.4426040  66.5845544
 106.5804051  49.0744180  61.2219739 106.8200649  49.7062704  61.8998757
 105.7373248  48.7232220  61.5085098 107.6957767  31.7668782  49.8901544
 106.8187233  31.6457583  49.5263790 108.1715520  30.9754861  49.6380432
 117.5630760  40.2221850  66.6599999 116.6757538  39.8847772  66.7826398
 118.1329311  39.4904881  66.8968765  99.2159907  36.5545942  59.9843051
  99.9030947  36.2407672  59.3964066  99.0608035  37.4587307  59.7110302
 104.0194629  31.4436138  64.4128075 103.9352818  30.8361808  63.6778484
 103.1977335  31.9345157  64.4137571 111.0931913  44.8823303  63.6261243
 111.0202084  45.6878274  64.1380547 110.6509306  45.0815268  62.8009264
 110.8821693  44.1195073  57.1364064 110.0989214  44.6616753  57.2302289
 111.5814438  44.6369052  57.5358305 114.1918343  29.9289702  59.7798270
 114.6887042  29.1759664  59.4599340 113.4205324  29.9654019  59.2141479
 122.0448100  35.6330068  61.4216561 122.0337976  36.5154783  61.0510494
 121.1765480  35.2801618  61.2271098 113.5530597  44.7810137  65.7819401
 114.2658569  45.4157601  65.7095303 113.0620625  44.8774003  64.9659403
 115.2748123  38.6861389  57.3536693 114.3404402  38.8062852  57.1841397
 115.4524792  37.7833856  57.0896703 110.7753311  32.0707085  59.5069954
 110.4051099  31.5178125  60.1950860 111.2712404  31.4665218  58.9544954
 118.6620675  34.5278709  57.8886727 119.1281127  35.3606700  57.8147030
 119.1128175  34.0623690  58.5931986 108.6042510  42.5304580  66.6024972
 109.3051970  43.1641063  66.7554366 108.1337625  42.8719312  65.8420611
 116.7296906  40.8722530  54.8872879 117.0056750  40.7579124  55.7966753
 115.8601405  40.4740015  54.8485052 116.6337338  26.8959296  61.9277628
 115.7200417  27.1263522  62.0959835 117.0630439  26.9797740  62.7791661
 116.4043796  35.0849187  64.4277522 115.7515246  35.3325095  63.7729975
 116.7824176  34.2713326  64.0940000 113.3650970  45.1208881  58.5305693
 113.5473364  44.3030537  58.9933445 114.1883956  45.3376573  58.0930583
 113.6993135  44.0477066  55.7920741 114.2280902  43.5369520  55.1790903
 113.9621355  43.7319596  56.6566274 112.4531369  35.8268999  70.9143560
 111.7772006  35.7263128  71.5845935 113.2759003  35.6708212  71.3779557
 104.2010228  42.0640935  63.5356075 104.7863665  41.3184623  63.6683979
 104.0035067  42.3744892  64.4192739 107.0548883  45.0992182  58.5518517
 106.3859259  45.5838310  58.0682557 106.9161753  45.3461403  59.4661896
  98.7927883  34.6346535  62.2560518  98.8311982  34.1010126  63.0497636
  98.2868176  34.1081741  61.6371495 111.1954152  47.1335926  65.1501176
 111.7472460  47.2967547  65.9150261 111.5360345  47.7240364  64.4781200
 106.1718645  29.4811076  65.7523060 106.2359972  30.3425907  65.3400458
 106.1085765  28.8685077  65.0195419 105.6470918  31.5534208  69.3996095
 106.2742956  31.1711286  70.0133619 104.7898837  31.3348410  69.7651787
 116.0465026  41.9597184  71.0049830 116.5904930  42.5727142  70.5104785
 115.4651871  42.5176762  71.5216843 102.4236460  33.3610637  55.3314449
 102.7189901  32.4521316  55.2781503 101.5224496  33.3398377  55.0095452
 114.3322539  45.0817902  62.1364858 114.2073679  44.2807641  61.6275803
 114.9901630  45.5764095  61.6478828 105.9530707  31.4366634  61.3141998
 105.2317293  32.0502602  61.1749471 106.7423963  31.9724399  61.2358644
 116.3957448  42.8826922  63.7644408 115.4487783  42.7632273  63.6922735
 116.7440221  41.9949420  63.8470669 108.7557021  28.7721061  67.5882650
 109.2791423  29.0183357  68.3508959 108.5369354  29.6041095  67.1685787
 104.1524302  31.0424735  55.4553774 103.8237008  30.1622114  55.2728880
 104.5063673  30.9872404  56.3430164 113.4003881  42.6779638  59.9648760
 113.2528843  41.7496345  60.1456330 114.2257374  42.6999729  59.4805835
 107.2666125  31.3297705  55.8229252 107.6062198  31.8583626  55.1007861
 107.7138246  31.6678111  56.5987819 117.0038003  43.5008197  61.0513633
 117.9284550  43.2951058  60.9138084 116.8353306  43.2524598  61.9602974
 109.9609566  29.7134756  65.2732320 109.6206386  28.9142569  65.6753000
 109.2548572  30.0136466  64.7009153 110.6126038  26.7984068  63.7259643
 111.4352107  26.3244546  63.6038534 110.8564101  27.5774552  64.2258330
 109.2534272  29.8272326  54.0222545 109.9742635  30.2053579  53.5186262
 108.6299576  30.5461203  54.1257523 113.3965395  30.5317475  54.9580877
 113.6129010  31.4142113  54.6569705 112.9159462  30.1403689  54.2286519
 108.1364617  33.4903189  61.5351622 107.9909197  33.8043492  62.4275903
 107.6589820  34.1088089  60.9822520 109.9960999  30.4805737  61.5832511
 109.9822568  29.5846830  61.2464809 110.7133428  30.4876400  62.2170797
 111.8487130  30.9143077  63.6285639 111.5904908  31.8360148  63.6269969
 111.3172171  30.5173511  64.3186103 116.7933319  44.0193864  56.4075724
 116.9670196  43.4540286  55.6549577 117.2862210  44.8194759  56.2255214
 102.6110279  36.0308533  64.4739283 102.0663747  36.8068341  64.6059557
 103.4889629  36.3779338  64.3158404 109.3997895  29.3620117  56.8520082
 109.5213807  28.4336763  57.0510969 109.1099938  29.3758803  55.9398397
 112.2689086  27.0475027  59.9886801 112.2910783  27.1114360  59.0338781
 112.6857145  26.2079536  60.1827308 122.6472710  36.7830287  58.0266024
 123.0903856  36.0337612  57.6285147 121.7699220  36.7740423  57.6439756
 117.7808491  43.3360628  53.5072623 118.4759396  43.9567321  53.7259937
 118.1231642  42.4855980  53.7825000 103.3976301  35.1578429  67.3669440
 102.6558037  35.3061065  67.9534070 103.0769045  35.4186695  66.5036189
 119.6799915  40.7860334  55.0359953 120.2051239  41.1247607  54.3109273
 119.5922267  39.8507349  54.8523088 111.3419963  44.6994408  67.1649830
 111.6507090  44.4543554  68.0372529 112.1395445  44.9041046  66.6768700
 111.3640575  46.8532317  59.3955206 110.9245566  46.3608696  60.0888063
 112.1148692  46.3105285  59.1547282 103.8432914  43.0443858  59.3979835
 104.6690934  42.7447630  59.0178478 103.4926966  42.2751481  59.8469623
 108.8114447  42.3970326  61.4677508 108.1894457  41.7341031  61.1679736
 109.4819314  42.4231458  60.7851156 102.0441519  40.9630185  60.3568768
 101.2073428  40.5352359  60.1752769 102.0165165  41.1562628  61.2939559
 108.8838975  30.8752114  71.0610014 108.9327130  31.7514237  70.6787784
 109.4261489  30.3329507  70.4881657 119.3693821  41.4193238  70.3411151
 118.5789364  41.4017376  69.8015651 119.1327175  41.9581531  71.0960188
 119.4891696  38.2685704  67.6543880 119.5389701  38.1035711  68.5959403
 119.3805619  37.4012963  67.2641761 108.3727954  40.9474250  54.9435969
 108.5216075  41.6309714  54.2902641 109.1794398  40.9279340  55.4585424
 116.7795458  34.2516632  68.9703186 117.6805321  34.1123097  68.6787184
 116.8543433  34.4171087  69.9101364 111.1138263  31.6283487  67.8156373
 110.2441573  31.9217053  67.5438961 111.3497744  32.2123932  68.5363636
 120.9909892  40.6882645  67.8985901 120.6994701  41.0512626  68.7349362
 120.3782024  39.9749654  67.7199233 122.1905575  38.2535525  60.4188472
 123.0252466  38.6925329  60.5826032 122.3264704  37.7774178  59.5996717
 119.2397081  35.8115260  66.3665959 119.7151202  36.0042906  65.5584811
 118.3162646  35.8674446  66.1209343 106.1280587  36.9739427  55.9497038
 105.8826629  36.0701757  56.1477248 106.2976502  36.9756578  55.0076516
 113.8177297  27.8463104  65.3321793 114.3359241  28.5824131  65.0068282
 113.4632430  28.1527097  66.1668552 105.3976235  32.7067785  53.4483199
 104.7045480  32.7812140  52.7923235 105.1527987  31.9428128  53.9704716
 114.0689891  24.2663386  60.8522690 114.3491645  23.5986575  61.4783116
 114.8540498  24.4592482  60.3397354 111.8723360  43.4422380  52.4147716
 111.2997327  44.0612567  51.9618188 112.4456154  43.9921742  52.9487638
 117.9398750  32.6881020  64.5994265 118.8916173  32.7879118  64.6206489
 117.7702200  31.8959289  65.1092349 115.9613129  29.7736603  64.7853666
 115.3663061  30.0541616  64.0900154 115.6762826  30.2630504  65.5570407
 115.0920620  43.7259530  53.5456298 116.0251293  43.6605092  53.7489174
 115.0043832  44.5615797  53.0870831 117.7208636  43.0425401  50.5060246
 117.6422268  42.7085264  51.3996004 118.5418303  43.5347168  50.5051718
 120.4186827  35.9087140  63.7136565 120.3863148  34.9703141  63.8996248
 121.0287451  35.9871177  62.9802389 112.2570158  34.7783193  49.7563769
 113.2029263  34.6489401  49.8252187 111.8784403  34.0397855  50.2333197
 120.5681316  32.6998183  63.7594848 120.0520365  31.9156640  63.5724777
 121.4521265  32.3716900  63.9241367 118.2292043  26.4439199  59.7190660
 118.0316864  26.1354287  60.6033992 118.8391748  27.1700838  59.8488590
 126.2363377  36.9703147  62.8542601 126.9666766  36.7088435  63.4150305
 125.6270323  36.2331869  62.8944669 124.3178674  35.1111009  63.4517053
 123.5911838  34.9766974  62.8433544 123.9025961  35.4187838  64.2573771
 112.1408851  38.8300939  71.2164426 113.0611860  39.0079538  71.4104472
 112.1058434  37.8856984  71.0644125 110.4413076  32.7033169  49.6918654
 109.5344531  32.4066282  49.7681367 110.7189057  32.4062987  48.8252940
 101.3591016  34.0239533  60.1417700 101.0393800  33.1704841  59.8492074
 100.8124444  34.2388111  60.8975668 105.1370923  36.7401974  63.8587207
 105.3556933  37.6719081  63.8775241 105.5496697  36.3809948  64.6442011
 112.0575141  27.2470059  55.8462895 111.2475870  26.9017144  56.2218141
 112.7459558  26.9377603  56.4350507 113.9865690  26.3248106  57.4687192
 114.5396728  26.7443559  58.1277215 114.2235776  25.3983854  57.5110148
 110.0098789  32.3135179  73.2489956 109.9095516  33.2629536  73.1802047
 109.7920331  31.9853418  72.3766026 109.2111860  29.5620104  49.8330633
 110.0731024  29.8875003  50.0926450 109.3962204  28.7751600  49.3203699
 101.2279276  37.6442444  62.1110822 100.5342747  37.2296397  61.5980776
 101.9752267  37.6862981  61.5144241 117.3644497  28.4348631  56.9765856
 116.7843166  29.0933435  56.5943908 117.0980429  27.6125976  56.5653274
 115.8148063  27.8353689  59.1787176 116.3147841  27.9470223  58.3701495
 116.4583671  27.5314741  59.8187985 109.8730059  35.7432318  72.0655017
 109.3897141  36.5432678  72.2718906 109.9590998  35.7540263  71.1122461
 103.1416018  37.5760698  59.9876837 103.1186707  37.6748385  59.0358720
 103.4516655  38.4225849  60.3094003 105.8003396  39.6336853  64.1023451
 106.7546650  39.6020795  64.0353383 105.6015920  39.1727477  64.9173677
 106.3902778  38.2037969  66.6694249 107.2095667  38.6982048  66.6929086
 106.6639586  37.2869937  66.6411816 116.1469375  30.5948721  56.0322204
 115.2595230  30.8798372  55.8142399 116.5623364  30.4342485  55.1849481
 119.4983911  30.6195242  59.7476544 120.2744301  31.1091695  60.0201160
 118.7732045  31.0453296  60.2048413 121.9356469  31.3322861  60.8050484
 122.5300960  31.0918597  60.0943792 122.0083053  30.6129992  61.4324020
 104.1553625  45.1756472  61.1193649 104.0208093  44.4156873  60.5531647
 103.7385687  45.8997372  60.6522438 115.2912588  40.3593396  50.1270224
 115.9948438  40.5643398  50.7427880 114.5675237  40.9270158  50.3919308
 116.1210398  36.1103257  56.2472494 116.0645600  36.5671809  55.4080127
 116.6738741  35.3493942  56.0695337 119.9315204  31.8992989  57.0722614
 119.6752139  31.4989625  57.9030822 119.3068072  32.6136783  56.9472753
 124.2427542  34.6389062  59.5793905 123.6827100  34.7082252  60.3525467
 123.6371046  34.4630047  58.8593402 107.3122751  46.0725789  61.3312092
 107.1955135  47.0171222  61.2290782 106.4915197  45.7699351  61.7197891
 117.1999286  40.7975925  52.1768684 118.0344889  40.3657124  51.9946159
 117.0383628  40.6257939  53.1045579 116.8545178  37.3008038  53.5425024
 116.7993981  37.1352310  52.6013468 116.2291233  38.0084071  53.6987213
 101.6437693  32.5376103  67.3686446 102.2896556  32.0275057  67.8573671
 101.4354844  33.2744784  67.9429871 114.1691085  39.6056950  72.8678586
 115.0382244  39.7797603  72.5065221 113.6897836  40.4251367  72.7454316
 110.1641303  26.8016147  53.1210342 110.1519973  27.7457987  53.2778613
 111.0564725  26.6186293  52.8269803 108.3377265  46.7254051  64.5468020
 109.2404512  46.7577662  64.8634515 108.1114635  45.7954502  64.5614356
 110.0930867  45.4785038  61.2078099 109.1426498  45.4786899  61.0942471
 110.3963353  44.7317772  60.6914133 113.9793423  23.3958924  57.3756279
 113.2125818  22.8417411  57.5212961 114.3904128  23.4680793  58.2370430
 105.9835184  29.6843720  71.4661460 106.8466645  29.3280525  71.6764785
 105.4100594  29.3457615  72.1536864 125.8283561  51.3145576  62.2723861
 126.4661971  51.1952324  61.5687201 125.7104403  52.2626420  62.3311813
 122.6373267  51.2673004  62.2085386 122.2991778  51.1514069  61.3205921
 123.5063035  50.8664169  62.1886392 118.4960083  53.1208481  58.1982277
 117.9324948  53.0298418  57.4298564 118.3812478  52.3008385  58.6784769
 123.1193050  52.4207856  68.1671591 123.1081691  52.0260654  67.2952095
 123.2813689  51.6873929  68.7605363 116.0424515  54.6159672  61.0366497
 116.8345806  54.2750497  60.6212796 116.2821165  54.7254647  61.9568650
 124.0759641  56.7879448  53.5096742 123.4247621  57.3733529  53.1230755
 124.8704004  57.3185643  53.5691779 118.0015268  53.8768586  53.9083876
 118.7746144  53.3297573  53.7696752 118.3540667  54.7412835  54.1198337
 119.8400311  55.2044968  67.1150775 119.5490177  56.1090599  66.9997442
 120.4757295  55.2461496  67.8294845 120.7656518  52.5821816  63.7052135
 121.3620090  52.3577839  62.9909098 120.8231489  51.8406562  64.3077583
 120.3381546  50.0361252  51.5402326 120.5907067  49.5142773  50.7785789
 119.4006105  49.8727397  51.6429009 125.3824829  49.0397030  59.3477069
 126.1687918  48.6216453  58.9967486 125.6463533  49.9443122  59.5158717
 125.5534906  54.4769880  54.0465726 124.9180739  54.5504507  54.7586631
 125.2232313  55.0663479  53.3684805 130.7833256  48.9772263  60.2510048
 131.5158428  48.4071480  60.4847877 130.0272612  48.5893864  60.6916553
 120.0577835  51.9389358  53.7426701 119.9414093  51.2634261  54.4107785
 120.1680095  51.4521732  52.9258854 122.4009376  51.3999505  57.4473390
 122.0367583  50.8730126  58.1586312 123.2576492  51.0097974  57.2739875
 128.3058677  42.6893837  64.7104656 127.9742001  43.5589248  64.4865871
 127.7104290  42.3730121  65.3898687 122.0414863  46.4289405  52.4434739
 122.2089265  47.2969641  52.8105210 121.8512032  46.5916686  51.5196028
 124.7990196  54.8906383  64.1100569 124.4990919  55.7931422  64.0016376
 124.4541256  54.6238567  64.9621722 118.2502678  51.3420180  60.1437273
 117.3253174  51.2096394  60.3514965 118.4987091  52.1214400  60.6407216
 128.1987340  47.4088924  61.7898006 127.2904217  47.3404332  61.4956767
 128.1474936  47.8860869  62.6179832 122.0204084  48.8847062  53.4281405
 121.9003709  49.3304113  54.2666886 121.3256672  49.2332380  52.8694944
 115.6111489  50.9853454  60.9781062 115.7403870  51.2387933  61.8920474
 114.9308940  51.5781162  60.6585718 119.7810976  61.6550704  57.0771537
 119.7035006  62.6058529  57.1560017 119.1772619  61.3096576  57.7346463
 122.2728206  48.8278569  69.7332904 121.4961540  49.3872489  69.7235768
 122.9118769  49.3135352  70.2547774 130.0648986  45.6105362  63.5675880
 129.4223367  45.9037895  62.9215675 129.5603915  45.4958282  64.3729077
 127.7189150  49.3568535  54.2561739 128.6307006  49.5895922  54.0809437
 127.2098797  49.9405579  53.6936818 120.5274578  51.6364023  69.2950871
 121.2689262  52.1749067  69.0185694 119.8211563  52.2630311  69.4522422
 126.0029918  53.7793163  67.8923032 126.4113274  53.3375574  67.1477664
 125.2807179  53.2045791  68.1457225 122.3560988  48.7165770  65.2656589
 123.2022183  49.1405183  65.4091238 122.2959625  48.0599394  65.9595152
 126.3258732  54.3394354  61.6475321 125.6967595  54.5040068  60.9451389
 125.9384394  54.7535963  62.4186285 130.2047964  55.2748792  59.0019685
 129.5199002  55.6547693  58.4516718 130.2891813  55.8844118  59.7351632
 125.5060433  46.3770138  66.9237763 125.2621365  47.1312199  66.3872038
 125.7820363  46.7555486  67.7585010 127.4598896  52.9208751  65.6015028
 127.6715791  53.5640510  64.9249409 127.4128644  52.0871067  65.1336958
 125.0625125  45.5326571  62.5051600 124.2009604  45.8307825  62.7968338
 125.0887559  45.7496970  61.5732633 121.8786694  54.0768762  58.9125406
 122.3425040  54.3556465  58.1230029 121.6143492  53.1752206  58.7298497
 118.7710775  53.6240243  61.8505169 119.3412132  54.0527512  61.2122654
 119.3618887  53.3422828  62.5489355 120.8155580  50.1991914  55.7214971
 121.5179624  50.6512958  56.1888898 120.4836209  49.5575733  56.3494864
 119.2635942  48.7903671  70.0966181 118.6334602  49.4719952  70.3301577
 119.1572030  48.6786752  69.1519319 114.5580914  48.4575467  61.0232105
 113.7679968  48.7132995  60.5472215 115.0492162  49.2723805  61.1284145
 128.5744724  55.7980706  63.7737386 129.3962167  55.3960893  63.4920067
 128.5707127  55.6948940  64.7253501 116.5095660  48.8220046  57.9815581
 115.7126823  48.9338740  58.4999077 116.2821252  49.1606698  57.1156472
 122.3401327  55.3464749  65.9298096 122.4045760  55.8085156  66.7656268
 121.6312251  54.7162114  66.0580406 112.8418617  48.7105957  63.4547096
 113.0926656  49.5952967  63.7204671 113.3778166  48.5310559  62.6822187
 136.6650717  52.1419454  60.1222357 135.9114425  51.5726853  59.9666361
 136.7998258  52.1082119  61.0692992 122.0549345  57.0132857  55.7977076
 121.9195020  57.8584392  56.2261924 122.5959157  57.2152134  55.0343010
 118.5416684  43.0924437  72.4591432 118.1483630  42.5390635  73.1339076
 119.3582825  43.4035015  72.8497949 115.5078742  54.5308295  56.3705001
 116.0203263  55.3251545  56.5210566 116.1601455  53.8334585  56.3038603
 117.3173627  57.6474051  58.4527755 117.4940255  58.5692016  58.2648739
 118.1130460  57.3332470  58.8822134 121.4584645  44.5082316  70.0511688
 122.1994359  45.1089469  69.9716151 121.6902568  43.7659953  69.4929731
 116.6025983  49.6938683  68.3289918 116.4879499  48.7923940  68.6297017
 115.7470501  49.9402380  67.9774734 123.6817821  57.6356423  69.9277418
 123.2381675  56.8492802  69.6098323 124.3435035  57.8235574  69.2621309
 118.4404942  59.1652225  64.4538097 118.9912367  59.0369288  63.6815091
 117.6016418  59.4647114  64.1032990 125.7799059  57.9159223  67.9558820
 125.7617535  58.7368104  67.4639089 126.7018979  57.7913298  68.1808961
 122.2372113  55.4303353  68.7982328 122.7700450  54.6691641  68.5681636
 121.7086195  55.1377004  69.5406483 125.4041808  40.5363419  64.3275970
 125.0606078  41.4265060  64.2515080 125.7720771  40.3465076  63.4645555
 113.4727659  52.8596949  57.1464572 114.3102881  53.2693957  56.9298280
 113.6505927  51.9196391  57.1164766 125.3692091  50.5272030  52.8348405
 124.8538715  51.2976634  53.0736792 125.0969400  49.8537166  53.4581466
 122.9539202  45.3721731  57.8933643 122.0980798  44.9828581  57.7139282
 123.3666154  45.4513691  57.0333429 124.4838349  42.9068074  62.2925203
 123.9803144  42.8698209  61.4793008 124.7768956  43.8160816  62.3521860
 120.7281235  42.9906803  61.2991385 121.5934231  42.7949612  60.9397274
 120.7958744  42.7617155  62.2260742 130.3426365  53.2804384  54.7701578
 129.5655808  52.9415544  54.3256741 131.0217846  53.2857008  54.0956543
 125.1578394  48.3999122  54.6608186 124.8528530  48.7145271  55.5118329
 126.1108836  48.4780542  54.7035519 123.6024826  54.5589345  56.3101140
 123.0746188  53.8242105  55.9974378 123.1012329  55.3364021  56.0641108
 128.5817672  52.7538366  61.4268186 127.9241347  53.4437627  61.5148315
 129.3858071  53.1434798  61.7702173 118.3343554  45.2209011  58.6707752
 118.9087306  44.9984193  57.9380945 118.9214536  45.2897706  59.4236353
 127.3923131  51.1082738  59.4772128 127.9055013  51.7412730  59.9793838
 128.0424355  50.5083934  59.1115488 118.6613141  47.2513472  52.6903637
 117.8250453  47.5888159  53.0112912 118.5217910  47.1162452  51.7530774
 120.6366221  42.0950260  57.3982821 119.9830634  41.7799277  56.7739436
 120.5946696  41.4726001  58.1242644 121.7477426  52.3769555  49.3136113
 120.8404488  52.1458809  49.5127262 122.2448458  51.5807175  49.5010095
 124.6545505  61.0867063  52.2332799 123.9807204  61.3898759  52.8417757
 125.0411327  61.8896143  51.8838256 123.8703962  48.5832194  61.7230469
 122.9526523  48.8047141  61.5652157 124.2864105  48.6578504  60.8642176
 124.6539010  49.9823610  56.8533149 125.4010829  50.4945007  56.5440271
 124.9230599  49.6607662  57.7137543 122.9265660  52.4782150  53.8360103
 122.0176879  52.1941183  53.9332573 122.9560744  52.8981229  52.9763410
 128.1584927  56.0888740  57.6051271 127.7047254  55.2479650  57.6616461
 127.5278894  56.7250138  57.9426051 127.1017847  47.0180726  58.8351938
 126.3640604  46.5058112  59.1662181 127.3544620  46.5781107  58.0235215
 126.6017866  57.9265236  58.5401089 126.8940841  58.4870294  57.8213455
 127.1116487  58.2193797  59.2954248 127.2029474  39.7956978  59.4293708
 127.5088351  38.9354341  59.1419623 127.9282079  40.3874598  59.2292701
 113.4953830  50.1987664  57.8175305 113.2978230  49.6057025  57.0926372
 112.9400494  49.8939875  58.5351244 121.4750554  50.0910771  59.9369899
 121.5299164  49.1384607  59.8612375 120.6641756  50.2470210  60.4211197
 122.6241748  54.0190894  51.1748182 122.1861177  53.3026753  50.7153819
 123.3652188  54.2467009  50.6133273 119.4142914  48.7087831  57.6960277
 118.6010779  49.0082001  58.1025470 119.9101908  48.3143519  58.4134760
 121.5651492  58.7045588  59.6294542 121.5227670  58.9306434  58.7003074
 122.4814190  58.4708962  59.7780343 125.0117125  49.1729655  66.5275171
 125.3666513  49.4001128  67.3869637 125.6589257  49.5048032  65.9052427
 130.7414862  52.2948091  57.2324500 130.6032761  52.4849687  56.3045690
 130.3851081  53.0567474  57.6892552 118.9056988  46.2806186  63.3121512
 119.5456368  46.1394945  62.6144476 118.0734519  45.9940700  62.9360114
 130.7684242  54.3624618  62.2435772 131.2020749  54.2699907  63.0918826
 131.4815823  54.3382118  61.6055788 119.6817292  55.5808617  59.4256505
 120.4757891  55.0858937  59.2239080 118.9708985  55.0526480  59.0624210
 124.5012137  57.9626712  63.7768872 124.5549159  58.5317648  64.5446588
 123.6326918  58.1328597  63.4122910 115.9900056  49.7251698  55.5016258
 115.0597644  49.6636154  55.7186220 116.0857528  49.2027651  54.7052899
 115.9085605  46.2506511  58.0894499 116.1692422  47.1651844  57.9803660
 116.7302777  45.7830954  58.2391112 117.3810530  47.6644268  65.2593324
 118.0533584  47.4561630  64.6105973 116.5540317  47.4666354  64.8198556
 131.6299791  54.4048319  64.7768657 131.8235682  55.3094129  65.0227932
 131.5300410  53.9455738  65.6107242 123.2836102  44.2906209  67.2758985
 122.6364017  44.9896159  67.1823461 124.0537118  44.7242353  67.6435233
 126.6914900  54.5555061  70.3509538 126.5400407  54.3265613  69.4339622
 126.6819580  55.5125663  70.3640883 123.4600237  52.1286974  65.3355804
 124.3892297  52.2798134  65.1624772 123.0391267  52.2170995  64.4804451
 122.2588568  56.1537639  63.1054342 122.1199654  55.7856423  63.9780280
 121.4703165  56.6685278  62.9338300 122.8536720  61.2546735  54.4479878
 123.0288476  60.7834778  55.2625501 122.1669508  61.8812501  54.6761139
 123.8093783  55.5319241  60.4943180 123.4743616  55.4920011  61.3900830
 123.3097729  54.8663957  60.0213590 117.7838027  50.9386871  66.0195761
 117.6457825  50.2067110  66.6207300 118.6942951  50.8495771  65.7379949
 126.7452975  52.8775276  50.7680239 126.1282146  52.1522104  50.6713292
 126.2769464  53.6384636  50.4247314 120.4120328  50.6506831  65.5079441
 121.1219947  50.0100023  65.4666059 120.3689636  50.9019725  66.4305621
 128.4007107  57.5874184  68.4286020 128.3419653  56.9033404  67.7616603
 128.8026625  58.3293174  67.9766646 119.1249262  47.6372048  67.3275080
 118.5886619  47.1862787  67.9796676 118.5365971  47.7717957  66.5845544
 117.4197806  64.4036098  61.2219739 117.6594404  65.0354622  61.8998757
 116.5767002  64.0524138  61.5085098 118.5351521  47.0960700  49.8901544
 117.6580987  46.9749501  49.5263790 119.0109274  46.3046778  49.6380432
 128.4024514  55.5513768  66.6599999 127.5151293  55.2139690  66.7826398
 128.9723065  54.8196799  66.8968765 110.0553661  51.8837860  59.9843051
 110.7424701  51.5699590  59.3964066 109.9001790  52.7879224  59.7110302
 114.8588383  46.7728056  64.4128075 114.7746572  46.1653726  63.6778484
 114.0371090  47.2637074  64.4137571 121.9325667  60.2115220  63.6261243
 121.8595839  61.0170192  64.1380547 121.4903061  60.4107186  62.8009264
 121.7215447  59.4486990  57.1364064 120.9382969  59.9908670  57.2302289
 122.4208192  59.9660970  57.5358305 125.0312097  45.2581620  59.7798270
 125.5280797  44.5051582  59.4599340 124.2599079  45.2945936  59.2141479
 132.8841855  50.9621985  61.4216561 132.8731731  51.8446701  61.0510494
 132.0159234  50.6093536  61.2271098 124.3924351  60.1102054  65.7819401
 125.1052323  60.7449519  65.7095303 123.9014380  60.2065920  64.9659403
 126.1141878  54.0153307  57.3536693 125.1798157  54.1354769  57.1841397
 126.2918546  53.1125774  57.0896703 121.6147066  47.3999003  59.5069954
 121.2444853  46.8470043  60.1950860 122.1106158  46.7957136  58.9544954
 129.5014429  49.8570626  57.8886727 129.9674881  50.6898618  57.8147030
 129.9521930  49.3915608  58.5931986 119.4436265  57.8596498  66.6024972
 120.1445724  58.4932981  66.7554366 118.9731380  58.2011229  65.8420611
 127.5690660  56.2014448  54.8872879 127.8450504  56.0871042  55.7966753
 126.6995159  55.8031932  54.8485052 127.4731092  42.2251213  61.9277628
 126.5594172  42.4555440  62.0959835 127.9024193  42.3089657  62.7791661
 127.2437550  50.4141105  64.4277522 126.5909001  50.6617013  63.7729975
 127.6217930  49.6005243  64.0940000 124.2044724  60.4500798  58.5305693
 124.3867119  59.6322454  58.9933445 125.0277710  60.6668491  58.0930583
 124.5386890  59.3768983  55.7920741 125.0674656  58.8661438  55.1790903
 124.8015109  59.0611514  56.6566274 123.2925124  51.1560916  70.9143560
 122.6165761  51.0555046  71.5845935 124.1152757  51.0000130  71.3779557
 115.0403983  57.3932853  63.5356075 115.6257419  56.6476541  63.6683979
 114.8428821  57.7036809  64.4192739 117.8942638  60.4284100  58.5518517
 117.2253013  60.9130228  58.0682557 117.7555508  60.6753321  59.4661896
 109.6321637  49.9638453  62.2560518 109.6705737  49.4302044  63.0497636
 109.1261930  49.4373658  61.6371495 122.0347906  62.4627844  65.1501176
 122.5866214  62.6259465  65.9150261 122.3754100  63.0532281  64.4781200
 117.0112400  44.8102993  65.7523060 117.0753726  45.6717824  65.3400458
 116.9479520  44.1976995  65.0195419 116.4864672  46.8826126  69.3996095
 117.1136711  46.5003203  70.0133619 115.6292591  46.6640328  69.7651787
 126.8858781  57.2889101  71.0049830 127.4298685  57.9019059  70.5104785
 126.3045626  57.8468680  71.5216843 113.2630215  48.6902555  55.3314449
 113.5583656  47.7813234  55.2781503 112.3618251  48.6690295  55.0095452
 125.1716294  60.4109819  62.1364858 125.0467433  59.6099559  61.6275803
 125.8295385  60.9056013  61.6478828 116.7924462  46.7658552  61.3141998
 116.0711048  47.3794519  61.1749471 117.5817718  47.3016317  61.2358644
 127.2351202  58.2118839  63.7644408 126.2881538  58.0924190  63.6922735
 127.5833975  57.3241337  63.8470669 119.5950775  44.1012978  67.5882650
 120.1185177  44.3475275  68.3508959 119.3763109  44.9333013  67.1685787
 114.9918056  46.3716653  55.4553774 114.6630763  45.4914032  55.2728880
 115.3457427  46.3164321  56.3430164 124.2397635  58.0071556  59.9648760
 124.0922598  57.0788263  60.1456330 125.0651129  58.0291646  59.4805835
 118.1059880  46.6589623  55.8229252 118.4455952  47.1875544  55.1007861
 118.5532000  46.9970029  56.5987819 127.8431757  58.8300114  61.0513633
 128.7678305  58.6242976  60.9138084 127.6747061  58.5816515  61.9602974
 120.8003320  45.0426673  65.2732320 120.4600141  44.2434486  65.6753000
 120.0942327  45.3428384  64.7009153 121.4519792  42.1275986  63.7259643
 122.2745862  41.6536464  63.6038534 121.6957856  42.9066469  64.2258330
 120.0928027  45.1564244  54.0222545 120.8136389  45.5345497  53.5186262
 119.4693331  45.8753121  54.1257523 124.2359150  45.8609393  54.9580877
 124.4522764  46.7434031  54.6569705 123.7553217  45.4695607  54.2286519
 118.9758371  48.8195106  61.5351622 118.8302952  49.1335409  62.4275903
 118.4983575  49.4380007  60.9822520 120.8354754  45.8097654  61.5832511
 120.8216323  44.9138748  61.2464809 121.5527182  45.8168318  62.2170797
 122.6880885  46.2434995  63.6285639 122.4298662  47.1652065  63.6269969
 122.1565925  45.8465429  64.3186103 127.6327073  59.3485782  56.4075724
 127.8063951  58.7832204  55.6549577 128.1255965  60.1486677  56.2255214
 113.4504033  51.3600451  64.4739283 112.9057501  52.1360259  64.6059557
 114.3283383  51.7071255  64.3158404 120.2391650  44.6912035  56.8520082
 120.3607561  43.7628681  57.0510969 119.9493692  44.7050721  55.9398397
 123.1082840  42.3766945  59.9886801 123.1304537  42.4406278  59.0338781
 123.5250899  41.5371454  60.1827308 133.4866465  52.1122205  58.0266024
 133.9297611  51.3629530  57.6285147 132.6092975  52.1032341  57.6439756
 128.6202246  58.6652546  53.5072623 129.3153151  59.2859239  53.7259937
 128.9625396  57.8147897  53.7825000 114.2370055  50.4870347  67.3669440
 113.4951791  50.6352982  67.9534070 113.9162799  50.7478613  66.5036189
 130.5193669  56.1152252  55.0359953 131.0444993  56.4539524  54.3109273
 130.4316022  55.1799267  54.8523088 122.1813718  60.0286325  67.1649830
 122.4900844  59.7835472  68.0372529 122.9789200  60.2332964  66.6768700
 122.2034330  62.1824235  59.3955206 121.7639320  61.6900614  60.0888063
 122.9542447  61.6397203  59.1547282 114.6826669  58.3735776  59.3979835
 115.5084689  58.0739548  59.0178478 114.3320721  57.6043398  59.8469623
 119.6508202  57.7262244  61.4677508 119.0288211  57.0632949  61.1679736
 120.3213069  57.7523376  60.7851156 112.8835274  56.2922102  60.3568768
 112.0467182  55.8644277  60.1752769 112.8558919  56.4854546  61.2939559
 119.7232729  46.2044032  71.0610014 119.7720885  47.0806155  70.6787784
 120.2655244  45.6621425  70.4881657 130.2087575  56.7485155  70.3411151
 129.4183119  56.7309294  69.8015651 129.9720930  57.2873449  71.0960188
 130.3285450  53.5977622  67.6543880 130.3783455  53.4327629  68.5959403
 130.2199373  52.7304881  67.2641761 119.2121709  56.2766167  54.9435969
 119.3609829  56.9601632  54.2902641 120.0188152  56.2571257  55.4585424
 127.6189213  49.5808550  68.9703186 128.5199075  49.4415015  68.6787184
 127.6937187  49.7463004  69.9101364 121.9532018  46.9575404  67.8156373
 121.0835327  47.2508970  67.5438961 122.1891498  47.5415849  68.5363636
 131.8303647  56.0174563  67.8985901 131.5388455  56.3804544  68.7349362
 131.2175778  55.3041571  67.7199233 133.0299329  53.5827443  60.4188472
 133.8646221  54.0217247  60.5826032 133.1658458  53.1066096  59.5996717
 130.0790835  51.1407178  66.3665959 130.5544957  51.3334824  65.5584811
 129.1556401  51.1966364  66.1209343 116.9674342  52.3031345  55.9497038
 116.7220384  51.3993675  56.1477248 117.1370256  52.3048495  55.0076516
 124.6571052  43.1755021  65.3321793 125.1752996  43.9116048  65.0068282
 124.3026184  43.4819015  66.1668552 116.2369989  48.0359703  53.4483199
 115.5439234  48.1104058  52.7923235 115.9921741  47.2720046  53.9704716
 124.9083646  39.5955304  60.8522690 125.1885400  38.9278493  61.4783116
 125.6934253  39.7884399  60.3397354 122.7117114  58.7714298  52.4147716
 122.1391081  59.3904485  51.9618188 123.2849908  59.3213659  52.9487638
 128.7792504  48.0172938  64.5994265 129.7309927  48.1171036  64.6206489
 128.6095955  47.2251206  65.1092349 126.8006884  45.1028521  64.7853666
 126.2056816  45.3833534  64.0900154 126.5156580  45.5922422  65.5570407
 125.9314374  59.0551448  53.5456298 126.8645047  58.9897010  53.7489174
 125.8437587  59.8907715  53.0870831 128.5602391  58.3717318  50.5060246
 128.4816022  58.0377182  51.3996004 129.3812058  58.8639086  50.5051718
 131.2580582  51.2379058  63.7136565 131.2256902  50.2995058  63.8996248
 131.8681206  51.3163094  62.9802389 123.0963913  50.1075111  49.7563769
 124.0423018  49.9781319  49.8252187 122.7178158  49.3689772  50.2333197
 131.4075070  48.0290101  63.7594848 130.8914119  47.2448558  63.5724777
 132.2915019  47.7008818  63.9241367 129.0685797  41.7731117  59.7190660
 128.8710619  41.4646205  60.6033992 129.6785503  42.4992755  59.8488590
 137.0757132  52.2995064  62.8542601 137.8060520  52.0380353  63.4150305
 136.4664077  51.5623786  62.8944669 135.1572429  50.4402927  63.4517053
 134.4305593  50.3058892  62.8433544 134.7419716  50.7479756  64.2573771
 122.9802605  54.1592857  71.2164426 123.9005615  54.3371456  71.4104472
 122.9452188  53.2148902  71.0644125 121.2806830  48.0325087  49.6918654
 120.3738285  47.7358200  49.7681367 121.5582811  47.7354905  48.8252940
 112.1984770  49.3531450  60.1417700 111.8787555  48.4996759  59.8492074
 111.6518199  49.5680028  60.8975668 115.9764678  52.0693891  63.8587207
 116.1950688  53.0010999  63.8775241 116.3890452  51.7101866  64.6442011
 122.8968896  42.5761977  55.8462895 122.0869624  42.2309062  56.2218141
 123.5853313  42.2669520  56.4350507 124.8259444  41.6540023  57.4687192
 125.3790483  42.0735477  58.1277215 125.0629530  40.7275772  57.5110148
 120.8492543  47.6427097  73.2489956 120.7489270  48.5921454  73.1802047
 120.6314085  47.3145336  72.3766026 120.0505615  44.8912022  49.8330633
 120.9124779  45.2166920  50.0926450 120.2355959  44.1043518  49.3203699
 112.0673030  52.9734362  62.1110822 111.3736502  52.5588315  61.5980776
 112.8146021  53.0154898  61.5144241 128.2038251  43.7640549  56.9765856
 127.6236920  44.4225353  56.5943908 127.9374184  42.9417893  56.5653274
 126.6541817  43.1645606  59.1787176 127.1541596  43.2762141  58.3701495
 127.2977425  42.8606659  59.8187985 120.7123813  51.0724236  72.0655017
 120.2290895  51.8724596  72.2718906 120.7984752  51.0832181  71.1122461
 113.9809773  52.9052616  59.9876837 113.9580461  53.0040303  59.0358720
 114.2910409  53.7517766  60.3094003 116.6397151  54.9628771  64.1023451
 117.5940404  54.9312713  64.0353383 116.4409674  54.5019394  64.9173677
 117.2296533  53.5329887  66.6694249 118.0489422  54.0273965  66.6929086
 117.5033341  52.6161855  66.6411816 126.9863129  45.9240639  56.0322204
 126.0988984  46.2090290  55.8142399 127.4017118  45.7634402  55.1849481
 130.3377665  45.9487160  59.7476544 131.1138055  46.4383612  60.0201160
 129.6125799  46.3745214  60.2048413 132.7750224  46.6614779  60.8050484
 133.3694715  46.4210515  60.0943792 132.8476808  45.9421910  61.4324020
 114.9947380  60.5048390  61.1193649 114.8601848  59.7448791  60.5531647
 114.5779442  61.2289290  60.6522438 126.1306343  55.6885314  50.1270224
 126.8342193  55.8935316  50.7427880 125.4068991  56.2562076  50.3919308
 126.9604153  51.4395175  56.2472494 126.9039354  51.8963726  55.4080127
 127.5132495  50.6785860  56.0695337 130.7708959  47.2284907  57.0722614
 130.5145893  46.8281542  57.9030822 130.1461827  47.9428701  56.9472753
 135.0821297  49.9680980  59.5793905 134.5220855  50.0374169  60.3525467
 134.4764800  49.7921965  58.8593402 118.1516505  61.4017707  61.3312092
 118.0348890  62.3463140  61.2290782 117.3308952  61.0991269  61.7197891
 128.0393040  56.1267843  52.1768684 128.8738644  55.6949041  51.9946159
 127.8777383  55.9549857  53.1045579 127.6938932  52.6299956  53.5425024
 127.6387736  52.4644228  52.6013468 127.0684987  53.3375989  53.6987213
 112.4831447  47.8668021  67.3686446 113.1290311  47.3566975  67.8573671
 112.2748598  48.6036702  67.9429871 125.0084839  54.9348868  72.8678586
 125.8775999  55.1089520  72.5065221 124.5291591  55.7543285  72.7454316
 121.0035058  42.1308065  53.1210342 120.9913727  43.0749905  53.2778613
 121.8958480  41.9478211  52.8269803 119.1771020  62.0545969  64.5468020
 120.0798266  62.0869579  64.8634515 118.9508390  61.1246420  64.5614356
 120.9324622  60.8076956  61.2078099 119.9820253  60.8078817  61.0942471
 121.2357108  60.0609690  60.6914133 124.8187177  38.7250842  57.3756279
 124.0519573  38.1709328  57.5212961 125.2297882  38.7972711  58.2370430
 116.8228938  45.0135638  71.4661460 117.6860400  44.6572442  71.6764785
 116.2494349  44.6749532  72.1536864 136.6677315  66.6437494  62.2723861
 137.3055725  66.5244241  61.5687201 136.5498158  67.5918338  62.3311813
 133.4767021  66.5964922  62.2085386 133.1385533  66.4805987  61.3205921
 134.3456790  66.1956087  62.1886392 129.3353837  68.4500398  58.1982277
 128.7718702  68.3590335  57.4298564 129.2206232  67.6300303  58.6784769
 133.9586804  67.7499774  68.1671591 133.9475445  67.3552572  67.2952095
 134.1207444  67.0165846  68.7605363 134.9153396  72.1171366  53.5096742
 134.2641376  72.7025447  53.1230755 135.7097759  72.6477561  53.5691779
 130.6794065  70.5336886  67.1150775 130.3883931  71.4382516  66.9997442
 131.3151050  70.5753413  67.8294845 131.6050272  67.9113734  63.7052135
 132.2013845  67.6869757  62.9909098 131.6625244  67.1698480  64.3077583
 131.1775301  65.3653169  51.5402326 131.4300821  64.8434691  50.7785789
 130.2399860  65.2019315  51.6429009 136.2218584  64.3688948  59.3477069
 137.0081673  63.9508371  58.9967486 136.4857288  65.2735040  59.5158717
 136.3928661  69.8061798  54.0465726 135.7574494  69.8796425  54.7586631
 136.0626067  70.3955397  53.3684805 141.6227011  64.3064181  60.2510048
 142.3552183  63.7363398  60.4847877 140.8666366  63.9185781  60.6916553
 133.2403130  66.7291423  57.4473390 132.8761338  66.2022043  58.1586312
 134.0970246  66.3389892  57.2739875 139.1452431  58.0185755  64.7104656
 138.8135756  58.8881166  64.4865871 138.5498044  57.7022039  65.3898687
 132.8808617  61.7581322  52.4434739 133.0483020  62.6261559  52.8105210
 132.6905786  61.9208604  51.5196028 135.6383951  70.2198301  64.1100569
 135.3384674  71.1223340  64.0016376 135.2935010  69.9530484  64.9621722
 129.0896432  66.6712098  60.1437273 128.1646929  66.5388312  60.3514965
 129.3380845  67.4506317  60.6407216 139.0381094  62.7380841  61.7898006
 138.1297972  62.6696250  61.4956767 138.9868690  63.2152786  62.6179832
 132.8597838  64.2138980  53.4281405 132.7397463  64.6596030  54.2666886
 132.1650427  64.5624297  52.8694944 133.1121960  64.1570487  69.7332904
 132.3355294  64.7164407  69.7235768 133.7512523  64.6427270  70.2547774
 140.9042741  60.9397280  63.5675880 140.2617121  61.2329813  62.9215675
 140.3997669  60.8250200  64.3729077 138.5582904  64.6860453  54.2561739
 139.4700761  64.9187840  54.0809437 138.0492552  65.2697497  53.6936818
 131.3668332  66.9655940  69.2950871 132.1083017  67.5040984  69.0185694
 130.6605318  67.5922229  69.4522422 136.8423672  69.1085081  67.8923032
 137.2507028  68.6667491  67.1477664 136.1200934  68.5337708  68.1457225
 133.1954742  64.0457687  65.2656589 134.0415937  64.4697101  65.4091238
 133.1353380  63.3891312  65.9595152 137.1652487  69.6686271  61.6475321
 136.5361349  69.8331985  60.9451389 136.7778149  70.0827881  62.4186285
 141.0441719  70.6040709  59.0019685 140.3592757  70.9839611  58.4516718
 141.1285568  71.2136036  59.7351632 136.3454187  61.7062056  66.9237763
 136.1015119  62.4604116  66.3872038 136.6214118  62.0847403  67.7585010
 138.2992650  68.2500668  65.6015028 138.5109545  68.8932428  64.9249409
 138.2522398  67.4162985  65.1336958 135.9018879  60.8618489  62.5051600
 135.0403358  61.1599742  62.7968338 135.9281314  61.0788888  61.5732633
 132.7180449  69.4060679  58.9125406 133.1818794  69.6848382  58.1230029
 132.4537247  68.5044124  58.7298497 129.6104530  68.9532161  61.8505169
 130.1805887  69.3819429  61.2122654 130.2012642  68.6714746  62.5489355
 131.6549335  65.5283832  55.7214971 132.3573378  65.9804875  56.1888898
 131.3229963  64.8867651  56.3494864 130.1029696  64.1195588  70.0966181
 129.4728357  64.8011869  70.3301577 129.9965784  64.0078670  69.1519319
 125.3974669  63.7867384  61.0232105 124.6073723  64.0424913  60.5472215
 125.8885916  64.6015722  61.1284145 139.4138478  71.1272624  63.7737386
 140.2355922  70.7252811  63.4920067 139.4100881  71.0240858  64.7253501
 127.3489414  64.1511964  57.9815581 126.5520577  64.2630658  58.4999077
 127.1215006  64.4898616  57.1156472 133.1795082  70.6756667  65.9298096
 133.2439514  71.1377074  66.7656268 132.4706006  70.0454032  66.0580406
 123.6812372  64.0397875  63.4547096 123.9320410  64.9244885  63.7204671
 124.2171920  63.8602476  62.6822187 147.5044471  67.4711372  60.1222357
 146.7508180  66.9018770  59.9666361 147.6392012  67.4374037  61.0692992
 132.8943099  72.3424774  55.7977076 132.7588774  73.1876310  56.2261924
 133.4352912  72.5444052  55.0343010 129.3810439  58.4216354  72.4591432
 128.9877384  57.8682553  73.1339076 130.1976579  58.7326933  72.8497949
 132.2978400  59.8374233  70.0511688 133.0388113  60.4381386  69.9716151
 132.5296323  59.0951871  69.4929731 127.4419738  65.0230601  68.3289918
 127.3273253  64.1215858  68.6297017 126.5864256  65.2694297  67.9774734
 134.5211576  72.9648341  69.9277418 134.0775430  72.1784719  69.6098323
 135.1828789  73.1527491  69.2621309 136.6192814  73.2451141  67.9558820
 136.6011289  74.0660022  67.4639089 137.5412734  73.1205216  68.1808961
 133.0765868  70.7595270  68.7982328 133.6094205  69.9983559  68.5681636
 132.5479949  70.4668922  69.5406483 136.2435563  55.8655336  64.3275970
 135.8999832  56.7556978  64.2515080 136.6114525  55.6756994  63.4645555
 136.2085846  65.8563947  52.8348405 135.6932469  66.6268552  53.0736792
 135.9363154  65.1829084  53.4581466 133.7932957  60.7013648  57.8933643
 132.9374553  60.3120499  57.7139282 134.2059908  60.7805609  57.0333429
 135.3232103  58.2359991  62.2925203 134.8196899  58.1990127  61.4793008
 135.6162710  59.1452734  62.3521860 131.5674989  58.3198721  61.2991385
 132.4327986  58.1241530  60.9397274 131.6352498  58.0909073  62.2260742
 141.1820120  68.6096302  54.7701578 140.4049562  68.2707462  54.3256741
 141.8611601  68.6148925  54.0956543 135.9972149  63.7291039  54.6608186
 135.6922284  64.0437189  55.5118329 136.9502591  63.8072459  54.7035519
 134.4418581  69.8881263  56.3101140 133.9139942  69.1534022  55.9974378
 133.9406083  70.6655939  56.0641108 139.4211427  68.0830283  61.4268186
 138.7635101  68.7729545  61.5148315 140.2251826  68.4726715  61.7702173
 129.1737308  60.5500929  58.6707752 129.7481060  60.3276111  57.9380945
 129.7608291  60.6189624  59.4236353 138.2316885  66.4374656  59.4772128
 138.7448767  67.0704648  59.9793838 138.8818109  65.8375851  59.1115488
 129.5006895  62.5805390  52.6903637 128.6644208  62.9180077  53.0112912
 129.3611665  62.4454370  51.7530774 131.4759976  57.4242178  57.3982821
 130.8224388  57.1091195  56.7739436 131.4340450  56.8017918  58.1242644
 132.5871181  67.7061473  49.3136113 131.6798243  67.4750727  49.5127262
 133.0842213  66.9099092  49.5010095 135.4939260  76.4158980  52.2332799
 134.8200958  76.7190677  52.8417757 135.8805082  77.2188061  51.8838256
 134.7097716  63.9124112  61.7230469 133.7920278  64.1339059  61.5652157
 135.1257860  63.9870422  60.8642176 135.4932764  65.3115527  56.8533149
 136.2404583  65.8236924  56.5440271 135.7624354  64.9899580  57.7137543
 133.7659414  67.8074068  53.8360103 132.8570633  67.5233101  53.9332573
 133.7954498  68.2273147  52.9763410 138.9978682  71.4180657  57.6051271
 138.5441009  70.5771567  57.6616461 138.3672648  72.0542056  57.9426051
 137.9411601  62.3472643  58.8351938 137.2034358  61.8350030  59.1662181
 138.1938375  61.9073025  58.0235215 137.4411621  73.2557154  58.5401089
 137.7334595  73.8162211  57.8213455 137.9510241  73.5485715  59.2954248
 138.0423229  55.1248895  59.4293708 138.3482105  54.2646259  59.1419623
 138.7675833  55.7166516  59.2292701 132.3144308  65.4202689  59.9369899
 132.3692918  64.4676525  59.8612375 131.5035510  65.5762128  60.4211197
 133.4635502  69.3482812  51.1748182 133.0254932  68.6318671  50.7153819
 134.2045943  69.5758926  50.6133273 130.2536668  64.0379748  57.6960277
 129.4404534  64.3373919  58.1025470 130.7495662  63.6435437  58.4134760
 135.8510880  64.5021573  66.5275171 136.2060268  64.7293046  67.3869637
 136.4983011  64.8339950  65.9052427 141.5808617  67.6240009  57.2324500
 141.4426515  67.8141605  56.3045690 141.2244836  68.3859391  57.6892552
 129.7450743  61.6098104  63.3121512 130.3850122  61.4686863  62.6144476
 128.9128273  61.3232617  62.9360114 141.6077996  69.6916536  62.2435772
 142.0414503  69.5991825  63.0918826 142.3209577  69.6674036  61.6055788
 135.3405891  73.2918630  63.7768872 135.3942914  73.8609566  64.5446588
 134.4720673  73.4620515  63.4122910 126.7479359  61.5798429  58.0894499
 127.0086177  62.4943762  57.9803660 127.5696532  61.1122871  58.2391112
 128.2204285  62.9936186  65.2593324 128.8927338  62.7853548  64.6105973
 127.3934071  62.7958272  64.8198556 142.4693546  69.7340236  64.7768657
 142.6629436  70.6386047  65.0227932 142.3694164  69.2747655  65.6107242
 134.1229857  59.6198127  67.2758985 133.4757772  60.3188077  67.1823461
 134.8930872  60.0534271  67.6435233 137.5308655  69.8846979  70.3509538
 137.3794161  69.6557531  69.4339622 137.5213334  70.8417580  70.3640883
 134.2993991  67.4578892  65.3355804 135.2286051  67.6090051  65.1624772
 133.8785021  67.5462913  64.4804451 133.0982323  71.4829556  63.1054342
 132.9593409  71.1148341  63.9780280 132.3096919  71.9977196  62.9338300
 133.6930475  76.5838653  54.4479878 133.8682230  76.1126696  55.2625501
 133.0063263  77.2104419  54.6761139 134.6487538  70.8611159  60.4943180
 134.3137371  70.8211929  61.3900830 134.1491484  70.1955875  60.0213590
 128.6231782  66.2678789  66.0195761 128.4851580  65.5359028  66.6207300
 129.5336705  66.1787689  65.7379949 137.5846730  68.2067193  50.7680239
 136.9675900  67.4814021  50.6713292 137.1163218  68.9676554  50.4247314
 131.2514083  65.9798748  65.5079441 131.9613701  65.3391940  65.4666059
 131.2083391  66.2311643  66.4305621 139.2400861  72.9166102  68.4286020
 139.1813407  72.2325322  67.7616603 139.6420380  73.6585092  67.9766646
 129.9643017  62.9663966  67.3275080 129.4280374  62.5154705  67.9796676
 129.3759725  63.1009875  66.5845544 129.3745276  62.4252618  49.8901544
 128.4974742  62.3041418  49.5263790 129.8503029  61.6338696  49.6380432
 139.2418269  70.8805686  66.6599999 138.3545047  70.5431607  66.7826398
 139.8116820  70.1488717  66.8968765 125.6982138  62.1019974  64.4128075
 125.6140327  61.4945643  63.6778484 124.8764844  62.5928992  64.4137571
 132.7719422  75.5407138  63.6261243 132.6989593  76.3462109  64.1380547
 132.3296815  75.7399104  62.8009264 132.5609202  74.7778908  57.1364064
 131.7776723  75.3200588  57.2302289 133.2601947  75.2952888  57.5358305
 135.8705852  60.5873537  59.7798270 136.3674551  59.8343500  59.4599340
 135.0992833  60.6237854  59.2141479 143.7235609  66.2913903  61.4216561
 143.7125485  67.1738618  61.0510494 142.8552989  65.9385454  61.2271098
 135.2318105  75.4393972  65.7819401 135.9446078  76.0741437  65.7095303
 134.7408134  75.5357838  64.9659403 136.9535632  69.3445225  57.3536693
 136.0191911  69.4646687  57.1841397 137.1312301  68.4417691  57.0896703
 132.4540820  62.7290920  59.5069954 132.0838608  62.1761961  60.1950860
 132.9499913  62.1249054  58.9544954 140.3408184  65.1862544  57.8886727
 140.8068636  66.0190535  57.8147030 140.7915684  64.7207525  58.5931986
 138.4084415  71.5306365  54.8872879 138.6844259  71.4162960  55.7966753
 137.5388914  71.1323850  54.8485052 138.3124846  57.5543131  61.9277628
 137.3987926  57.7847358  62.0959835 138.7417948  57.6381575  62.7791661
 138.0831305  65.7433023  64.4277522 137.4302755  65.9908930  63.7729975
 138.4611685  64.9297161  64.0940000 135.0438479  75.7792716  58.5305693
 135.2260873  74.9614372  58.9933445 135.8671465  75.9960408  58.0930583
 135.3780644  74.7060901  55.7920741 135.9068411  74.1953356  55.1790903
 135.6408864  74.3903431  56.6566274 134.1318878  66.4852834  70.9143560
 133.4559515  66.3846963  71.5845935 134.9546512  66.3292048  71.3779557
 120.4715392  65.2930371  62.2560518 120.5099491  64.7593961  63.0497636
 119.9655685  64.7665576  61.6371495 132.8741661  77.7919761  65.1501176
 133.4259969  77.9551383  65.9150261 133.2147854  78.3824199  64.4781200
 127.8506154  60.1394911  65.7523060 127.9147481  61.0009742  65.3400458
 127.7873274  59.5268913  65.0195419 127.3258427  62.2118044  69.3996095
 127.9530465  61.8295121  70.0133619 126.4686345  61.9932246  69.7651787
 137.7252535  72.6181019  71.0049830 138.2692439  73.2310977  70.5104785
 137.1439380  73.1760597  71.5216843 136.0110048  75.7401737  62.1364858
 135.8861188  74.9391477  61.6275803 136.6689139  76.2347930  61.6478828
 127.6318216  62.0950469  61.3141998 126.9104802  62.7086437  61.1749471
 128.4211472  62.6308234  61.2358644 138.0744957  73.5410757  63.7644408
 137.1275292  73.4216108  63.6922735 138.4227730  72.6533255  63.8470669
 130.4344530  59.4304896  67.5882650 130.9578932  59.6767192  68.3508959
 130.2156863  60.2624931  67.1685787 125.8311811  61.7008570  55.4553774
 125.5024517  60.8205949  55.2728880 126.1851182  61.6456239  56.3430164
 135.0791390  73.3363473  59.9648760 134.9316352  72.4080181  60.1456330
 135.9044883  73.3583564  59.4805835 128.9453634  61.9881540  55.8229252
 129.2849707  62.5167462  55.1007861 129.3925755  62.3261946  56.5987819
 138.6825512  74.1592032  61.0513633 139.6072059  73.9534893  60.9138084
 138.5140815  73.9108433  61.9602974 131.6397075  60.3718591  65.2732320
 131.2993895  59.5726404  65.6753000 130.9336081  60.6720302  64.7009153
 132.2913547  57.4567903  63.7259643 133.1139616  56.9828382  63.6038534
 132.5351610  58.2358387  64.2258330 130.9321781  60.4856162  54.0222545
 131.6530144  60.8637415  53.5186262 130.3087085  61.2045039  54.1257523
 135.0752904  61.1901311  54.9580877 135.2916519  62.0725949  54.6569705
 134.5946971  60.7987524  54.2286519 129.8152126  64.1487024  61.5351622
 129.6696706  64.4627327  62.4275903 129.3377329  64.7671924  60.9822520
 131.6748508  61.1389572  61.5832511 131.6610077  60.2430665  61.2464809
 132.3920937  61.1460236  62.2170797 133.5274639  61.5726912  63.6285639
 133.2692417  62.4943983  63.6269969 132.9959680  61.1757347  64.3186103
 138.4720828  74.6777699  56.4075724 138.6457705  74.1124122  55.6549577
 138.9649719  75.4778594  56.2255214 124.2897788  66.6892368  64.4739283
 123.7451256  67.4652176  64.6059557 125.1677138  67.0363173  64.3158404
 131.0785404  60.0203952  56.8520082 131.2001316  59.0920598  57.0510969
 130.7887447  60.0342638  55.9398397 133.9476595  57.7058863  59.9886801
 133.9698292  57.7698196  59.0338781 134.3644654  56.8663371  60.1827308
 144.3260219  67.4414122  58.0266024 144.7691365  66.6921448  57.6285147
 143.4486729  67.4324259  57.6439756 139.4596000  73.9944464  53.5072623
 140.1546905  74.6151156  53.7259937 139.8019151  73.1439815  53.7825000
 125.0763810  65.8162265  67.3669440 124.3345546  65.9644900  67.9534070
 124.7556554  66.0770530  66.5036189 141.3587424  71.4444169  55.0359953
 141.8838748  71.7831442  54.3109273 141.2709776  70.5091185  54.8523088
 130.5626484  61.5335950  71.0610014 130.6114639  62.4098072  70.6787784
 131.1048998  60.9913343  70.4881657 141.0481330  72.0777073  70.3411151
 140.2576873  72.0601212  69.8015651 140.8114684  72.6165367  71.0960188
 141.1679205  68.9269539  67.6543880 141.2177210  68.7619547  68.5959403
 141.0593128  68.0596798  67.2641761 138.4582967  64.9100467  68.9703186
 139.3592830  64.7706932  68.6787184 138.5330942  65.0754922  69.9101364
 132.7925772  62.2867322  67.8156373 131.9229082  62.5800888  67.5438961
 133.0285253  62.8707767  68.5363636 142.6697401  71.3466481  67.8985901
 142.3782210  71.7096461  68.7349362 142.0569533  70.6333489  67.7199233
 143.8693084  68.9119361  60.4188472 144.7039975  69.3509165  60.5826032
 144.0052213  68.4358014  59.5996717 140.9184590  66.4699095  66.3665959
 141.3938711  66.6626742  65.5584811 139.9950155  66.5258281  66.1209343
 135.4964806  58.5046939  65.3321793 136.0146750  59.2407966  65.0068282
 135.1419939  58.8110932  66.1668552 135.7477400  54.9247222  60.8522690
 136.0279154  54.2570411  61.4783116 136.5328007  55.1176317  60.3397354
 133.5510869  74.1006215  52.4147716 132.9784836  74.7196403  51.9618188
 134.1243663  74.6505577  52.9487638 139.6186259  63.3464856  64.5994265
 140.5703682  63.4462953  64.6206489 139.4489709  62.5543124  65.1092349
 137.6400638  60.4320439  64.7853666 137.0450570  60.7125451  64.0900154
 137.3550335  60.9214340  65.5570407 136.7708129  74.3843366  53.5456298
 137.7038802  74.3188927  53.7489174 136.6831341  75.2199632  53.0870831
 139.3996145  73.7009236  50.5060246 139.3209777  73.3669100  51.3996004
 140.2205812  74.1931004  50.5051718 142.0974336  66.5670975  63.7136565
 142.0650657  65.6286976  63.8996248 142.7074960  66.6455012  62.9802389
 133.9357667  65.4367028  49.7563769 134.8816772  65.3073236  49.8252187
 133.5571912  64.6981690  50.2333197 142.2468825  63.3582019  63.7594848
 141.7307874  62.5740475  63.5724777 143.1308773  63.0300735  63.9241367
 139.9079552  57.1023034  59.7190660 139.7104373  56.7938122  60.6033992
 140.5179257  57.8284673  59.8488590 145.9966183  65.7694845  63.4517053
 145.2699347  65.6350810  62.8433544 145.5813470  66.0771673  64.2573771
 133.8196360  69.4884774  71.2164426 134.7399369  69.6663373  71.4104472
 133.7845943  68.5440820  71.0644125 132.1200584  63.3617005  49.6918654
 131.2132040  63.0650117  49.7681367 132.3976565  63.0646823  48.8252940
 123.0378525  64.6823368  60.1417700 122.7181309  63.8288676  59.8492074
 122.4911953  64.8971946  60.8975668 126.8158432  67.3985809  63.8587207
 127.0344442  68.3302917  63.8775241 127.2284206  67.0393783  64.6442011
 133.7362650  57.9053894  55.8462895 132.9263379  57.5600979  56.2218141
 134.4247067  57.5961438  56.4350507 135.6653198  56.9831941  57.4687192
 136.2184237  57.4027395  58.1277215 135.9023285  56.0567689  57.5110148
 131.6886298  62.9719015  73.2489956 131.5883025  63.9213372  73.1802047
 131.4707840  62.6437254  72.3766026 130.8899369  60.2203940  49.8330633
 131.7518533  60.5458838  50.0926450 131.0749713  59.4335436  49.3203699
 139.0432006  59.0932466  56.9765856 138.4630675  59.7517270  56.5943908
 138.7767938  58.2709811  56.5653274 137.4935572  58.4937524  59.1787176
 137.9935350  58.6054059  58.3701495 138.1371180  58.1898577  59.8187985
 131.5517568  66.4016154  72.0655017 131.0684649  67.2016514  72.2718906
 131.6378507  66.4124098  71.1122461 128.0690287  68.8621804  66.6694249
 128.8883176  69.3565883  66.6929086 128.3427095  67.9453772  66.6411816
 137.8256884  61.2532557  56.0322204 136.9382739  61.5382207  55.8142399
 138.2410873  61.0926320  55.1849481 141.1771420  61.2779078  59.7476544
 141.9531810  61.7675530  60.0201160 140.4519554  61.7037132  60.2048413
 143.6143978  61.9906697  60.8050484 144.2088469  61.7502433  60.0943792
 143.6870562  61.2713827  61.4324020 136.9700097  71.0177231  50.1270224
 137.6735947  71.2227234  50.7427880 136.2462746  71.5853993  50.3919308
 137.7997907  66.7687093  56.2472494 137.7433109  67.2255644  55.4080127
 138.3526250  66.0077777  56.0695337 141.6102713  62.5576824  57.0722614
 141.3539647  62.1573460  57.9030822 140.9855581  63.2720618  56.9472753
 145.9215051  65.2972898  59.5793905 145.3614609  65.3666087  60.3525467
 145.3158554  65.1213882  58.8593402 138.8786794  71.4559761  52.1768684
 139.7132398  71.0240959  51.9946159 138.7171137  71.2841774  53.1045579
 138.5332687  67.9591874  53.5425024 138.4781490  67.7936145  52.6013468
 137.9078742  68.6667907  53.6987213 123.3225202  63.1959938  67.3686446
 123.9684065  62.6858892  67.8573671 123.1142353  63.9328620  67.9429871
 135.8478594  70.2640786  72.8678586 136.7169753  70.4381438  72.5065221
 135.3685345  71.0835203  72.7454316 131.8428812  57.4599983  53.1210342
 131.8307482  58.4041823  53.2778613 132.7352234  57.2770128  52.8269803
 135.6580932  54.0542759  57.3756279 134.8913327  53.5001246  57.5212961
 136.0691637  54.1264628  58.2370430 127.6622693  60.3427555  71.4661460
 128.5254154  59.9864360  71.6764785 127.0888103  60.0041450  72.1536864
 144.3160776  81.9256840  62.2085386 143.9779287  81.8097904  61.3205921
 145.1850544  81.5248005  62.1886392 140.1747592  83.7792316  58.1982277
 139.6112457  83.6882253  57.4298564 140.0599987  82.9592221  58.6784769
 144.7980559  83.0791691  68.1671591 144.7869200  82.6844490  67.2952095
 144.9601198  82.3457764  68.7605363 137.7212023  85.2743508  61.0366497
 138.5133315  84.9334332  60.6212796 137.9608674  85.3838483  61.9568650
 145.7547150  87.4463284  53.5096742 145.1035130  88.0317364  53.1230755
 146.5491513  87.9769479  53.5691779 139.6802777  84.5352421  53.9083876
 140.4533653  83.9881408  53.7696752 140.0328176  85.3996670  54.1198337
 141.5187820  85.8628803  67.1150775 141.2277686  86.7674434  66.9997442
 142.1544804  85.9045331  67.8294845 142.4444027  83.2405652  63.7052135
 143.0407599  83.0161674  62.9909098 142.5018998  82.4990397  64.3077583
 142.0169055  80.6945087  51.5402326 142.2694576  80.1726608  50.7785789
 141.0793614  80.5311233  51.6429009 147.0612338  79.6980865  59.3477069
 147.8475427  79.2800289  58.9967486 147.3251042  80.6026958  59.5158717
 147.2322415  85.1353716  54.0465726 146.5968248  85.2088342  54.7586631
 146.9019822  85.7247315  53.3684805 141.7365344  82.5973193  53.7426701
 141.6201602  81.9218096  54.4107785 141.8467604  82.1105567  52.9258854
 144.0796885  82.0583340  57.4473390 143.7155092  81.5313961  58.1586312
 144.9364001  81.6681809  57.2739875 143.7202372  77.0873240  52.4434739
 143.8876774  77.9553476  52.8105210 143.5299541  77.2500522  51.5196028
 146.4777705  85.5490219  64.1100569 146.1778428  86.4515258  64.0016376
 146.1328765  85.2822402  64.9621722 139.9290187  82.0004016  60.1437273
 139.0040683  81.8680230  60.3514965 140.1774600  82.7798235  60.6407216
 143.6991593  79.5430897  53.4281405 143.5791218  79.9887948  54.2666886
 143.0044181  79.8916215  52.8694944 137.2898998  81.6437289  60.9781062
 137.4191379  81.8971768  61.8920474 136.6096449  82.2364997  60.6585718
 141.4598485  92.3134539  57.0771537 141.3822515  93.2642364  57.1560017
 140.8560128  91.9680412  57.7346463 143.9515715  79.4862405  69.7332904
 143.1749049  80.0456325  69.7235768 144.5906278  79.9719188  70.2547774
 142.2062087  82.2947858  69.2950871 142.9476771  82.8332902  69.0185694
 141.4999072  82.9214147  69.4522422 144.0348497  79.3749605  65.2656589
 144.8809692  79.7989019  65.4091238 143.9747134  78.7183229  65.9595152
 147.1847942  77.0353974  66.9237763 146.9408874  77.7896034  66.3872038
 147.4607872  77.4139321  67.7585010 146.7412634  76.1910407  62.5051600
 145.8797113  76.4891660  62.7968338 146.7675068  76.4080805  61.5732633
 143.5574203  84.7352597  58.9125406 144.0212549  85.0140300  58.1230029
 143.2931001  83.8336042  58.7298497 140.4498284  84.2824079  61.8505169
 141.0199641  84.7111347  61.2122654 141.0406396  84.0006663  62.5489355
 142.4943089  80.8575749  55.7214971 143.1967133  81.3096793  56.1888898
 142.1623718  80.2159568  56.3494864 140.9423451  79.4487506  70.0966181
 140.3122111  80.1303787  70.3301577 140.8359539  79.3370588  69.1519319
 136.2368423  79.1159302  61.0232105 135.4467477  79.3716831  60.5472215
 136.7279670  79.9307640  61.1284145 138.1883169  79.4803881  57.9815581
 137.3914332  79.5922576  58.4999077 137.9608761  79.8190534  57.1156472
 144.0188836  86.0048585  65.9298096 144.0833269  86.4668992  66.7656268
 143.3099760  85.3745950  66.0580406 134.5206126  79.3689793  63.4547096
 134.7714165  80.2536802  63.7204671 135.0565675  79.1894394  62.6822187
 143.7336854  87.6716692  55.7977076 143.5982529  88.5168228  56.2261924
 144.2746666  87.8735970  55.0343010 140.2204193  73.7508272  72.4591432
 139.8271139  73.1974470  73.1339076 141.0370334  74.0618850  72.8497949
 137.1866251  85.1892130  56.3705001 137.6990772  85.9835380  56.5210566
 137.8388964  84.4918421  56.3038603 138.9961136  88.3057886  58.4527755
 139.1727764  89.2275851  58.2648739 139.7917969  87.9916306  58.8822134
 143.1372154  75.1666151  70.0511688 143.8781868  75.7673304  69.9716151
 143.3690077  74.4243789  69.4929731 138.2813492  80.3522518  68.3289918
 138.1667008  79.4507776  68.6297017 137.4258010  80.5986215  67.9774734
 145.3605330  88.2940259  69.9277418 144.9169184  87.5076637  69.6098323
 146.0222544  88.4819409  69.2621309 140.1192451  89.8236060  64.4538097
 140.6699876  89.6953124  63.6815091 139.2803927  90.1230949  64.1032990
 143.9159622  86.0887188  68.7982328 144.4487959  85.3275476  68.5681636
 143.3873703  85.7960840  69.5406483 147.0829317  71.1947254  64.3275970
 146.7393587  72.0848896  64.2515080 147.4508280  71.0048912  63.4645555
 147.0479600  81.1855865  52.8348405 146.5326224  81.9560470  53.0736792
 146.7756909  80.5121001  53.4581466 144.6326711  76.0305566  57.8933643
 143.7768307  75.6412416  57.7139282 145.0453663  76.1097527  57.0333429
 146.1625858  73.5651909  62.2925203 145.6590653  73.5282044  61.4793008
 146.4556465  74.4744652  62.3521860 142.4068744  73.6490639  61.2991385
 143.2721740  73.4533448  60.9397274 142.4746253  73.4200991  62.2260742
 146.8365903  79.0582957  54.6608186 146.5316039  79.3729106  55.5118329
 147.7896345  79.1364377  54.7035519 145.2812335  85.2173180  56.3101140
 144.7533697  84.4825940  55.9974378 144.7799838  85.9947857  56.0641108
 140.0131063  75.8792847  58.6707752 140.5874815  75.6568028  57.9380945
 140.6002045  75.9481541  59.4236353 140.3400650  77.9097308  52.6903637
 139.5037962  78.2471994  53.0112912 140.2005419  77.7746288  51.7530774
 142.3153730  72.7534096  57.3982821 141.6618143  72.4383113  56.7739436
 142.2734205  72.1309836  58.1242644 143.4264935  83.0353391  49.3136113
 142.5191997  82.8042644  49.5127262 143.9235967  82.2391010  49.5010095
 146.3333014  91.7450898  52.2332799 145.6594713  92.0482595  52.8417757
 146.7198836  92.5479978  51.8838256 145.5491471  79.2416029  61.7230469
 144.6314032  79.4630976  61.5652157 145.9651614  79.3162340  60.8642176
 146.3326519  80.6407445  56.8533149 147.0798337  81.1528842  56.5440271
 146.6018108  80.3191498  57.7137543 144.6053169  83.1365986  53.8360103
 143.6964388  82.8525018  53.9332573 144.6348253  83.5565064  52.9763410
 143.1538063  80.7494606  59.9369899 143.2086673  79.7968443  59.8612375
 142.3429265  80.9054045  60.4211197 144.3029257  84.6774729  51.1748182
 143.8648686  83.9610588  50.7153819 145.0439697  84.9050844  50.6133273
 141.0930423  79.3671666  57.6960277 140.2798288  79.6665837  58.1025470
 141.5889417  78.9727355  58.4134760 143.2439001  89.3629423  59.6294542
 143.2015179  89.5890269  58.7003074 144.1601699  89.1292797  59.7780343
 146.6904634  79.8313490  66.5275171 147.0454022  80.0584964  67.3869637
 147.3376766  80.1631867  65.9052427 140.5844497  76.9390021  63.3121512
 141.2243877  76.7978781  62.6144476 139.7522028  76.6524535  62.9360114
 141.3604801  86.2392452  59.4256505 142.1545400  85.7442772  59.2239080
 140.6496494  85.7110315  59.0624210 146.1799646  88.6210547  63.7768872
 146.2336668  89.1901484  64.5446588 145.3114427  88.7912432  63.4122910
 137.6687565  80.3835534  55.5016258 136.7385153  80.3219989  55.7186220
 137.7645037  79.8611486  54.7052899 137.5873114  76.9090346  58.0894499
 137.8479931  77.8235680  57.9803660 138.4090286  76.4414789  58.2391112
 139.0598039  78.3228104  65.2593324 139.7321093  78.1145466  64.6105973
 138.2327826  78.1250190  64.8198556 144.9623611  74.9490045  67.2758985
 144.3151526  75.6479994  67.1823461 145.7324627  75.3826188  67.6435233
 145.1387746  82.7870809  65.3355804 146.0679806  82.9381969  65.1624772
 144.7178776  82.8754830  64.4804451 143.9376077  86.8121474  63.1054342
 143.7987163  86.4440258  63.9780280 143.1490674  87.3269113  62.9338300
 144.5324229  91.9130570  54.4479878 144.7075985  91.4418614  55.2625501
 143.8457017  92.5396337  54.6761139 145.4881292  86.1903077  60.4943180
 145.1531125  86.1503847  61.3900830 144.9885238  85.5247793  60.0213590
 139.4625536  81.5970707  66.0195761 139.3245334  80.8650945  66.6207300
 140.3730460  81.5079607  65.7379949 142.0907837  81.3090666  65.5079441
 142.8007456  80.6683858  65.4666059 142.0477145  81.5603561  66.4305621
 140.8036771  78.2955884  67.3275080 140.2674128  77.8446622  67.9796676
 140.2153480  78.4301793  66.5845544 139.0985315  95.0619933  61.2219739
 139.3381913  95.6938457  61.8998757 138.2554511  94.7107973  61.5085098
 140.2139030  77.7544535  49.8901544 139.3368496  77.6333336  49.5263790
 140.6896783  76.9630614  49.6380432 136.5375892  77.4311892  64.4128075
 136.4534081  76.8237561  63.6778484 135.7158599  77.9220910  64.4137571
 143.6113176  90.8699056  63.6261243 143.5383348  91.6754027  64.1380547
 143.1690570  91.0691021  62.8009264 143.4002956  90.1070826  57.1364064
 142.6170478  90.6492506  57.2302289 144.0995701  90.6244805  57.5358305
 146.7099606  75.9165455  59.7798270 147.2068306  75.1635417  59.4599340
 145.9386588  75.9529772  59.2141479 146.0711860  90.7685890  65.7819401
 146.7839832  91.4033354  65.7095303 145.5801889  90.8649756  64.9659403
 143.2934575  78.0582838  59.5069954 142.9232362  77.5053878  60.1950860
 143.7893667  77.4540972  58.9544954 141.1223774  88.5180333  66.6024972
 141.8233233  89.1516816  66.7554366 140.6518888  88.8595065  65.8420611
 145.8832233  91.1084634  58.5305693 146.0654628  90.2906290  58.9933445
 146.7065219  91.3252326  58.0930583 146.2174399  90.0352819  55.7920741
 146.7462165  89.5245273  55.1790903 146.4802618  89.7195349  56.6566274
 144.9712632  81.8144752  70.9143560 144.2953270  81.7138881  71.5845935
 145.7940266  81.6583965  71.3779557 139.5730147  91.0867936  58.5518517
 138.9040522  91.5714063  58.0682557 139.4343016  91.3337156  59.4661896
 143.7135415  93.1211679  65.1501176 144.2653723  93.2843301  65.9150261
 144.0541609  93.7116117  64.4781200 138.6899909  75.4686829  65.7523060
 138.7541235  76.3301660  65.3400458 138.6267029  74.8560830  65.0195419
 138.1652181  77.5409961  69.3996095 138.7924220  77.1587039  70.0133619
 137.3080100  77.3224163  69.7651787 134.9417724  79.3486390  55.3314449
 135.2371165  78.4397069  55.2781503 134.0405760  79.3274130  55.0095452
 146.8503803  91.0693655  62.1364858 146.7254942  90.2683394  61.6275803
 147.5082894  91.5639848  61.6478828 138.4711971  77.4242387  61.3141998
 137.7498557  78.0378355  61.1749471 139.2605227  77.9600152  61.2358644
 141.2738284  74.7596814  67.5882650 141.7972686  75.0059110  68.3508959
 141.0550618  75.5916848  67.1685787 136.6705565  77.0300488  55.4553774
 136.3418272  76.1497867  55.2728880 137.0244936  76.9748157  56.3430164
 145.9185144  88.6655391  59.9648760 145.7710107  87.7372098  60.1456330
 146.7438638  88.6875482  59.4805835 139.7847389  77.3173458  55.8229252
 140.1243461  77.8459379  55.1007861 140.2319509  77.6553864  56.5987819
 142.4790829  75.7010509  65.2732320 142.1387650  74.9018322  65.6753000
 141.7729836  76.0012220  64.7009153 143.1307301  72.7859821  63.7259643
 143.9533371  72.3120299  63.6038534 143.3745365  73.5650305  64.2258330
 141.7715536  75.8148080  54.0222545 142.4923898  76.1929332  53.5186262
 141.1480840  76.5336956  54.1257523 145.9146659  76.5193229  54.9580877
 146.1310273  77.4017866  54.6569705 145.4340726  76.1279442  54.2286519
 140.6545880  79.4778942  61.5351622 140.5090461  79.7919245  62.4275903
 140.1771084  80.0963842  60.9822520 142.5142263  76.4681490  61.5832511
 142.5003832  75.5722583  61.2464809 143.2314691  76.4752153  62.2170797
 144.3668394  76.9018830  63.6285639 144.1086171  77.8235901  63.6269969
 143.8353434  76.5049264  64.3186103 135.1291542  82.0184286  64.4739283
 134.5845010  82.7944094  64.6059557 136.0070892  82.3655091  64.3158404
 141.9179159  75.3495870  56.8520082 142.0395070  74.4212516  57.0510969
 141.6281201  75.3634556  55.9398397 144.7870349  73.0350780  59.9886801
 144.8092046  73.0990114  59.0338781 145.2038408  72.1955289  60.1827308
 135.9157564  81.1454182  67.3669440 135.1739300  81.2936818  67.9534070
 135.5950308  81.4062448  66.5036189 143.8601227  90.6870161  67.1649830
 144.1688353  90.4419307  68.0372529 144.6576709  90.8916799  66.6768700
 143.8821839  92.8408070  59.3955206 143.4426829  92.3484449  60.0888063
 144.6329956  92.2981038  59.1547282 136.3614178  89.0319611  59.3979835
 137.1872198  88.7323383  59.0178478 136.0108230  88.2627234  59.8469623
 141.3295711  88.3846079  61.4677508 140.7075720  87.7216784  61.1679736
 142.0000578  88.4107211  60.7851156 134.5622783  86.9505938  60.3568768
 133.7254691  86.5228112  60.1752769 134.5346428  87.1438381  61.2939559
 141.4020238  76.8627867  71.0610014 141.4508394  77.7389990  70.6787784
 141.9442753  76.3205260  70.4881657 140.8909218  86.9350003  54.9435969
 141.0397338  87.6185467  54.2902641 141.6975661  86.9155093  55.4585424
 143.6319527  77.6159240  67.8156373 142.7622836  77.9092806  67.5438961
 143.8679007  78.1999685  68.5363636 138.6461851  82.9615180  55.9497038
 138.4007893  82.0577510  56.1477248 138.8157765  82.9632331  55.0076516
 146.3358561  73.8338857  65.3321793 146.8540505  74.5699884  65.0068282
 145.9813693  74.1402850  66.1668552 137.9157498  78.6943538  53.4483199
 137.2226743  78.7687893  52.7923235 137.6709250  77.9303882  53.9704716
 146.5871155  70.2539139  60.8522690 146.8672909  69.5862328  61.4783116
 147.3721762  70.4468235  60.3397354 144.3904623  89.4298133  52.4147716
 143.8178590  90.0488320  51.9618188 144.9637417  89.9797495  52.9487638
 144.7751422  80.7658946  49.7563769 145.7210527  80.6365154  49.8252187
 144.3965667  80.0273608  50.2333197 144.6590114  84.8176692  71.2164426
 145.5793124  84.9955291  71.4104472 144.6239697  83.8732737  71.0644125
 142.9594339  78.6908922  49.6918654 142.0525794  78.3942035  49.7681367
 143.2370320  78.3938740  48.8252940 137.6552187  82.7277727  63.8587207
 137.8738197  83.6594834  63.8775241 138.0677961  82.3685701  64.6442011
 144.5756405  73.2345812  55.8462895 143.7657133  72.8892897  56.2218141
 145.2640822  72.9253356  56.4350507 146.5046953  72.3123859  57.4687192
 147.0577992  72.7319312  58.1277215 146.7417039  71.3859607  57.5110148
 142.5280052  78.3010932  73.2489956 142.4276779  79.2505289  73.1802047
 142.3101594  77.9729171  72.3766026 141.7293124  75.5495857  49.8330633
 142.5912288  75.8750756  50.0926450 141.9143468  74.7627353  49.3203699
 133.7460539  83.6318197  62.1110822 133.0524011  83.2172150  61.5980776
 134.4933530  83.6738734  61.5144241 142.3911322  81.7308071  72.0655017
 141.9078404  82.5308431  72.2718906 142.4772261  81.7416016  71.1122461
 135.6597282  83.5636451  59.9876837 135.6367970  83.6624138  59.0358720
 135.9697918  84.4101602  60.3094003 138.3184660  85.6212606  64.1023451
 139.2727913  85.5896548  64.0353383 138.1197183  85.1603230  64.9173677
 138.9084042  84.1913722  66.6694249 139.7276931  84.6857801  66.6929086
 139.1820850  83.2745690  66.6411816 136.6734889  91.1632225  61.1193649
 136.5389356  90.4032626  60.5531647 136.2566951  91.8873125  60.6522438
 139.8304014  92.0601542  61.3312092 139.7136399  93.0046975  61.2290782
 139.0096461  91.7575104  61.7197891 134.1618956  78.5251856  67.3686446
 134.8077820  78.0150810  67.8573671 133.9536107  79.2620538  67.9429871
 146.6872348  85.5932703  72.8678586 147.5563508  85.7673356  72.5065221
 146.2079100  86.4127120  72.7454316 142.6822567  72.7891901  53.1210342
 142.6701236  73.7333740  53.2778613 143.5745988  72.6062046  52.8269803
 140.8558529  92.7129804  64.5468020 141.7585775  92.7453415  64.8634515
 140.6295899  91.7830255  64.5614356 142.6112131  91.4660791  61.2078099
 141.6607762  91.4662653  61.0942471 142.9144617  90.7193525  60.6914133
 146.4974686  69.3834677  57.3756279 145.7307082  68.8293164  57.5212961
 146.9085391  69.4556546  58.2370430 138.5016447  75.6719473  71.4661460
 139.3647909  75.3156278  71.6764785 137.9281858  75.3333368  72.1536864
 147.0762178  94.4451220  61.0232105 146.2861232  94.7008748  60.5472215
 147.5673425  95.2599558  61.1284145 145.3599881  94.6981710  63.4547096
 145.6107919  95.5828720  63.7204671 145.8959429  94.5186312  62.6822187
 145.9908922  98.8472702  57.1464572 146.8284144  99.2569710  56.9298280
 146.1687190  97.9072144  57.1164766 146.0135094  96.1863417  57.8175305
 145.8159493  95.5932778  57.0926372 145.4581758  95.8815628  58.5351244
 142.5734925  97.8713613  59.9843051 143.2605964  97.5575343  59.3964066
 142.4183053  98.7754977  59.7110302 147.3769647  92.7603809  64.4128075
 147.2927836  92.1529479  63.6778484 146.5552353  93.2512828  64.4137571
 142.1502901  95.9514206  62.2560518 142.1887000  95.4177797  63.0497636
 141.6443194  95.4249412  61.6371495 145.7811478  94.6778308  55.3314449
 146.0764919  93.7688987  55.2781503 144.8799514  94.6566048  55.0095452
 145.9685297  97.3476204  64.4739283 145.4238765  98.1236012  64.6059557
 146.8464647  97.6947008  64.3158404 146.7551319  96.4746100  67.3669440
 146.0133055  96.6228735  67.9534070 146.4344063  96.7354366  66.5036189
 145.4016537 102.2797855  60.3568768 144.5648446 101.8520030  60.1752769
 145.3740183 102.4730299  61.2939559 144.7166034  95.3407203  60.1417700
 144.3968818  94.4872512  59.8492074 144.1699462  95.5555781  60.8975668
 144.5854294  98.9610115  62.1110822 143.8917765  98.5464068  61.5980776
 145.3327285  99.0030651  61.5144241 146.4991036  98.8928369  59.9876837
 146.4761724  98.9916056  59.0358720 146.8091673  99.7393519  60.3094003
 147.5128643 106.4924143  61.1193649 147.3783111 105.7324544  60.5531647
 147.0960705 107.2165043  60.6522438 145.0012711  93.8543774  67.3686446
 145.6471574  93.3442728  67.8573671 144.7929862  94.5912455  67.9429871
  98.1023468   8.0028991  43.8016843  98.0247498   8.9536816  43.8805324
  97.4985112   7.6574864  44.4591770  96.7617435   5.5130512  51.1783404
  97.3124860   5.3847575  50.4060398  95.9228911   5.8125401  50.8278296
 102.9757997   7.4345350  38.9578106 102.3019696   7.7377047  39.5663064
 103.3623819   8.2374430  38.6083563 101.1749213   7.6025022  41.1725185
 101.3500968   7.1313065  41.9870808 100.4882001   8.2290788  41.4006446
  95.7410298  10.7514385  47.9465045  95.9806896  11.3832909  48.6244064
  94.8979494  10.4002425  48.2330405 100.2538160   6.5593507  50.3506549
 100.1808331   7.3648479  50.8625854  99.8115553   6.7585473  49.5254571
 100.0427939   5.7965277  43.8609371  99.2595461   6.3386958  43.9547595
 100.7420685   6.3139257  44.2603612 102.7136843   6.4580341  52.5064708
 103.4264815   7.0927806  52.4340609 102.2226872   6.5544207  51.6904710
  96.2155130   6.7762387  45.2763824  95.5465505   7.2608515  44.7927864
  96.0768000   7.0231608  46.1907202 100.3560399   8.8106131  51.8746482
 100.9078707   8.9737752  52.6395567 100.6966592   9.4010569  51.2026507
 100.5026210   6.3764613  53.8895137 100.8113336   6.1313759  54.7617836
 101.3001692   6.5811251  53.4014007 100.5246822   8.5302522  46.1200513
 100.0851812   8.0378901  46.8133370 101.2754939   7.9875490  45.8792588
  93.0039161   4.7214063  46.1225141  93.8297181   4.4217835  45.7423785
  92.6533213   3.9521685  46.5714930  91.2047766   2.6400389  47.0814075
  90.3679674   2.2122564  46.8998076  91.1771411   2.8332833  48.0184866
  93.3159872   6.8526677  47.8438956  93.1814340   6.0927078  47.2776954
  92.8991934   7.5767577  47.3767744  96.4728998   7.7495994  48.0557398
  96.3561382   8.6941427  47.9536089  95.6521444   7.4469556  48.4443197
  97.4983512   8.4024256  51.2713327  98.4010759   8.4347867  51.5879822
  97.2720882   7.4724707  51.2859662  99.2537114   7.1555243  47.9323405
  98.3032745   7.1557104  47.8187778  99.5569600   6.4087977  47.4159440
 114.9889807  12.9915781  48.9969168 115.6268217  12.8722529  48.2932508
 114.8710650  13.9396625  49.0557120 111.7979514  12.9443209  48.9330692
 111.4598025  12.8284274  48.0451227 112.6669282  12.5434374  48.9131699
 107.6566329  14.7978686  44.9227583 107.0931194  14.7068623  44.1543871
 107.5418724  13.9778590  45.4030076 112.2799297  14.0978061  54.8916898
 112.2687937  13.7030859  54.0197402 112.4419936  13.3644134  55.4850669
 105.2030761  16.2929877  47.7611804 105.9952053  15.9520702  47.3458103
 105.4427411  16.4024852  48.6813957 113.2365888  18.4649653  40.2342048
 112.5853868  19.0503734  39.8476062 114.0310251  18.9955848  40.2937086
 107.1621515  15.5538791  40.6329183 107.9352391  15.0067778  40.4942058
 107.5146914  16.4183040  40.8443644 109.0006558  16.8815173  53.8396082
 108.7096424  17.7860804  53.7242748 109.6363542  16.9231700  54.5540151
 109.9262765  14.2592021  50.4297442 110.5226337  14.0348044  49.7154404
 109.9837736  13.5176767  51.0322889 109.4987793  11.7131457  38.2647633
 109.7513314  11.1912978  37.5031096 108.5612352  11.5497602  38.3674316
 114.7141153  16.1540085  40.7711033 114.0786986  16.2274712  41.4831937
 114.3838560  16.7433684  40.0930112 109.2184082  13.6159563  40.4672007
 109.1020340  12.9404466  41.1353092 109.3286342  13.1291937  39.6504161
 111.5615623  13.0769710  44.1718697 111.1973830  12.5500331  44.8831618
 112.4182739  12.6868179  43.9985182 113.9596443  16.5676588  50.8345876
 113.6597166  17.4701627  50.7261683 113.6147502  16.3008772  51.6867028
 107.4108924  13.0190385  46.8682580 106.4859421  12.8866599  47.0760272
 107.6593338  13.7984604  47.3652522 111.1810331  10.5617267  40.1526712
 111.0609956  11.0074318  40.9912192 110.4862919  10.9102585  39.5940250
 104.7717735  12.6623659  47.7026369 104.9010117  12.9158138  48.6165781
 104.0915187  13.2551367  47.3831024 108.9417223  23.3320909  43.8016843
 108.8641252  24.2828734  43.8805324 108.3378866  22.9866781  44.4591770
 111.4334452  10.5048774  56.4578210 110.6567786  11.0642694  56.4481075
 112.0725015  10.9905557  56.9793080 109.6880825  13.3134227  56.0196177
 110.4295509  13.8519271  55.7431001 108.9817810  13.9400516  56.1767729
 115.1636164  15.4563368  54.6168339 115.5719520  15.0145778  53.8722971
 114.4413426  14.8815995  54.8702532 111.5167234  10.3935975  51.9901896
 112.3628430  10.8175388  52.1336545 111.4565872   9.7369599  52.6840459
 115.4864979  16.0164559  48.3720628 114.8573841  16.1810273  47.6696695
 115.0990641  16.4306168  49.1431592 119.3654211  16.9518996  45.7264991
 118.6805249  17.3317898  45.1762025 119.4498060  17.5614323  46.4596939
 116.6205143  14.5978955  52.3260335 116.8322038  15.2410715  51.6494716
 116.5734891  13.7641272  51.8582265 111.0392941  15.7538967  45.6370713
 111.5031286  16.0326670  44.8475335 110.7749739  14.8522411  45.4543803
 107.9317022  15.3010448  48.5750476 108.5018379  15.7297717  47.9367960
 108.5225134  15.0193033  49.2734662 109.9761827  11.8762119  42.4460278
 110.6785870  12.3283163  42.9134204 109.6442455  11.2345938  43.0740171
 108.4242188  10.4673876  56.8211487 107.7940849  11.1490157  57.0546884
 108.3178276  10.3556957  55.8764625 103.7187161  10.1345672  47.7477411
 102.9286215  10.3903200  47.2717522 104.2098408  10.9494010  47.8529452
 117.7350970  17.4750911  50.4982692 118.5568414  17.0731098  50.2165374
 117.7313373  17.3719145  51.4498808 105.6701906  10.4990251  44.7060888
 104.8733070  10.6108945  45.2244384 105.4427498  10.8376903  43.8401779
 111.5007574  17.0234954  52.6543403 111.5652006  17.4855361  53.4901575
 110.7918498  16.3932319  52.7825713 102.0024864  10.3876162  50.1792402
 102.2532902  11.2723172  50.4449978 102.5384412  10.2080764  49.4067494
 111.2155592  18.6903062  42.5222383 111.0801266  19.5354597  42.9507231
 111.7565404  18.8922339  41.7588317 104.6684989  16.2078500  43.0950308
 105.1809510  17.0021750  43.2455873 105.3207702  15.5104790  43.0283910
 106.4779874  19.3244256  45.1773061 106.6546502  20.2462221  44.9894045
 107.2736707  19.0102675  45.6067441 105.7632230  11.3708888  55.0535224
 105.6485745  10.4694145  55.3542323 104.9076748  11.6172585  54.7020041
 112.8424068  19.3126628  56.6522725 112.3987922  18.5263007  56.3343630
 113.5041282  19.5005779  55.9866616 107.6011189  20.8422430  51.1783404
 108.1518614  20.7139493  50.4060398 106.7622665  21.1417319  50.8278296
 114.9405306  19.5929428  54.6804126 114.9223781  20.4138309  54.1884396
 115.8625226  19.4683503  54.9054268 111.3978360  17.1073558  55.5227635
 111.9306697  16.3461846  55.2926943 110.8692441  16.8147209  56.2651789
 102.6333906  14.5367154  43.8709879 103.4709128  14.9464162  43.6543586
 102.8112173  13.5966596  43.8410073 114.5298338  12.2042235  39.5593712
 114.0144961  12.9746839  39.7982099 114.2575646  11.5307371  40.1826773
 119.5032612  14.9574589  41.4946885 118.7262055  14.6185749  41.0502047
 120.1824093  14.9627212  40.8201850 112.7631073  16.2359550  43.0346447
 112.2352434  15.5012310  42.7219684 112.2618576  17.0134226  42.7886415
 117.7423919  14.4308571  48.1513493 117.0847593  15.1207832  48.2393622
 118.5464318  14.8205002  48.4947479 116.5529378  12.7852943  46.2017435
 117.0661259  13.4182935  46.7039145 117.2030602  12.1854139  45.8360795
 107.8219388   8.9283677  39.4148944 106.9856700   9.2658364  39.7358218
 107.6824157   8.7932657  38.4776081 110.9083673  14.0539760  36.0381420
 110.0010735  13.8229014  36.2372569 111.4054705  13.2577380  36.2255401
 113.8151752  22.7637268  38.9578106 113.1413451  23.0668964  39.5663064
 114.2017574  23.5666348  38.6083563 113.0310209  10.2602399  48.4475775
 112.1132770  10.4817346  48.2897463 113.4470352  10.3348709  47.5887483
 113.8145256  11.6593814  43.5778456 114.5617075  12.1715212  43.2685578
 114.0836846  11.3377867  44.4382849 112.0871906  14.1552355  40.5605410
 111.1783126  13.8711388  40.6577880 112.1166990  14.5751434  39.7008717
 117.3191174  17.7658945  44.3296577 116.8653501  16.9249855  44.3861768
 116.6885141  18.4020343  44.6671358 115.7624113  19.6035441  45.2646396
 116.0547088  20.1640498  44.5458761 116.2722734  19.8964002  46.0199555
 102.6560077  11.8757869  44.5420612 102.4584477  11.2827230  43.8171679
 102.1006741  11.5710079  45.2596551 110.6356801  11.7680976  46.6615205
 110.6905410  10.8154812  46.5857682 109.8248003  11.9240415  47.1456504
 111.7847994  15.6961099  37.8993488 111.3467424  14.9796958  37.4399126
 112.5258435  15.9237214  37.3378580 108.5749160  10.3858036  44.4205584
 107.7617026  10.6852206  44.8270776 109.0708155   9.9913724  45.1380066
 110.7257738  20.3815792  46.3539849 110.6833917  20.6076639  45.4248381
 111.6420437  20.1479167  46.5025650 114.1723372  10.8499860  53.2520478
 114.5272760  11.0771333  54.1114944 114.8195503  11.1818237  52.6297733
 119.9021109  13.9718296  43.9569807 119.7639008  14.1619892  43.0290996
 119.5457328  14.7337679  44.4137858 119.9290489  16.0394823  48.9681079
 120.3626995  15.9470112  49.8164133 120.6422069  16.0152323  48.3301095
 108.8423539  17.2578821  46.1501811 109.6364138  16.7629142  45.9484386
 108.1315232  16.7296685  45.7869517 113.6618384  19.6396917  50.5014179
 113.7155406  20.2087853  51.2691895 112.7933165  19.8098802  50.1368216
 105.1506303  11.4021903  42.2261564 104.2203891  11.3406359  42.4431526
 105.2463775  10.8797856  41.4298205 105.0691852   7.9276716  44.8139806
 105.3298669   8.8422049  44.7048966 105.8909024   7.4601159  44.9636419
 106.5416777   9.3414473  51.9838630 107.2139830   9.1331835  51.3351279
 105.7146563   9.1436559  51.5443863 120.7906038  16.0818524  51.5013964
 120.9841928  16.9864334  51.7473239 120.6906656  15.6225943  52.3352549
 115.8521147  16.2325266  57.0754845 115.7006653  16.0035818  56.1584928
 115.8425826  17.1895868  57.0886190 112.6206483  13.8057179  52.0601111
 113.5498543  13.9568339  51.8870078 112.1997513  13.8941200  51.2049757
 111.4194815  17.8307843  49.8299649 111.2805901  17.4626628  50.7025587
 110.6309411  18.3455483  49.6583606 112.0142967  22.9316940  41.1725185
 112.1894723  22.4604983  41.9870808 111.3275755  23.5582706  41.4006446
 112.9700030  17.2089446  47.2188486 112.6349863  17.1690216  48.1146136
 112.4703976  16.5434162  46.7458897 106.9444274  12.6157076  52.7441068
 106.8064072  11.8837315  53.3452607 107.8549198  12.5265976  52.4625255
 115.9059222  14.5545481  37.4925546 115.2888393  13.8292309  37.3958599
 115.4375710  15.3154841  37.1492620 109.5726575  12.3277036  52.2324747
 110.2826193  11.6870228  52.1911366 109.5295883  12.5789930  53.1550928
 117.5613354  19.2644389  55.1531326 117.5025900  18.5803609  54.4861909
 117.9632872  20.0063379  54.7011952 108.2855509   9.3142253  54.0520387
 107.7492866   8.8632992  54.7041983 107.6972217   9.4488162  53.3090851
 106.5804052  26.0806303  47.9465045 106.8200651  26.7124827  48.6244064
 105.7373249  25.7294343  48.2330405 117.5630761  17.2283973  53.3845306
 116.6757540  16.8909895  53.5071705 118.1329312  16.4967004  53.6214071
  99.2159908  13.5608065  46.7088357  99.9030948  13.2469795  46.1209373
  99.0608037  14.4649429  46.4355609 104.0194630   8.4498261  51.1373381
 103.9352819   7.8423931  50.4023791 103.1977337   8.9407279  51.1382877
 111.0931914  21.8885425  50.3506549 111.0202086  22.6940397  50.8625854
 110.6509307  22.0877391  49.5254571 110.8821694  21.1257195  43.8609371
 110.0989216  21.6678875  43.9547595 111.5814439  21.6431175  44.2603612
 113.5530598  21.7872259  52.5064708 114.2658570  22.4219724  52.4340609
 113.0620626  21.8836125  51.6904710 115.2748125  15.6923512  44.0782000
 114.3404403  15.8124974  43.9086704 115.4524793  14.7895979  43.8142009
 108.6042511  19.5366703  53.3270279 109.3051971  20.1703186  53.4799673
 108.1337626  19.8781434  52.5665918 116.7296907  17.8784652  41.6118186
 117.0056751  17.7641247  42.5212060 115.8601406  17.4802137  41.5730359
 113.3650971  22.1271003  45.2550999 113.5473366  21.3092659  45.7178752
 114.1883957  22.3438696  44.8175889 113.6993137  21.0539188  42.5166048
 114.2280903  20.5431643  41.9036210 113.9621356  20.7381719  43.3811581
 112.4531370  12.8331121  57.6388866 111.7772007  12.7325250  58.3091241
 113.2759004  12.6770335  58.1024863 104.2010229  19.0703058  50.2601381
 104.7863666  18.3246746  50.3929286 104.0035068  19.3807014  51.1438045
 107.0548885  22.1054305  45.2763824 106.3859260  22.5900433  44.7927864
 106.9161754  22.3523526  46.1907202  98.7927884  11.6408658  48.9805825
  98.8311984  11.1072249  49.7742943  98.2868177  11.1143863  48.3616802
 111.1954153  24.1398049  51.8746482 111.7472461  24.3029670  52.6395567
 111.5360347  24.7302486  51.2026507 105.6470919   8.5596331  56.1241401
 106.2742958   8.1773408  56.7378925 104.7898838   8.3410533  56.4897094
 116.0465027  18.9659306  57.7295137 116.5904931  19.5789264  57.2350091
 115.4651872  19.5238885  58.2462150 102.4236462  10.3672760  42.0559756
 102.7189903   9.4583438  42.0026810 101.5224497  10.3460499  41.7340758
 114.3322540  22.0880024  48.8610164 114.2073680  21.2869764  48.3521110
 114.9901632  22.5826217  48.3724134 105.9530709   8.4428757  48.0387305
 105.2317294   9.0564724  47.8994778 106.7423964   8.9786521  47.9603951
 116.3957449  19.8889044  50.4889714 115.4487784  19.7694395  50.4168041
 116.7440222  19.0011542  50.5715976 104.1524303   8.0486858  42.1799081
 103.8237009   7.1684237  41.9974187 104.5063674   7.9934526  43.0675470
 113.4003882  19.6841760  46.6894067 113.2528845  18.7558468  46.8701637
 114.2257376  19.7061851  46.2051142 107.2666126   8.3359828  42.5474559
 107.6062199   8.8645749  41.8253167 107.7138247   8.6740234  43.3233125
 117.0038004  20.5070319  47.7758939 117.9284551  20.3013180  47.6383391
 116.8353307  20.2586720  48.6848281 108.1364618  10.4965311  48.2596928
 107.9909199  10.8105614  49.1521210 107.6589821  11.1150212  47.7067827
 116.7933320  21.0255987  43.1321031 116.9670198  20.4602409  42.3794883
 117.2862211  21.8256881  42.9500521 102.6110280  13.0370656  51.1984590
 102.0663748  13.8130464  51.3304864 103.4889630  13.3841460  51.0403711
 117.7808493  20.3422751  40.2317929 118.4759397  20.9629444  40.4505244
 118.1231643  19.4918102  40.5070307 103.3976302  12.1640552  54.0914747
 102.6558038  12.3123187  54.6779377 103.0769046  12.4248818  53.2281496
 119.6799916  17.7922457  41.7605260 120.2051240  18.1309729  41.0354580
 119.5922268  16.8569472  41.5768395 111.3419964  21.7056530  53.8895137
 111.6507091  21.4605677  54.7617836 112.1395447  21.9103169  53.4014007
 111.3640577  23.8594440  46.1200513 110.9245567  23.3670819  46.8133370
 112.1148693  23.3167407  45.8792588 103.8432916  20.0505981  46.1225141
 104.6690935  19.7509753  45.7423785 103.4926968  19.2813603  46.5714930
 108.8114449  19.4032449  48.1922815 108.1894458  18.7403154  47.8925043
 109.4819316  19.4293581  47.5096463 102.0441521  17.9692307  47.0814075
 101.2073429  17.5414481  46.8998076 102.0165166  18.1624750  48.0184866
 119.3693822  18.4255360  57.0656458 118.5789366  18.4079499  56.5260957
 119.1327176  18.9643654  57.8205494 119.4891697  15.2747827  54.3789186
 119.5389702  15.1097834  55.3204709 119.3805620  14.4075086  53.9887067
 108.3727956  17.9536372  41.6681275 108.5216076  18.6371837  41.0147948
 109.1794399  17.9341462  42.1830731 120.9909894  17.6944768  54.6231208
 120.6994702  18.0574749  55.4594669 120.3782025  16.9811776  54.4444540
 122.1905576  15.2597648  47.1433778 123.0252467  15.6987452  47.3071339
 122.3264705  14.7836301  46.3242024 119.2397082  12.8177383  53.0911266
 119.7151204  13.0105029  52.2830117 118.3162647  12.8736569  52.8454650
 106.1280589  13.9801550  42.6742344 105.8826631  13.0763880  42.8722554
 106.2976503  13.9818700  41.7321822 105.3976236   9.7129907  40.1728506
 104.7045481   9.7874262  39.5168542 105.1527988   8.9490251  40.6950023
 111.8723361  20.4484503  39.1393023 111.2997328  21.0674690  38.6863495
 112.4456155  20.9983864  39.6732945 115.0920621  20.7321653  40.2701605
 116.0251294  20.6667214  40.4734481 115.0043834  21.5677920  39.8116138
 117.7208638  20.0487523  37.2305553 117.6422269  19.7147387  38.1241310
 118.5418304  20.5409291  37.2297025 112.2570160  11.7845315  36.4809075
 113.2029264  11.6551524  36.5497493 111.8784405  11.0459977  36.9578503
 112.1408852  15.8363062  57.9409732 113.0611862  16.0141661  58.1349779
 112.1058435  14.8919107  57.7889431 110.4413077   9.7095292  36.4163960
 109.5344532   9.4128405  36.4926674 110.7189058   9.4125110  35.5498247
 101.3591017  11.0301655  46.8663007 101.0393801  10.1766963  46.5737381
 100.8124445  11.2450233  47.6220974 105.1370925  13.7464096  50.5832513
 105.3556934  14.6781204  50.6020547 105.5496699  13.3872071  51.3687317
 110.0098790   9.3197302  59.9735262 109.9095517  10.2691659  59.9047353
 109.7920332   8.9915541  59.1011332 101.2279277  14.6504567  48.8356128
 100.5342749  14.2358520  48.3226083 101.9752268  14.6925103  48.2389547
 109.8730060  12.7494441  58.7900324 109.3897142  13.5494801  58.9964213
 109.9590999  12.7602386  57.8367768 103.1416020  14.5822821  46.7122143
 103.1186708  14.6810508  45.7604026 103.4516656  15.4287971  47.0339309
 105.8003398  16.6398976  50.8268758 106.7546651  16.6082918  50.7598689
 105.6015921  16.1789599  51.6418984 106.3902780  15.2100092  53.3939555
 107.2095669  15.7044170  53.4174393 106.6639587  14.2932060  53.3657123
 104.1553626  22.1818595  47.8438956 104.0208094  21.4218996  47.2776954
 103.7385689  22.9059495  47.3767744 115.2912589  17.3655519  36.8515531
 115.9948439  17.5705521  37.4673187 114.5675238  17.9332280  37.1164614
 116.1210400  13.1165380  42.9717801 116.0645601  13.5733931  42.1325433
 116.6738742  12.3556064  42.7940644 107.3122752  23.0787912  48.0557398
 107.1955136  24.0233345  47.9536089 106.4915198  22.7761474  48.4443197
 117.1999287  17.8038048  38.9013991 118.0344891  17.3719246  38.7191466
 117.0383630  17.6320061  39.8290885 116.8545179  14.3070161  40.2670330
 116.7993983  14.1414433  39.3258774 116.2291234  15.0146194  40.4232520
 101.6437694   9.5438225  54.0931752 102.2896558   9.0337179  54.5818978
 101.4354845  10.2806907  54.6675178 114.1691086  16.6119073  59.5923893
 115.0382246  16.7859725  59.2310528 113.6897838  17.4313490  59.4699622
 108.3377266  23.7316174  51.2713327 109.2404513  23.7639784  51.5879822
 108.1114636  22.8016625  51.2859662 110.0930868  22.4847160  47.9323405
 109.1426499  22.4849022  47.8187778 110.3963355  21.7379895  47.4159440
 125.8283562  28.3207699  48.9969168 126.4661972  28.2014446  48.2932508
 125.7104405  29.2688543  49.0557120 122.6373268  28.2735127  48.9330692
 122.2991780  28.1576192  48.0451227 123.5063036  27.8726292  48.9131699
 118.4960084  30.1270603  44.9227583 117.9324949  30.0360540  44.1543871
 118.3812479  29.3070508  45.4030076 123.1193051  29.4269979  54.8916898
 123.1081692  29.0322777  54.0197402 123.2813691  28.6936051  55.4850669
 116.0424516  31.6221795  47.7611804 116.8345808  31.2812620  47.3458103
 116.2821166  31.7316770  48.6813957 124.0759643  33.7941571  40.2342048
 123.4247622  34.3795652  39.8476062 124.8704005  34.3247766  40.2937086
 118.0015270  30.8830708  40.6329183 118.7746146  30.3359695  40.4942058
 118.3540669  31.7474958  40.8443644 119.8400312  32.2107091  53.8396082
 119.5490178  33.1152721  53.7242748 120.4757297  32.2523618  54.5540151
 120.7656519  29.5883939  50.4297442 121.3620091  29.3639961  49.7154404
 120.8231491  28.8468685  51.0322889 120.3381548  27.0423374  38.2647633
 120.5907068  26.5204896  37.5031096 119.4006107  26.8789520  38.3674316
 125.3824830  26.0459153  46.0722376 126.1687920  25.6278576  45.7212793
 125.6463535  26.9505245  46.2404024 125.5534908  31.4832003  40.7711033
 124.9180741  31.5566630  41.4831937 125.2232314  32.0725602  40.0930112
 130.7833257  25.9834386  46.9755354 131.5158429  25.4133603  47.2093184
 130.0272613  25.5955986  47.4161860 120.0577836  28.9451480  40.4672007
 119.9414094  28.2696384  41.1353092 120.1680096  28.4583854  39.6504161
 122.4009377  28.4061627  44.1718697 122.0367584  27.8792248  44.8831618
 123.2576493  28.0160096  43.9985182 128.3058678  19.6955960  51.4349963
 127.9742003  20.5651371  51.2111178 127.7104291  19.3792244  52.1143993
 122.0414864  23.4351527  39.1680045 122.2089267  24.3031764  39.5350516
 121.8512033  23.5978809  38.2441334 124.7990197  31.8968506  50.8345876
 124.4990920  32.7993545  50.7261683 124.4541257  31.6300689  51.6867028
 118.2502679  28.3482303  46.8682580 117.3253175  28.2158517  47.0760272
 118.4987092  29.1276522  47.3652522 128.1987341  24.4151046  48.5143313
 127.2904218  24.3466455  48.2202074 128.1474937  24.8922991  49.3425138
 122.0204085  25.8909185  40.1526712 121.9003710  26.3366235  40.9912192
 121.3256673  26.2394502  39.5940250 115.6111490  27.9915576  47.7026369
 115.7403871  28.2450055  48.6165781 114.9308941  28.5843284  47.3831024
 119.7810977  38.6612826  43.8016843 119.7035007  39.6120651  43.8805324
 119.1772621  38.3158699  44.4591770 122.2728207  25.8340692  56.4578210
 121.4961541  26.3934612  56.4481075 122.9118770  26.3197475  56.9793080
 130.0648988  22.6167485  50.2921187 129.4223368  22.9100018  49.6460981
 129.5603916  22.5020405  51.0974383 127.7189151  26.3630658  40.9807046
 128.6307007  26.5958045  40.8054744 127.2098798  26.9467702  40.4182125
 120.5274579  28.6426145  56.0196177 121.2689264  29.1811189  55.7431001
 119.8211565  29.2692434  56.1767729 126.0029919  30.7855286  54.6168339
 126.4113275  30.3437696  53.8722971 125.2807180  30.2107913  54.8702532
 122.3560989  25.7227892  51.9901896 123.2022184  26.1467306  52.1336545
 122.2959627  25.0661517  52.6840459 126.3258734  31.3456476  48.3720628
 125.6967596  31.5102190  47.6696695 125.9384396  31.7598086  49.1431592
 130.2047965  32.2810914  45.7264991 129.5199004  32.6609815  45.1762025
 130.2891815  32.8906241  46.4596939 125.5060434  23.3832261  53.6483069
 125.2621366  24.1374321  53.1117345 125.7820365  23.7617608  54.4830316
 127.4598897  29.9270873  52.3260335 127.6715792  30.5702633  51.6494716
 127.4128645  29.0933190  51.8582265 125.0625126  22.5388694  49.2296907
 124.2009605  22.8369947  49.5213645 125.0887561  22.7559093  48.2977940
 121.8786695  31.0830884  45.6370713 122.3425041  31.3618587  44.8475335
 121.6143493  30.1814329  45.4543803 118.7710776  30.6302366  48.5750476
 119.3412134  31.0589634  47.9367960 119.3618888  30.3484951  49.2734662
 120.8155581  27.2054037  42.4460278 121.5179625  27.6575080  42.9134204
 120.4836210  26.5637856  43.0740171 119.2635943  25.7965793  56.8211487
 118.6334604  26.4782074  57.0546884 119.1572031  25.6848875  55.8764625
 114.5580915  25.4637589  47.7477411 113.7679969  25.7195118  47.2717522
 115.0492163  26.2785927  47.8529452 128.5744725  32.8042829  50.4982692
 129.3962169  32.4023016  50.2165374 128.5707128  32.7011063  51.4498808
 116.5095661  25.8282169  44.7060888 115.7126824  25.9400863  45.2244384
 116.2821253  26.1668821  43.8401779 122.3401328  32.3526872  52.6543403
 122.4045761  32.8147279  53.4901575 121.6312252  31.7224237  52.7825713
 112.8418618  25.7168080  50.1792402 113.0926657  26.6015090  50.4449978
 113.3778167  25.5372681  49.4067494 136.6650718  29.1481577  46.8467664
 135.9114426  28.5788975  46.6911668 136.7998259  29.1144242  47.7938298
 122.0549346  34.0194979  42.5222383 121.9195021  34.8646515  42.9507231
 122.5959159  34.2214257  41.7588317 118.5416686  20.0986559  59.1836738
 118.1483631  19.5452758  59.8584382 119.3582826  20.4097138  59.5743256
 115.5078743  31.5370417  43.0950308 116.0203264  32.3313668  43.2455873
 116.1601456  30.8396708  43.0283910 117.3173628  34.6536174  45.1773061
 117.4940256  35.5754138  44.9894045 118.1130462  34.3394593  45.6067441
 121.4584647  21.5144438  56.7756995 122.1994360  22.1151591  56.6961457
 121.6902570  20.7722076  56.2175037 116.6025985  26.7000806  55.0535224
 116.4879500  25.7986063  55.3542323 115.7470502  26.9464502  54.7020041
 123.6817822  34.6418546  56.6522725 123.2381677  33.8554924  56.3343630
 124.3435036  34.8297696  55.9866616 118.4404944  36.1714347  51.1783404
 118.9912369  36.0431411  50.4060398 117.6016420  36.4709236  50.8278296
 125.7799061  34.9221346  54.6804126 125.7617536  35.7430227  54.1884396
 126.7018981  34.7975421  54.9054268 122.2372115  32.4365475  55.5227635
 122.7700451  31.6753763  55.2926943 121.7086196  32.1439127  56.2651789
 125.4041810  17.5425541  51.0521276 125.0606079  18.4327183  50.9760387
 125.7720772  17.3527199  50.1890861 113.4727660  29.8659072  43.8709879
 114.3102882  30.2756080  43.6543586 113.6505928  28.9258514  43.8410073
 125.3692092  27.5334152  39.5593712 124.8538716  28.3038757  39.7982099
 125.0969401  26.8599288  40.1826773 122.9539203  22.3783853  44.6178950
 122.0980800  21.9890703  44.4384589 123.3666155  22.4575814  43.7578735
 124.4838350  19.9130196  49.0170510 123.9803146  19.8760332  48.2038315
 124.7768957  20.8222939  49.0767166 120.7281236  19.9968926  48.0236691
 121.5934233  19.8011735  47.6642581 120.7958745  19.7679278  48.9506048
 130.3426366  30.2866507  41.4946885 129.5655809  29.9477666  41.0502047
 131.0217847  30.2919130  40.8201850 125.1578396  25.4061244  41.3853493
 124.8528531  25.7207394  42.2363636 126.1108838  25.4842664  41.4280826
 123.6024827  31.5651468  43.0346447 123.0746189  30.8304227  42.7219684
 123.1012330  32.3426144  42.7886415 128.5817673  29.7600488  48.1513493
 127.9241348  30.4499750  48.2393622 129.3858073  30.1496920  48.4947479
 118.3343555  22.2271134  45.3953058 118.9087307  22.0046316  44.6626251
 118.9214537  22.2959829  46.1481660 127.3923132  28.1144861  46.2017435
 127.9055014  28.7474853  46.7039145 128.0424356  27.5146056  45.8360795
 118.6613142  24.2575595  39.4148944 117.8250454  24.5950282  39.7358218
 118.5217912  24.1224575  38.4776081 120.6366223  19.1012383  44.1228128
 119.9830635  18.7861400  43.4984742 120.5946697  18.4788123  44.8487951
 121.7477428  29.3831678  36.0381420 120.8404489  29.1520931  36.2372569
 122.2448460  28.5869297  36.2255401 124.6545506  38.0929185  38.9578106
 123.9807205  38.3960882  39.5663064 125.0411328  38.8958266  38.6083563
 123.8703963  25.5894316  48.4475775 122.9526524  25.8109263  48.2897463
 124.2864107  25.6640627  47.5887483 124.6539011  26.9885732  43.5778456
 125.4010830  27.5007129  43.2685578 124.9230600  26.6669785  44.4382849
 122.9265661  29.4844273  40.5605410 122.0176880  29.2003306  40.6577880
 122.9560745  29.9043351  39.7008717 128.1584928  33.0950862  44.3296577
 127.7047256  32.2541772  44.3861768 127.5278895  33.7312261  44.6671358
 127.1017848  24.0242848  45.5597245 126.3640605  23.5120235  45.8907487
 127.3544621  23.5843230  44.7480522 126.6017868  34.9327359  45.2646396
 126.8940842  35.4932416  44.5458761 127.1116488  35.2255920  46.0199555
 127.2029475  16.8019100  46.1539014 127.5088352  15.9416464  45.8664929
 127.9282080  17.3936721  45.9538008 113.4953831  27.2049787  44.5420612
 113.2978231  26.6119148  43.8171679 112.9400495  26.9001997  45.2596551
 121.4750555  27.0972893  46.6615205 121.5299165  26.1446730  46.5857682
 120.6641757  27.2532333  47.1456504 122.6241749  31.0253017  37.8993488
 122.1861179  30.3088875  37.4399126 123.3652190  31.2529131  37.3378580
 119.4142915  25.7149953  44.4205584 118.6010780  26.0144124  44.8270776
 119.9101909  25.3205642  45.1380066 121.5651493  35.7107710  46.3539849
 121.5227672  35.9368556  45.4248381 122.4814192  35.4771085  46.5025650
 125.0117127  26.1791778  53.2520478 125.3666514  26.4063251  54.1114944
 125.6589258  26.5110154  52.6297733 130.7414864  29.3010214  43.9569807
 130.6032762  29.4911810  43.0290996 130.3851082  30.0629596  44.4137858
 118.9056990  23.2868309  50.0366819 119.5456369  23.1457068  49.3389782
 118.0734520  23.0002822  49.6605421 130.7684243  31.3686741  48.9681079
 131.2020750  31.2762030  49.8164133 131.4815824  31.3444241  48.3301095
 119.6817294  32.5870739  46.1501811 120.4757892  32.0921059  45.9484386
 118.9708986  32.0588602  45.7869517 124.5012138  34.9688835  50.5014179
 124.5549160  35.5379771  51.2691895 123.6326919  35.1390720  50.1368216
 115.9900057  26.7313821  42.2261564 115.0597645  26.6698276  42.4431526
 116.0857529  26.2089774  41.4298205 115.9085606  23.2568634  44.8139806
 116.1692423  24.1713967  44.7048966 116.7302778  22.7893076  44.9636419
 117.3810531  24.6706391  51.9838630 118.0533585  24.4623753  51.3351279
 116.5540318  24.4728477  51.5443863 131.6299793  31.4110441  51.5013964
 131.8235683  32.3156252  51.7473239 131.5300411  30.9517860  52.3352549
 123.2836103  21.2968332  54.0004291 122.6364019  21.9958281  53.9068768
 124.0537119  21.7304476  54.3680539 126.6914901  31.5617184  57.0754845
 126.5400408  31.3327736  56.1584928 126.6819581  32.5187785  57.0886190
 123.4600238  29.1349097  52.0601111 124.3892298  29.2860256  51.8870078
 123.0391268  29.2233118  51.2049757 122.2588570  33.1599761  49.8299649
 122.1199655  32.7918546  50.7025587 121.4703166  33.6747401  49.6583606
 122.8536722  38.2608858  41.1725185 123.0288477  37.7896901  41.9870808
 122.1669510  38.8874624  41.4006446 123.8093785  32.5381364  47.2188486
 123.4743617  32.4982134  48.1146136 123.3097730  31.8726080  46.7458897
 117.7838029  27.9448994  52.7441068 117.6457827  27.2129233  53.3452607
 118.6942952  27.8557894  52.4625255 126.7452976  29.8837398  37.4925546
 126.1282147  29.1584226  37.3958599 126.2769465  30.6446758  37.1492620
 120.4120329  27.6568953  52.2324747 121.1219948  27.0162145  52.1911366
 120.3689638  27.9081848  53.1550928 128.4007108  34.5936307  55.1531326
 128.3419654  33.9095527  54.4861909 128.8026626  35.3355297  54.7011952
 119.1249263  24.6434171  54.0520387 118.5886620  24.1924910  54.7041983
 118.5365972  24.7780080  53.3090851 117.4197807  41.4098220  47.9465045
 117.6594405  42.0416745  48.6244064 116.5767003  41.0586260  48.2330405
 118.5351522  24.1022822  36.6146850 117.6580989  23.9811623  36.2509097
 119.0109275  23.3108901  36.3625739 128.4024515  32.5575890  53.3845306
 127.5151294  32.2201812  53.5071705 128.9723066  31.8258922  53.6214071
 110.0553662  28.8899982  46.7088357 110.7424702  28.5761712  46.1209373
 109.9001791  29.7941347  46.4355609 114.8588385  23.7790179  51.1373381
 114.7746573  23.1715848  50.4023791 114.0371091  24.2699197  51.1382877
 121.9325669  37.2177343  50.3506549 121.8595840  38.0232314  50.8625854
 121.4903062  37.4169309  49.5254571 121.7215448  36.4549113  43.8609371
 120.9382970  36.9970793  43.9547595 122.4208194  36.9723092  44.2603612
 125.0312098  22.2643742  46.5043576 125.5280798  21.5113705  46.1844646
 124.2599080  22.3008059  45.9386786 132.8841856  27.9684108  48.1461868
 132.8731732  28.8508823  47.7755801 132.0159235  27.6155659  47.9516405
 124.3924352  37.1164177  52.5064708 125.1052324  37.7511642  52.4340609
 123.9014381  37.2128043  51.6904710 126.1141879  31.0215430  44.0782000
 125.1798158  31.1416892  43.9086704 126.2918548  30.1187896  43.8142009
 121.6147067  24.4061125  46.2315261 121.2444855  23.8532166  46.9196166
 122.1106160  23.8019259  45.6790261 129.5014431  26.8632749  44.6132034
 129.9674883  27.6960740  44.5392336 129.9521931  26.3977730  45.3177292
 119.4436266  34.8658620  53.3270279 120.1445725  35.4995103  53.4799673
 118.9731381  35.2073352  52.5665918 127.5690662  33.2076570  41.6118186
 127.8450506  33.0933165  42.5212060 126.6995160  32.8094055  41.5730359
 127.4731093  19.2313336  48.6522935 126.5594173  19.4617563  48.8205142
 127.9024195  19.3151780  49.5036967 127.2437552  27.4203228  51.1522829
 126.5909002  27.6679135  50.4975282 127.6217932  26.6067366  50.8185306
 124.2044726  37.4562921  45.2550999 124.3867120  36.6384577  45.7178752
 125.0277712  37.6730613  44.8175889 124.5386891  36.3831106  42.5166048
 125.0674658  35.8723561  41.9036210 124.8015111  36.0673636  43.3811581
 123.2925125  28.1623039  57.6388866 122.6165762  28.0617168  58.3091241
 124.1152759  28.0062253  58.1024863 115.0403984  34.3994975  50.2601381
 115.6257421  33.6538663  50.3929286 114.8428822  34.7098932  51.1438045
 117.8942639  37.4346223  45.2763824 117.2253014  37.9192350  44.7927864
 117.7555509  37.6815443  46.1907202 109.6321639  26.9700576  48.9805825
 109.6705738  26.4364166  49.7742943 109.1261931  26.4435781  48.3616802
 122.0347908  39.4689966  51.8746482 122.5866216  39.6321588  52.6395567
 122.3754101  40.0594404  51.2026507 117.0112401  21.8165116  52.4768367
 117.0753727  22.6779947  52.0645765 116.9479521  21.2039118  51.7440725
 116.4864673  23.8888249  56.1241401 117.1136712  23.5065326  56.7378925
 115.6292592  23.6702451  56.4897094 126.8858782  34.2951224  57.7295137
 127.4298686  34.9081182  57.2350091 126.3045627  34.8530802  58.2462150
 113.2630216  25.6964678  42.0559756 113.5583657  24.7875356  42.0026810
 112.3618252  25.6752417  41.7340758 125.1716295  37.4171942  48.8610164
 125.0467434  36.6161682  48.3521110 125.8295386  37.9118135  48.3724134
 116.7924463  23.7720674  48.0387305 116.0711049  24.3856642  47.8994778
 117.5817719  24.3078439  47.9603951 127.2351203  35.2180962  50.4889714
 126.2881539  35.0986313  50.4168041 127.5833976  34.3303460  50.5715976
 119.5950777  21.1075101  54.3127956 120.1185178  21.3537397  55.0754266
 119.3763110  21.9395136  53.8931094 114.9918058  23.3778775  42.1799081
 114.6630764  22.4976154  41.9974187 115.3457428  23.3226444  43.0675470
 124.2397637  35.0133678  46.6894067 124.0922599  34.0850386  46.8701637
 125.0651130  35.0353769  46.2051142 118.1059881  23.6651745  42.5474559
 118.4455953  24.1937666  41.8253167 118.5532001  24.0032151  43.3233125
 127.8431758  35.8362237  47.7758939 128.7678306  35.6305098  47.6383391
 127.6747062  35.5878638  48.6848281 120.8003322  22.0488796  51.9977627
 120.4600142  21.2496609  52.3998307 120.0942328  22.3490507  51.4254460
 121.4519794  19.1338108  50.4504950 122.2745863  18.6598587  50.3283840
 121.6957857  19.9128592  50.9503636 120.0928028  22.1626367  40.7467852
 120.8136391  22.5407620  40.2431568 119.4693332  22.8815244  40.8502830
 124.2359151  22.8671516  41.6826184 124.4522765  23.7496154  41.3815012
 123.7553218  22.4757729  40.9531826 118.9758372  25.8257229  48.2596928
 118.8302953  26.1397532  49.1521210 118.4983576  26.4442129  47.7067827
 120.8354755  22.8159777  48.3077818 120.8216324  21.9200870  47.9710116
 121.5527183  22.8230441  48.9416104 122.6880886  23.2497117  50.3530945
 122.4298664  24.1714188  50.3515276 122.1565926  22.8527552  51.0431410
 127.6327075  36.3547904  43.1321031 127.8063952  35.7894327  42.3794883
 128.1255966  37.1548799  42.9500521 113.4504034  28.3662573  51.1984590
 112.9057503  29.1422381  51.3304864 114.3283384  28.7133378  51.0403711
 120.2391651  21.6974157  43.5765388 120.3607562  20.7690803  43.7756276
 119.9493693  21.7112843  42.6643704 123.1082842  19.3829068  46.7132108
 123.1304538  19.4468401  45.7584088 123.5250901  18.5433576  46.9072614
 133.4866466  29.1184327  44.7511331 133.9297612  28.3691652  44.3530454
 132.6092976  29.1094464  44.3685063 128.6202247  35.6714669  40.2317929
 129.3153152  36.2921361  40.4505244 128.9625397  34.8210020  40.5070307
 114.2370056  27.4932470  54.0914747 113.4951792  27.6415105  54.6779377
 113.9162801  27.7540735  53.2281496 130.5193670  33.1214374  41.7605260
 131.0444994  33.4601647  41.0354580 130.4316023  32.1861390  41.5768395
 122.1813719  37.0348448  53.8895137 122.4900845  36.7897595  54.7617836
 122.9789201  37.2395086  53.4014007 122.2034331  39.1886357  46.1200513
 121.7639321  38.6962736  46.8133370 122.9542448  38.6459325  45.8792588
 114.6826670  35.3797898  46.1225141 115.5084690  35.0801670  45.7423785
 114.3320722  34.6105521  46.5714930 119.6508203  34.7324367  48.1922815
 119.0288212  34.0695072  47.8925043 120.3213070  34.7585498  47.5096463
 112.8835275  33.2984225  47.0814075 112.0467183  32.8706399  46.8998076
 112.8558920  33.4916668  48.0184866 119.7232731  23.2106155  57.7855321
 119.7720886  24.0868277  57.4033090 120.2655245  22.6683548  57.2126964
 130.2087576  33.7547278  57.0656458 129.4183120  33.7371417  56.5260957
 129.9720931  34.2935572  57.8205494 130.3285451  30.6039744  54.3789186
 130.3783456  30.4389752  55.3204709 130.2199375  29.7367003  53.9887067
 119.2121710  33.2828290  41.6681275 119.3609830  33.9663754  41.0147948
 120.0188154  33.2633380  42.1830731 127.6189214  26.5870672  55.6948493
 128.5199077  26.4477137  55.4032491 127.6937188  26.7525127  56.6346671
 121.9532019  23.9637527  54.5401679 121.0835329  24.2571093  54.2684268
 122.1891499  24.5477972  55.2608943 131.8303648  33.0236686  54.6231208
 131.5388457  33.3866666  55.4594669 131.2175779  32.3103694  54.4444540
 133.0299331  30.5889566  47.1433778 133.8646222  31.0279370  47.3071339
 133.1658459  30.1128219  46.3242024 130.0790836  28.1469300  53.0911266
 130.5544958  28.3396947  52.2830117 129.1556402  28.2028486  52.8454650
 116.9674343  29.3093468  42.6742344 116.7220385  28.4055798  42.8722554
 117.1370258  29.3110618  41.7321822 124.6571053  20.1817144  52.0567100
 125.1752997  20.9178171  51.7313588 124.3026186  20.4881137  52.8913859
 116.2369991  25.0421825  40.1728506 115.5439236  25.1166180  39.5168542
 115.9921742  24.2782169  40.6950023 124.9083647  16.6017426  47.5767996
 125.1885401  15.9340616  48.2028423 125.6934254  16.7946522  47.0642660
 122.7117116  35.7776420  39.1393023 122.1391083  36.3966608  38.6863495
 123.2849909  36.3275782  39.6732945 128.7792505  25.0235060  51.3239572
 129.7309928  25.1233158  51.3451796 128.6095956  24.2313329  51.8337656
 126.8006885  22.1090644  51.5098972 126.2056817  22.3895656  50.8145461
 126.5156582  22.5984545  52.2815714 125.9314375  36.0613571  40.2701605
 126.8645049  35.9959132  40.4734481 125.8437588  36.8969837  39.8116138
 128.5602392  35.3779441  37.2305553 128.4816024  35.0439304  38.1241310
 129.3812059  35.8701209  37.2297025 131.2580583  28.2441180  50.4381871
 131.2256903  27.3057181  50.6241555 131.8681207  28.3225217  49.7047696
 123.0963914  27.1137233  36.4809075 124.0423019  26.9843441  36.5497493
 122.7178159  26.3751895  36.9578503 131.4075072  25.0352224  50.4840154
 130.8914120  24.2510680  50.2970083 132.2915020  24.7070940  50.6486674
 129.0685799  18.7793239  46.4435967 128.8710620  18.4708327  47.3279299
 129.6785504  19.5054878  46.5733897 137.0757133  29.3057187  49.5787908
 137.8060522  29.0442475  50.1395611 136.4664079  28.5685909  49.6189976
 135.1572430  27.4465050  50.1762359 134.4305594  27.3121015  49.5678851
 134.7419717  27.7541878  50.9819077 122.9802607  31.1654979  57.9409732
 123.9005616  31.3433578  58.1349779 122.9452190  30.2211025  57.7889431
 121.2806831  25.0387210  36.4163960 120.3738287  24.7420322  36.4926674
 121.5582812  24.7417028  35.5498247 112.1984772  26.3593573  46.8663007
 111.8787556  25.5058881  46.5737381 111.6518200  26.5742151  47.6220974
 115.9764679  29.0756014  50.5832513 116.1950689  30.0073122  50.6020547
 116.3890453  28.7163988  51.3687317 122.8968897  19.5824099  42.5708202
 122.0869625  19.2371184  42.9463448 123.5853314  19.2731643  43.1595813
 124.8259445  18.6602146  44.1932498 125.3790484  19.0797599  44.8522521
 125.0629532  17.7337894  44.2355454 120.8492544  24.6489220  59.9735262
 120.7489271  25.5983577  59.9047353 120.6314087  24.3207459  59.1011332
 120.0505616  21.8974145  36.5575940 120.9124780  22.2229043  36.8171757
 120.2355960  21.1105641  36.0449005 112.0673032  29.9796484  48.8356128
 111.3736503  29.5650437  48.3226083 112.8146023  30.0217021  48.2389547
 128.2038252  20.7702671  43.7011163 127.6236921  21.4287475  43.3189215
 127.9374185  19.9480016  43.2898580 126.6541819  20.1707729  45.9032483
 127.1541597  20.2824263  45.0946802 127.2977427  19.8668782  46.5433291
 120.7123815  28.0786359  58.7900324 120.2290896  28.8786719  58.9964213
 120.7984754  28.0894303  57.8367768 113.9809774  29.9114738  46.7122143
 113.9580462  30.0102425  45.7604026 114.2910411  30.7579889  47.0339309
 116.6397152  31.9690893  50.8268758 117.5940406  31.9374836  50.7598689
 116.4409676  31.5081517  51.6418984 117.2296534  30.5392009  53.3939555
 118.0489423  31.0336088  53.4174393 117.5033342  29.6223977  53.3657123
 126.9863130  22.9302762  42.7567511 126.0988985  23.2152412  42.5387706
 127.4017119  22.7696525  41.9094788 130.3377667  22.9549283  46.4721850
 131.1138057  23.4445735  46.7446467 129.6125801  23.3807337  46.9293720
 132.7750225  23.6676902  47.5295791 133.3694716  23.4272638  46.8189099
 132.8476809  22.9484032  48.1569327 114.9947381  37.5110513  47.8438956
 114.8601849  36.7510914  47.2776954 114.5779443  38.2351413  47.3767744
 126.1306344  32.6947436  36.8515531 126.8342194  32.8997439  37.4673187
 125.4068993  33.2624198  37.1164614 126.9604154  28.4457298  42.9717801
 126.9039356  28.9025849  42.1325433 127.5132497  27.6847982  42.7940644
 130.7708960  24.2347029  43.7967921 130.5145894  23.8343665  44.6276128
 130.1461828  24.9490823  43.6718060 135.0821298  26.9743103  46.3039212
 134.5220856  27.0436292  47.0770774 134.4764801  26.7984087  45.5838708
 118.1516507  38.4079830  48.0557398 118.0348891  39.3525262  47.9536089
 117.3308953  38.1053391  48.4443197 128.0393041  33.1329965  38.9013991
 128.8738645  32.7011164  38.7191466 127.8777384  32.9611979  39.8290885
 127.6938933  29.6362079  40.2670330 127.6387737  29.4706350  39.3258774
 127.0684989  30.3438112  40.4232520 112.4831448  24.8730143  54.0931752
 113.1290312  24.3629097  54.5818978 112.2748600  25.6098825  54.6675178
 125.0084841  31.9410991  59.5923893 125.8776000  32.1151643  59.2310528
 124.5291592  32.7605407  59.4699622 121.0035059  19.1370188  39.8455649
 120.9913729  20.0812028  40.0023920 121.8958481  18.9540333  39.5515110
 119.1771021  39.0608092  51.2713327 120.0798268  39.0931702  51.5879822
 118.9508391  38.1308543  51.2859662 120.9324623  37.8139078  47.9323405
 119.9820254  37.8140940  47.8187778 121.2357109  37.0671813  47.4159440
 124.8187178  15.7312964  44.1001585 124.0519574  15.1771451  44.2458268
 125.2297883  15.8034833  44.9615737 116.8228939  22.0197760  58.1906767
 117.6860401  21.6634565  58.4010091 116.2494350  21.6811655  58.8782171
 136.6677316  43.6499617  48.9969168 137.3055726  43.5306364  48.2932508
 136.5498159  44.5980461  49.0557120 133.4767023  43.6027045  48.9330692
 133.1385534  43.4868109  48.0451227 134.3456791  43.2018210  48.9131699
 129.3353838  45.4562521  44.9227583 128.7718703  45.3652458  44.1543871
 129.2206233  44.6362426  45.4030076 133.9586806  44.7561896  54.8916898
 133.9475446  44.3614695  54.0197402 134.1207445  44.0227969  55.4850669
 126.8818270  46.9513713  47.7611804 127.6739562  46.6104537  47.3458103
 127.1214920  47.0608688  48.6813957 134.9153397  49.1233489  40.2342048
 134.2641377  49.7087569  39.8476062 135.7097760  49.6539684  40.2937086
 128.8409024  46.2122626  40.6329183 129.6139900  45.6651613  40.4942058
 129.1934423  47.0766875  40.8443644 130.6794067  47.5399008  53.8396082
 130.3883933  48.4444639  53.7242748 131.3151051  47.5815536  54.5540151
 131.6050274  44.9175857  50.4297442 132.2013846  44.6931879  49.7154404
 131.6625245  44.1760602  51.0322889 131.1775302  42.3715292  38.2647633
 131.4300823  41.8496813  37.5031096 130.2399861  42.2081437  38.3674316
 136.2218585  41.3751070  46.0722376 137.0081674  40.9570494  45.7212793
 136.4857289  42.2797163  46.2404024 136.3928662  46.8123921  40.7711033
 135.7574495  46.8858547  41.4831937 136.0626069  47.4017520  40.0930112
 141.6227012  41.3126304  46.9755354 142.3552184  40.7425520  47.2093184
 140.8666368  40.9247904  47.4161860 130.8971591  44.2743398  40.4672007
 130.7807849  43.5988301  41.1353092 131.0073851  43.7875772  39.6504161
 133.2403132  43.7353545  44.1718697 132.8761339  43.2084166  44.8831618
 134.0970248  43.3452014  43.9985182 139.1452432  35.0247878  51.4349963
 138.8135757  35.8943289  51.2111178 138.5498046  34.7084162  52.1143993
 132.8808619  38.7643445  39.1680045 133.0483021  39.6323681  39.5350516
 132.6905788  38.9270726  38.2441334 135.6383952  47.2260424  50.8345876
 135.3384675  48.1285463  50.7261683 135.2935011  46.9592607  51.6867028
 129.0896433  43.6774221  46.8682580 128.1646930  43.5450435  47.0760272
 129.3380847  44.4568440  47.3652522 139.0381096  39.7442964  48.5143313
 138.1297973  39.6758372  48.2202074 138.9868691  40.2214909  49.3425138
 132.8597840  41.2201102  40.1526712 132.7397465  41.6658153  40.9912192
 132.1650428  41.5686420  39.5940250 126.4505244  43.3207494  47.7026369
 126.5797626  43.5741973  48.6165781 125.7702696  43.9135202  47.3831024
 130.6204732  53.9904744  43.8016843 130.5428761  54.9412569  43.8805324
 130.0166375  53.6450617  44.4591770 133.1121961  41.1632609  56.4578210
 132.3355295  41.7226530  56.4481075 133.7512524  41.6489392  56.9793080
 140.9042742  37.9459402  50.2921187 140.2617122  38.2391935  49.6460981
 140.3997671  37.8312323  51.0974383 138.5582906  41.6922575  40.9807046
 139.4700762  41.9249962  40.8054744 138.0492553  42.2759620  40.4182125
 131.3668334  43.9718063  56.0196177 132.1083018  44.5103107  55.7431001
 130.6605319  44.5984352  56.1767729 136.8423673  46.1147203  54.6168339
 137.2507029  45.6729614  53.8722971 136.1200935  45.5399831  54.8702532
 133.1954743  41.0519810  51.9901896 134.0415939  41.4759224  52.1336545
 133.1353381  40.3953434  52.6840459 137.1652488  46.6748394  48.3720628
 136.5361350  46.8394108  47.6696695 136.7778150  47.0890003  49.1431592
 141.0441720  47.6102832  45.7264991 140.3592758  47.9901733  45.1762025
 141.1285569  48.2198158  46.4596939 136.3454189  38.7124178  53.6483069
 136.1015121  39.4666239  53.1117345 136.6214119  39.0909526  54.4830316
 138.2992652  45.2562791  52.3260335 138.5109547  45.8994551  51.6494716
 138.2522400  44.4225107  51.8582265 135.9018880  37.8680611  49.2296907
 135.0403359  38.1661865  49.5213645 135.9281315  38.0851010  48.2977940
 132.7180450  46.4122802  45.6370713 133.1818795  46.6910505  44.8475335
 132.4537248  45.5106247  45.4543803 129.6104531  45.9594284  48.5750476
 130.1805888  46.3881552  47.9367960 130.2012643  45.6776868  49.2734662
 131.6549336  42.5345954  42.4460278 132.3573379  42.9866998  42.9134204
 131.3229964  41.8929773  43.0740171 130.1029697  41.1257711  56.8211487
 129.4728358  41.8073992  57.0546884 129.9965785  41.0140793  55.8764625
 125.3974670  40.7929507  47.7477411 124.6073724  41.0487036  47.2717522
 125.8885917  41.6077845  47.8529452 139.4138479  48.1334746  50.4982692
 140.2355923  47.7314933  50.2165374 139.4100882  48.0302980  51.4498808
 127.3489415  41.1574086  44.7060888 126.5520579  41.2692781  45.2244384
 127.1215007  41.4960739  43.8401779 133.1795083  47.6818790  52.6543403
 133.2439515  48.1439197  53.4901575 132.4706007  47.0516154  52.7825713
 123.6812373  41.0459997  50.1792402 123.9320411  41.9307007  50.4449978
 124.2171921  40.8664599  49.4067494 147.5044473  44.4773495  46.8467664
 146.7508181  43.9080893  46.6911668 147.6392014  44.4436159  47.7938298
 132.8943101  49.3486897  42.5222383 132.7588775  50.1938433  42.9507231
 133.4352913  49.5506175  41.7588317 129.3810440  35.4278477  59.1836738
 128.9877386  34.8744675  59.8584382 130.1976581  35.7389055  59.5743256
 126.3472498  46.8662335  43.0950308 126.8597019  47.6605585  43.2455873
 126.9995211  46.1688625  43.0283910 128.1567383  49.9828091  45.1773061
 128.3334011  50.9046056  44.9894045 128.9524216  49.6686511  45.6067441
 132.2978401  36.8436356  56.7756995 133.0388115  37.4443509  56.6961457
 132.5296324  36.1013994  56.2175037 127.4419739  42.0292723  55.0535224
 127.3273254  41.1277980  55.3542323 126.5864257  42.2756420  54.7020041
 134.5211577  49.9710464  56.6522725 134.0775431  49.1846842  56.3343630
 135.1828791  50.1589614  55.9866616 129.2798698  51.5006265  51.1783404
 129.8306123  51.3723328  50.4060398 128.4410174  51.8001154  50.8278296
 136.6192815  50.2513263  54.6804126 136.6011290  51.0722144  54.1884396
 137.5412735  50.1267339  54.9054268 133.0765869  47.7657393  55.5227635
 133.6094206  47.0045681  55.2926943 132.5479950  47.4731045  56.2651789
 136.2435564  32.8717459  51.0521276 135.8999834  33.7619101  50.9760387
 136.6114527  32.6819117  50.1890861 124.3121415  45.1950989  43.8709879
 125.1496637  45.6047998  43.6543586 124.4899682  44.2550432  43.8410073
 136.2085847  42.8626070  39.5593712 135.6932470  43.6330675  39.7982099
 135.9363155  42.1891206  40.1826773 133.7932958  37.7075771  44.6178950
 132.9374554  37.3182621  44.4384589 134.2059910  37.7867732  43.7578735
 135.3232105  35.2422114  49.0170510 134.8196900  35.2052249  48.2038315
 135.6162711  36.1514857  49.0767166 131.5674990  35.3260844  48.0236691
 132.4327987  35.1303652  47.6642581 131.6352499  35.0971196  48.9506048
 141.1820121  45.6158425  41.4946885 140.4049564  45.2769584  41.0502047
 141.8611602  45.6211048  40.8201850 135.9972150  40.7353162  41.3853493
 135.6922286  41.0499311  42.2363636 136.9502592  40.8134582  41.4280826
 134.4418582  46.8943385  43.0346447 133.9139943  46.1596145  42.7219684
 133.9406085  47.6718062  42.7886415 139.4211428  45.0892406  48.1513493
 138.7635102  45.7791667  48.2393622 140.2251827  45.4788838  48.4947479
 129.1737309  37.5563052  45.3953058 129.7481061  37.3338233  44.6626251
 129.7608292  37.6251746  46.1481660 138.2316887  43.4436779  46.2017435
 138.7448768  44.0766770  46.7039145 138.8818111  42.8437974  45.8360795
 129.5006897  39.5867513  39.4148944 128.6644209  39.9242199  39.7358218
 129.3611666  39.4516493  38.4776081 131.4759977  34.4304301  44.1228128
 130.8224390  34.1153318  43.4984742 131.4340451  33.8080041  44.8487951
 132.5871182  44.7123596  36.0381420 131.6798244  44.4812849  36.2372569
 133.0842214  43.9161215  36.2255401 135.4939261  53.4221103  38.9578106
 134.8200960  53.7252800  39.5663064 135.8805083  54.2250183  38.6083563
 134.7097718  40.9186234  48.4475775 133.7920279  41.1401181  48.2897463
 135.1257861  40.9932545  47.5887483 135.4932765  42.3177650  43.5778456
 136.2404584  42.8299047  43.2685578 135.7624355  41.9961703  44.4382849
 133.7659415  44.8136191  40.5605410 132.8570635  44.5295223  40.6577880
 133.7954499  45.2335269  39.7008717 138.9978683  48.4242780  44.3296577
 138.5441010  47.5833690  44.3861768 138.3672650  49.0604178  44.6671358
 137.9411602  39.3534766  45.5597245 137.2034359  38.8412152  45.8907487
 138.1938376  38.9135148  44.7480522 137.4411622  50.2619277  45.2646396
 137.7334597  50.8224334  44.5458761 137.9510243  50.5547838  46.0199555
 138.0423230  32.1311018  46.1539014 138.3482107  31.2708382  45.8664929
 138.7675835  32.7228638  45.9538008 124.3347586  42.5341705  44.5420612
 124.1371986  41.9411065  43.8171679 123.7794250  42.2293915  45.2596551
 132.3144310  42.4264811  46.6615205 132.3692919  41.4738648  46.5857682
 131.5035512  42.5824250  47.1456504 133.4635503  46.3544934  37.8993488
 133.0254933  45.6380793  37.4399126 134.2045944  46.5821049  37.3378580
 130.2536669  41.0441871  44.4205584 129.4404535  41.3436041  44.8270776
 130.7495664  40.6497560  45.1380066 132.4045247  51.0399628  46.3539849
 132.3621426  51.2660474  45.4248381 133.3207946  50.8063002  46.5025650
 135.8510881  41.5083695  53.2520478 136.2060269  41.7355168  54.1114944
 136.4983012  41.8402072  52.6297733 141.5808618  44.6302131  43.9569807
 141.4426517  44.8203727  43.0290996 141.2244837  45.3921514  44.4137858
 129.7450744  38.6160226  50.0366819 130.3850124  38.4748986  49.3389782
 128.9128275  38.3294740  49.6605421 141.6077998  46.6978658  48.9681079
 142.0414504  46.6053947  49.8164133 142.3209578  46.6736159  48.3301095
 130.5211048  47.9162657  46.1501811 131.3151647  47.4212977  45.9484386
 129.8102740  47.3880520  45.7869517 135.3405893  50.2980752  50.5014179
 135.3942915  50.8671689  51.2691895 134.4720674  50.4682637  50.1368216
 126.8293812  42.0605739  42.2261564 125.8991400  41.9990194  42.4431526
 126.9251284  41.5381691  41.4298205 126.7479361  38.5860551  44.8139806
 127.0086178  39.5005885  44.7048966 127.5696533  38.1184994  44.9636419
 128.2204286  39.9998309  51.9838630 128.8927339  39.7915671  51.3351279
 127.3934072  39.8020395  51.5443863 142.4693547  46.7402359  51.5013964
 142.6629437  47.6448169  51.7473239 142.3694165  46.2809778  52.3352549
 134.1229858  36.6260249  54.0004291 133.4757773  37.3250199  53.9068768
 134.8930873  37.0596393  54.3680539 137.5308656  46.8909102  57.0754845
 137.3794162  46.6619653  56.1584928 137.5213335  47.8479703  57.0886190
 134.2993992  44.4641014  52.0601111 135.2286052  44.6152174  51.8870078
 133.8785022  44.5525035  51.2049757 133.0982324  48.4891679  49.8299649
 132.9593410  48.1210463  50.7025587 132.3096920  49.0039318  49.6583606
 133.6930476  53.5900775  41.1725185 133.8682232  53.1188818  41.9870808
 133.0063264  54.2166541  41.4006446 134.6487539  47.8673282  47.2188486
 134.3137372  47.8274051  48.1146136 134.1491485  47.2017997  46.7458897
 128.6231783  43.2740912  52.7441068 128.4851581  42.5421150  53.3452607
 129.5336707  43.1849812  52.4625255 137.5846731  45.2129316  37.4925546
 136.9675902  44.4876144  37.3958599 137.1163219  45.9738676  37.1492620
 131.2514084  42.9860871  52.2324747 131.9613702  42.3454063  52.1911366
 131.2083392  43.2373766  53.1550928 139.2400863  49.9228224  55.1531326
 139.1813409  49.2387444  54.4861909 139.6420381  50.6647214  54.7011952
 129.9643018  39.9726089  54.0520387 129.4280375  39.5216827  54.7041983
 129.3759726  40.1071998  53.3090851 128.2591561  56.7390138  47.9465045
 128.4988160  57.3708662  48.6244064 127.4160758  56.3878178  48.2330405
 129.3745277  39.4314740  36.6146850 128.4974743  39.3103541  36.2509097
 129.8503030  38.6400818  36.3625739 139.2418270  47.8867808  53.3845306
 138.3545049  47.5493730  53.5071705 139.8116821  47.1550839  53.6214071
 120.8947417  44.2191900  46.7088357 121.5818457  43.9053630  46.1209373
 120.7395546  45.1233265  46.4355609 125.6982139  39.1082096  51.1373381
 125.6140328  38.5007766  50.4023791 124.8764845  39.5991115  51.1382877
 132.7719423  52.5469260  50.3506549 132.6989595  53.3524232  50.8625854
 132.3296816  52.7461226  49.5254571 132.5609203  51.7841031  43.8609371
 131.7776725  52.3262711  43.9547595 133.2601948  52.3015010  44.2603612
 135.8705853  37.5935660  46.5043576 136.3674552  36.8405622  46.1844646
 135.0992834  37.6299977  45.9386786 143.7235610  43.2976026  48.1461868
 143.7125487  44.1800741  47.7755801 142.8552990  42.9447576  47.9516405
 135.2318107  52.4456095  52.5064708 135.9446079  53.0803559  52.4340609
 134.7408135  52.5419961  51.6904710 136.9535634  46.3507347  44.0782000
 136.0191912  46.4708810  43.9086704 137.1312302  45.4479814  43.8142009
 132.4540822  39.7353043  46.2315261 132.0838609  39.1824083  46.9196166
 132.9499914  39.1311176  45.6790261 140.3408185  42.1924666  44.6132034
 140.8068637  43.0252658  44.5392336 140.7915685  41.7269648  45.3177292
 130.2830020  50.1950538  53.3270279 130.9839480  50.8287021  53.4799673
 129.8125135  50.5365270  52.5665918 138.4084416  48.5368488  41.6118186
 138.6844260  48.4225082  42.5212060 137.5388915  48.1385973  41.5730359
 138.3124848  34.5605253  48.6522935 137.3987928  34.7909480  48.8205142
 138.7417949  34.6443698  49.5036967 138.0831306  42.7495145  51.1522829
 137.4302756  42.9971053  50.4975282 138.4611686  41.9359284  50.8185306
 135.0438480  52.7854839  45.2550999 135.2260875  51.9676495  45.7178752
 135.8671466  53.0022531  44.8175889 135.3780646  51.7123024  42.5166048
 135.9068412  51.2015478  41.9036210 135.6408865  51.3965554  43.3811581
 134.1318879  43.4914956  57.6388866 133.4559516  43.3909086  58.3091241
 134.9546513  43.3354170  58.1024863 125.8797738  49.7286893  50.2601381
 126.4651175  48.9830581  50.3929286 125.6822577  50.0390850  51.1438045
 128.7336394  52.7638140  45.2763824 128.0646769  53.2484268  44.7927864
 128.5949263  53.0107361  46.1907202 120.4715393  42.2992493  48.9805825
 120.5099493  41.7656084  49.7742943 119.9655686  41.7727699  48.3616802
 132.8741662  54.7981884  51.8746482 133.4259970  54.9613505  52.6395567
 133.2147856  55.3886322  51.2026507 127.8506155  37.1457034  52.4768367
 127.9147482  38.0071865  52.0645765 127.7873276  36.5331035  51.7440725
 127.3258428  39.2180166  56.1241401 127.9530467  38.8357244  56.7378925
 126.4686347  38.9994368  56.4897094 137.7252536  49.6243141  57.7295137
 138.2692440  50.2373100  57.2350091 137.1439381  50.1822720  58.2462150
 124.1023971  41.0256595  42.0559756 124.3977412  40.1167274  42.0026810
 123.2012006  41.0044335  41.7340758 136.0110049  52.7463859  48.8610164
 135.8861189  51.9453599  48.3521110 136.6689141  53.2410053  48.3724134
 127.6318218  39.1012592  48.0387305 126.9104803  39.7148560  47.8994778
 128.4211473  39.6370357  47.9603951 138.0744958  50.5472880  50.4889714
 137.1275293  50.4278231  50.4168041 138.4227731  49.6595378  50.5715976
 130.4344531  36.4367018  54.3127956 130.9578933  36.6829315  55.0754266
 130.2156864  37.2687053  53.8931094 125.8311812  38.7070693  42.1799081
 125.5024518  37.8268072  41.9974187 126.1851183  38.6518362  43.0675470
 135.0791391  50.3425596  46.6894067 134.9316354  49.4142303  46.8701637
 135.9044885  50.3645686  46.2051142 128.9453635  38.9943663  42.5474559
 129.2849708  39.5229584  41.8253167 129.3925756  39.3324069  43.3233125
 138.6825513  51.1654154  47.7758939 139.6072060  50.9597016  47.6383391
 138.5140816  50.9170556  48.6848281 131.6397076  37.3780714  51.9977627
 131.2993897  36.5788527  52.3998307 130.9336082  37.6782424  51.4254460
 132.2913548  34.4630026  50.4504950 133.1139617  33.9890504  50.3283840
 132.5351612  35.2420510  50.9503636 130.9321783  37.4918284  40.7467852
 131.6530145  37.8699537  40.2431568 130.3087087  38.2107161  40.8502830
 135.0752905  38.1963433  41.6826184 135.2916520  39.0788071  41.3815012
 134.5946973  37.8049647  40.9531826 129.8152127  41.1549147  48.2596928
 129.6696708  41.4689450  49.1521210 129.3377330  41.7734047  47.7067827
 131.6748510  38.1451695  48.3077818 131.6610078  37.2492788  47.9710116
 132.3920938  38.1522358  48.9416104 133.5274640  38.5789035  50.3530945
 133.2692418  39.5006105  50.3515276 132.9959681  38.1819469  51.0431410
 138.4720829  51.6839822  43.1321031 138.6457707  51.1186244  42.3794883
 138.9649720  52.4840717  42.9500521 124.2897789  43.6954491  51.1984590
 123.7451257  44.4714299  51.3304864 125.1677139  44.0425296  51.0403711
 131.0785406  37.0266075  43.5765388 131.2001317  36.0982721  43.7756276
 130.7887448  37.0404761  42.6643704 133.9476596  34.7120985  46.7132108
 133.9698293  34.7760318  45.7584088 134.3644655  33.8725494  46.9072614
 144.3260220  44.4476245  44.7511331 144.7691366  43.6983570  44.3530454
 143.4486731  44.4386381  44.3685063 139.4596002  51.0006586  40.2317929
 140.1546906  51.6213279  40.4505244 139.8019152  50.1501938  40.5070307
 125.0763811  42.8224387  54.0914747 124.3345547  42.9707023  54.6779377
 124.7556555  43.0832653  53.2281496 141.3587425  48.4506292  41.7605260
 141.8838749  48.7893565  41.0354580 141.2709777  47.5153307  41.5768395
 133.0207473  52.3640366  53.8895137 133.3294600  52.1189512  54.7617836
 133.8182955  52.5687004  53.4014007 133.0428086  54.5178275  46.1200513
 132.6033076  54.0254654  46.8133370 133.7936202  53.9751243  45.8792588
 125.5220424  50.7089816  46.1225141 126.3478444  50.4093588  45.7423785
 125.1714476  49.9397438  46.5714930 130.4901958  50.0616284  48.1922815
 129.8681967  49.3986989  47.8925043 131.1606825  50.0877416  47.5096463
 123.7229030  48.6276142  47.0814075 122.8860938  48.1998317  46.8998076
 123.6952675  48.8208586  48.0184866 130.5626485  38.5398072  57.7855321
 130.6114641  39.4160195  57.4033090 131.1048999  37.9975465  57.2126964
 141.0481331  49.0839196  57.0656458 140.2576875  49.0663334  56.5260957
 140.8114685  49.6227489  57.8205494 141.1679206  45.9331662  54.3789186
 141.2177211  45.7681669  55.3204709 141.0593129  45.0658921  53.9887067
 130.0515465  48.6120208  41.6681275 130.2003585  49.2955672  41.0147948
 130.8581908  48.5925298  42.1830731 138.4582968  41.9162590  55.6948493
 139.3592831  41.7769055  55.4032491 138.5330943  42.0817045  56.6346671
 132.7925774  39.2929445  54.5401679 131.9229083  39.5863011  54.2684268
 133.0285254  39.8769890  55.2608943 142.6697403  48.3528603  54.6231208
 142.3782211  48.7158584  55.4594669 142.0569534  47.6395612  54.4444540
 143.8693085  45.9181483  47.1433778 144.7039976  46.3571287  47.3071339
 144.0052214  45.4420136  46.3242024 140.9184591  43.4761218  53.0911266
 141.3938713  43.6688864  52.2830117 139.9950156  43.5320404  52.8454650
 127.8068098  44.6385385  42.6742344 127.5614139  43.7347715  42.8722554
 127.9764012  44.6402536  41.7321822 135.4964807  35.5109062  52.0567100
 136.0146751  36.2470089  51.7313588 135.1419940  35.8173055  52.8913859
 127.0763745  40.3713743  40.1728506 126.3832990  40.4458098  39.5168542
 126.8315497  39.6074086  40.6950023 135.7477402  31.9309344  47.5767996
 136.0279155  31.2632533  48.2028423 136.5328009  32.1238440  47.0642660
 133.5510870  51.1068338  39.1393023 132.9784837  51.7258525  38.6863495
 134.1243664  51.6567700  39.6732945 139.6186260  40.3526978  51.3239572
 140.5703683  40.4525076  51.3451796 139.4489710  39.5605247  51.8337656
 137.6400639  37.4382561  51.5098972 137.0450572  37.7187574  50.8145461
 137.3550336  37.9276462  52.2815714 136.7708130  51.3905488  40.2701605
 137.7038803  51.3251050  40.4734481 136.6831343  52.2261755  39.8116138
 139.3996147  50.7071359  37.2305553 139.3209778  50.3731222  38.1241310
 140.2205813  51.1993126  37.2297025 142.0974338  43.5733098  50.4381871
 142.0650658  42.6349099  50.6241555 142.7074961  43.6517135  49.7047696
 133.9357669  42.4429151  36.4809075 134.8816773  42.3135359  36.5497493
 133.5571914  41.7043813  36.9578503 142.2468826  40.3644141  50.4840154
 141.7307875  39.5802598  50.2970083 143.1308775  40.0362858  50.6486674
 139.9079553  34.1085157  46.4435967 139.7104374  33.8000245  47.3279299
 140.5179259  34.8346796  46.5733897 145.9966185  42.7756967  50.1762359
 145.2699348  42.6412932  49.5678851 145.5813472  43.0833796  50.9819077
 133.8196361  46.4946897  57.9409732 134.7399371  46.6725496  58.1349779
 133.7845944  45.5502942  57.7889431 132.1200586  40.3679127  36.4163960
 131.2132041  40.0712240  36.4926674 132.3976567  40.0708945  35.5498247
 123.0378526  41.6885491  46.8663007 122.7181310  40.8350799  46.5737381
 122.4911954  41.9034069  47.6220974 126.8158434  44.4047932  50.5832513
 127.0344443  45.3365039  50.6020547 127.2284207  44.0455906  51.3687317
 133.7362651  34.9116017  42.5708202 132.9263380  34.5663102  42.9463448
 134.4247068  34.6023561  43.1595813 135.6653200  33.9894064  44.1932498
 136.2184238  34.4089517  44.8522521 135.9023286  33.0629812  44.2355454
 131.6886299  39.9781137  59.9735262 131.5883026  40.9275494  59.9047353
 131.4707841  39.6499376  59.1011332 130.8899370  37.2266062  36.5575940
 131.7518534  37.5520961  36.8171757 131.0749715  36.4397558  36.0449005
 122.9066786  45.3088402  48.8356128 122.2130258  44.8942355  48.3226083
 123.6539777  45.3508939  48.2389547 139.0432007  36.0994589  43.7011163
 138.4630676  36.7579393  43.3189215 138.7767940  35.2771933  43.2898580
 137.4935573  35.4999647  45.9032483 137.9935352  35.6116181  45.0946802
 138.1371181  35.1960699  46.5433291 131.5517569  43.4078276  58.7900324
 131.0684651  44.2078636  58.9964213 131.6378508  43.4186221  57.8367768
 124.8203529  45.2406656  46.7122143 124.7974217  45.3394343  45.7604026
 125.1304165  46.0871807  47.0339309 127.4790907  47.2982811  50.8268758
 128.4334160  47.2666753  50.7598689 127.2803430  46.8373435  51.6418984
 128.0690289  45.8683927  53.3939555 128.8883178  46.3628006  53.4174393
 128.3427096  44.9515895  53.3657123 137.8256885  38.2594679  42.7567511
 136.9382740  38.5444330  42.5387706 138.2410874  38.0988443  41.9094788
 141.1771421  38.2841200  46.4721850 141.9531811  38.7737653  46.7446467
 140.4519555  38.7099254  46.9293720 143.6143980  38.9968819  47.5295791
 144.2088470  38.7564555  46.8189099 143.6870563  38.2775950  48.1569327
 125.8341135  52.8402430  47.8438956 125.6995603  52.0802831  47.2776954
 125.4173198  53.5643330  47.3767744 136.9700098  48.0239354  36.8515531
 137.6735948  48.2289356  37.4673187 136.2462747  48.5916116  37.1164614
 137.7997909  43.7749215  42.9717801 137.7433110  44.2317767  42.1325433
 138.3526251  43.0139900  42.7940644 141.6102715  39.5638947  43.7967921
 141.3539649  39.1635583  44.6276128 140.9855583  40.2782741  43.6718060
 145.9215052  42.3035020  46.3039212 145.3614610  42.3728210  47.0770774
 145.3158556  42.1276005  45.5838708 128.9910261  53.7371747  48.0557398
 128.8742645  54.6817180  47.9536089 128.1702707  53.4345309  48.4443197
 138.8786796  48.4621883  38.9013991 139.7132400  48.0303082  38.7191466
 138.7171139  48.2903897  39.8290885 138.5332688  44.9653996  40.2670330
 138.4781492  44.7998268  39.3258774 137.9078743  45.6730029  40.4232520
 123.3225203  40.2022061  54.0931752 123.9684067  39.6921015  54.5818978
 123.1142354  40.9390742  54.6675178 135.8478595  47.2702908  59.5923893
 136.7169755  47.4443561  59.2310528 135.3685347  48.0897325  59.4699622
 131.8428813  34.4662105  39.8455649 131.8307483  35.4103945  40.0023920
 132.7352235  34.2832251  39.5515110 130.0164775  54.3900009  51.2713327
 130.9192022  54.4223620  51.5879822 129.7902145  53.4600460  51.2859662
 131.7718377  53.1430996  47.9323405 130.8214008  53.1432857  47.8187778
 132.0750863  52.3963730  47.4159440 135.6580933  31.0604882  44.1001585
 134.8913329  30.5063369  44.2458268 136.0691638  31.1326751  44.9615737
 127.6622694  37.3489678  58.1906767 128.5254155  36.9926483  58.4010091
 127.0888105  37.0103573  58.8782171 144.3160777  58.9318962  48.9330692
 143.9779289  58.8160027  48.0451227 145.1850545  58.5310127  48.9131699
 140.1747593  60.7854439  44.9227583 139.6112458  60.6944376  44.1543871
 140.0599988  59.9654343  45.4030076 144.7980560  60.0853814  54.8916898
 144.7869201  59.6906612  54.0197402 144.9601200  59.3519887  55.4850669
 137.7212025  62.2805630  47.7611804 138.5133317  61.9396455  47.3458103
 137.9608675  62.3900605  48.6813957 145.7547152  64.4525406  40.2342048
 145.1035131  65.0379487  39.8476062 146.5491514  64.9831601  40.2937086
 139.6802779  61.5414544  40.6329183 140.4533655  60.9943531  40.4942058
 140.0328178  62.4058793  40.8443644 141.5187821  62.8690926  53.8396082
 141.2277687  63.7736557  53.7242748 142.1544806  62.9107453  54.5540151
 142.4444028  60.2467774  50.4297442 143.0407600  60.0223797  49.7154404
 142.5019000  59.5052520  51.0322889 142.0169057  57.7007210  38.2647633
 142.2694577  57.1788731  37.5031096 141.0793616  57.5373355  38.3674316
 147.0612339  56.7042988  46.0722376 147.8475429  56.2862411  45.7212793
 147.3251044  57.6089080  46.2404024 147.2322417  62.1415838  40.7711033
 146.5968250  62.2150465  41.4831937 146.9019823  62.7309437  40.0930112
 141.7365345  59.6035316  40.4672007 141.6201603  58.9280219  41.1353092
 141.8467605  59.1167690  39.6504161 144.0796886  59.0645463  44.1718697
 143.7155093  58.5376084  44.8831618 144.9364002  58.6743932  43.9985182
 143.7202373  54.0935362  39.1680045 143.8876775  54.9615599  39.5350516
 143.5299542  54.2562644  38.2441334 146.4777706  62.5552341  50.8345876
 146.1778429  63.4577380  50.7261683 146.1328766  62.2884525  51.6867028
 139.9290188  59.0066138  46.8682580 139.0040684  58.8742352  47.0760272
 140.1774601  59.7860357  47.3652522 143.6991594  56.5493020  40.1526712
 143.5791219  56.9950071  40.9912192 143.0044182  56.8978338  39.5940250
 137.2898999  58.6499412  47.7026369 137.4191380  58.9033891  48.6165781
 136.6096450  59.2427120  47.3831024 141.4598486  69.3196662  43.8016843
 141.3822516  70.2704487  43.8805324 140.8560130  68.9742534  44.4591770
 143.9515716  56.4924527  56.4578210 143.1749050  57.0518447  56.4481075
 144.5906279  56.9781310  56.9793080 142.2062088  59.3009981  56.0196177
 142.9476773  59.8395024  55.7431001 141.4999074  59.9276269  56.1767729
 144.0348498  56.3811728  51.9901896 144.8809693  56.8051141  52.1336545
 143.9747136  55.7245352  52.6840459 147.1847943  54.0416096  53.6483069
 146.9408875  54.7958157  53.1117345 147.4607874  54.4201444  54.4830316
 146.7412635  53.1972529  49.2296907 145.8797114  53.4953783  49.5213645
 146.7675070  53.4142928  48.2977940 143.5574204  61.7414720  45.6370713
 144.0212550  62.0202423  44.8475335 143.2931002  60.8398164  45.4543803
 140.4498285  61.2886201  48.5750476 141.0199642  61.7173470  47.9367960
 141.0406397  61.0068786  49.2734662 142.4943090  57.8637872  42.4460278
 143.1967134  58.3158916  42.9134204 142.1623719  57.2221691  43.0740171
 140.9423452  56.4549629  56.8211487 140.3122113  57.1365910  57.0546884
 140.8359540  56.3432710  55.8764625 136.2368424  56.1221425  47.7477411
 135.4467478  56.3778953  47.2717522 136.7279672  56.9369763  47.8529452
 138.1883170  56.4866004  44.7060888 137.3914333  56.5984698  45.2244384
 137.9608762  56.8252656  43.8401779 144.0188837  63.0110707  52.6543403
 144.0833270  63.4731114  53.4901575 143.3099761  62.3808072  52.7825713
 134.5206127  56.3751915  50.1792402 134.7714166  57.2598925  50.4449978
 135.0565676  56.1956517  49.4067494 143.7336855  64.6778815  42.5222383
 143.5982530  65.5230350  42.9507231 144.2746668  64.8798092  41.7588317
 140.2204195  50.7570395  59.1836738 139.8271140  50.2036593  59.8584382
 141.0370335  51.0680973  59.5743256 137.1866252  62.1954253  43.0950308
 137.6990773  62.9897503  43.2455873 137.8388965  61.4980543  43.0283910
 138.9961137  65.3120009  45.1773061 139.1727765  66.2337974  44.9894045
 139.7917971  64.9978428  45.6067441 143.1372156  52.1728274  56.7756995
 143.8781869  52.7735427  56.6961457 143.3690078  51.4305911  56.2175037
 138.2813494  57.3584641  55.0535224 138.1667009  56.4569898  55.3542323
 137.4258011  57.6048338  54.7020041 145.3605331  65.3002381  56.6522725
 144.9169186  64.5138760  56.3343630 146.0222545  65.4881532  55.9866616
 140.1192453  66.8298183  51.1783404 140.6699878  66.7015246  50.4060398
 139.2803928  67.1293072  50.8278296 143.9159624  63.0949311  55.5227635
 144.4487960  62.3337599  55.2926943 143.3873705  62.8022962  56.2651789
 147.0829319  48.2009377  51.0521276 146.7393588  49.0911018  50.9760387
 147.4508281  48.0111034  50.1890861 135.1515169  60.5242907  43.8709879
 135.9890391  60.9339915  43.6543586 135.3293437  59.5842349  43.8410073
 147.0479601  58.1917988  39.5593712 146.5326225  58.9622592  39.7982099
 146.7756910  57.5183124  40.1826773 144.6326712  53.0367688  44.6178950
 143.7768309  52.6474539  44.4384589 145.0453664  53.1159649  43.7578735
 146.1625859  50.5714032  49.0170510 145.6590655  50.5344167  48.2038315
 146.4556466  51.4806774  49.0767166 142.4068745  50.6552761  48.0236691
 143.2721742  50.4595570  47.6642581 142.4746254  50.4263113  48.9506048
 146.8365904  56.0645080  41.3853493 146.5316040  56.3791229  42.2363636
 147.7896347  56.1426500  41.4280826 145.2812336  62.2235303  43.0346447
 144.7533698  61.4888063  42.7219684 144.7799839  63.0009979  42.7886415
 140.0131064  52.8854969  45.3953058 140.5874816  52.6630151  44.6626251
 140.6002046  52.9543664  46.1481660 140.3400651  54.9159430  39.4148944
 139.5037963  55.2534117  39.7358218 140.2005421  54.7808410  38.4776081
 142.3153732  49.7596218  44.1228128 141.6618144  49.4445235  43.4984742
 142.2734206  49.1371959  44.8487951 143.4264937  60.0415513  36.0381420
 142.5191998  59.8104767  36.2372569 143.9235969  59.2453133  36.2255401
 146.3333015  68.7513021  38.9578106 145.6594714  69.0544717  39.5663064
 146.7198837  69.5542101  38.6083563 145.5491472  56.2478152  48.4475775
 144.6314033  56.4693099  48.2897463 145.9651616  56.3224462  47.5887483
 146.3326520  57.6469567  43.5778456 147.0798339  58.1590965  43.2685578
 146.6018109  57.3253620  44.4382849 144.6053170  60.1428108  40.5605410
 143.6964389  59.8587141  40.6577880 144.6348254  60.5627187  39.7008717
 135.1741340  57.8633622  44.5420612 134.9765740  57.2702983  43.8171679
 134.6188004  57.5585833  45.2596551 143.1538064  57.7556729  46.6615205
 143.2086674  56.8030565  46.5857682 142.3429266  57.9116168  47.1456504
 144.3029258  61.6836852  37.8993488 143.8648688  60.9672711  37.4399126
 145.0439699  61.9112967  37.3378580 141.0930424  56.3733789  44.4205584
 140.2798289  56.6727959  44.8270776 141.5889418  55.9789477  45.1380066
 143.2439002  66.3691545  46.3539849 143.2015181  66.5952392  45.4248381
 144.1601701  66.1354920  46.5025650 146.6904636  56.8375613  53.2520478
 147.0454023  57.0647086  54.1114944 147.3376767  57.1693990  52.6297733
 140.5844499  53.9452144  50.0366819 141.2243878  53.8040903  49.3389782
 139.7522029  53.6586657  49.6605421 141.3604803  63.2454575  46.1501811
 142.1545401  62.7504895  45.9484386 140.6496495  62.7172438  45.7869517
 146.1799647  65.6272670  50.5014179 146.2336669  66.1963606  51.2691895
 145.3114428  65.7974555  50.1368216 137.6687566  57.3897656  42.2261564
 136.7385154  57.3282112  42.4431526 137.7645038  56.8673609  41.4298205
 137.5873115  53.9152469  44.8139806 137.8479932  54.8297802  44.7048966
 138.4090287  53.4476912  44.9636419 139.0598040  55.3290226  51.9838630
 139.7321094  55.1207588  51.3351279 138.2327827  55.1312312  51.5443863
 144.9623612  51.9552167  54.0004291 144.3151527  52.6542117  53.9068768
 145.7324628  52.3888311  54.3680539 145.1387747  59.7932932  52.0601111
 146.0679807  59.9444092  51.8870078 144.7178777  59.8816953  51.2049757
 143.9376079  63.8183596  49.8299649 143.7987164  63.4502381  50.7025587
 143.1490675  64.3331236  49.6583606 144.5324231  68.9192693  41.1725185
 144.7075986  68.4480736  41.9870808 143.8457019  69.5458459  41.4006446
 145.4881294  63.1965199  47.2188486 145.1531126  63.1565969  48.1146136
 144.9885239  62.5309915  46.7458897 139.4625538  58.6032829  52.7441068
 139.3245336  57.8713068  53.3452607 140.3730461  58.5141729  52.4625255
 142.0907838  58.3152789  52.2324747 142.8007457  57.6745981  52.1911366
 142.0477147  58.5665683  53.1550928 140.8036772  55.3018006  54.0520387
 140.2674129  54.8508745  54.7041983 140.2153481  55.4363915  53.3090851
 139.0985316  72.0682056  47.9465045 139.3381914  72.7000580  48.6244064
 138.2554512  71.7170096  48.2330405 140.2139031  54.7606658  36.6146850
 139.3368498  54.6395459  36.2509097 140.6896784  53.9692736  36.3625739
 131.7341171  59.5483818  46.7088357 132.4212211  59.2345548  46.1209373
 131.5789300  60.4525182  46.4355609 136.5375894  54.4374014  51.1373381
 136.4534082  53.8299684  50.4023791 135.7158600  54.9283032  51.1382877
 143.6113178  67.8761178  50.3506549 143.5383349  68.6816150  50.8625854
 143.1690571  68.0753144  49.5254571 143.4002957  67.1132948  43.8609371
 142.6170479  67.6554628  43.9547595 144.0995703  67.6306928  44.2603612
 146.7099607  52.9227578  46.5043576 147.2068307  52.1697540  46.1844646
 145.9386589  52.9591894  45.9386786 146.0711861  67.7748012  52.5064708
 146.7839833  68.4095477  52.4340609 145.5801890  67.8711878  51.6904710
 143.2934576  55.0644961  46.2315261 142.9232364  54.5116001  46.9196166
 143.7893669  54.4603094  45.6790261 141.1223775  65.5242456  53.3270279
 141.8233234  66.1578939  53.4799673 140.6518890  65.8657187  52.5665918
 145.8832235  68.1146756  45.2550999 146.0654629  67.2968412  45.7178752
 146.7065221  68.3314449  44.8175889 146.2174400  67.0414941  42.5166048
 146.7462167  66.5307396  41.9036210 146.4802620  66.7257472  43.3811581
 144.9712634  58.8206874  57.6388866 144.2953271  58.7201003  58.3091241
 145.7940268  58.6646088  58.1024863 136.7191493  65.0578811  50.2601381
 137.3044930  64.3122499  50.3929286 136.5216331  65.3682767  51.1438045
 139.5730148  68.0930058  45.2763824 138.9040523  68.5776186  44.7927864
 139.4343018  68.3399279  46.1907202 131.3109148  57.6284411  48.9805825
 131.3493247  57.0948002  49.7742943 130.8049440  57.1019616  48.3616802
 143.7135417  70.1273802  51.8746482 144.2653725  70.2905423  52.6395567
 144.0541610  70.7178239  51.2026507 138.6899910  52.4748951  52.4768367
 138.7541236  53.3363782  52.0645765 138.6267030  51.8622953  51.7440725
 138.1652182  54.5472084  56.1241401 138.7924221  54.1649161  56.7378925
 137.3080101  54.3286286  56.4897094 134.9417725  56.3548513  42.0559756
 135.2371166  55.4459191  42.0026810 134.0405761  56.3336253  41.7340758
 146.8503804  68.0755777  48.8610164 146.7254943  67.2745517  48.3521110
 147.5082895  68.5701971  48.3724134 138.4711972  54.4304510  48.0387305
 137.7498558  55.0440477  47.8994778 139.2605228  54.9662274  47.9603951
 141.2738286  51.7658936  54.3127956 141.7972687  52.0121233  55.0754266
 141.0550619  52.5978971  53.8931094 136.6705567  54.0362611  42.1799081
 136.3418273  53.1559990  41.9974187 137.0244937  53.9810279  43.0675470
 145.9185146  65.6717513  46.6894067 145.7710108  64.7434221  46.8701637
 146.7438639  65.6937604  46.2051142 139.7847390  54.3235581  42.5474559
 140.1243462  54.8521502  41.8253167 140.2319510  54.6615987  43.3233125
 142.4790831  52.7072631  51.9977627 142.1387651  51.9080444  52.3998307
 141.7729837  53.0074342  51.4254460 143.1307303  49.7921944  50.4504950
 143.9533372  49.3182422  50.3283840 143.3745366  50.5712427  50.9503636
 141.7715537  52.8210202  40.7467852 142.4923900  53.1991455  40.2431568
 141.1480841  53.5399079  40.8502830 145.9146660  53.5255351  41.6826184
 146.1310274  54.4079989  41.3815012 145.4340727  53.1341565  40.9531826
 140.6545881  56.4841064  48.2596928 140.5090462  56.7981367  49.1521210
 140.1771085  57.1025965  47.7067827 142.5142264  53.4743612  48.3077818
 142.5003833  52.5784706  47.9710116 143.2314692  53.4814276  48.9416104
 144.3668395  53.9080953  50.3530945 144.1086173  54.8298023  50.3515276
 143.8353435  53.5111387  51.0431410 135.1291543  59.0246409  51.1984590
 134.5845012  59.8006217  51.3304864 136.0070893  59.3717213  51.0403711
 141.9179160  52.3557993  43.5765388 142.0395071  51.4274639  43.7756276
 141.6281202  52.3696679  42.6643704 144.7870350  50.0412903  46.7132108
 144.8092047  50.1052236  45.7584088 145.2038409  49.2017412  46.9072614
 135.9157565  58.1516305  54.0914747 135.1739301  58.2998940  54.6779377
 135.5950310  58.4124571  53.2281496 143.8601228  67.6932283  53.8895137
 144.1688354  67.4481430  54.7617836 144.6576710  67.8978922  53.4014007
 143.8821840  69.8470193  46.1200513 143.4426830  69.3546572  46.8133370
 144.6329957  69.3043161  45.8792588 136.3614179  66.0381734  46.1225141
 137.1872199  65.7385506  45.7423785 136.0108231  65.2689356  46.5714930
 141.3295712  65.3908202  48.1922815 140.7075721  64.7278907  47.8925043
 142.0000579  65.4169334  47.5096463 134.5622784  63.9568060  47.0814075
 133.7254692  63.5290235  46.8998076 134.5346429  64.1500504  48.0184866
 141.4020240  53.8689990  57.7855321 141.4508395  54.7452113  57.4033090
 141.9442754  53.3267383  57.2126964 140.8909219  63.9412125  41.6681275
 141.0397339  64.6247590  41.0147948 141.6975663  63.9217215  42.1830731
 143.6319528  54.6221362  54.5401679 142.7622837  54.9154928  54.2684268
 143.8679008  55.2061807  55.2608943 138.6461852  59.9677303  42.6742344
 138.4007894  59.0639633  42.8722554 138.8157767  59.9694453  41.7321822
 146.3358562  50.8400979  52.0567100 146.8540506  51.5762006  51.7313588
 145.9813695  51.1464973  52.8913859 137.9157500  55.7005660  40.1728506
 137.2226745  55.7750015  39.5168542 137.6709251  54.9366004  40.6950023
 146.5871156  47.2601262  47.5767996 146.8672910  46.5924451  48.2028423
 147.3721763  47.4530357  47.0642660 144.3904625  66.4360256  39.1393023
 143.8178592  67.0550443  38.6863495 144.9637418  66.9859617  39.6732945
 144.7751423  57.7721068  36.4809075 145.7210528  57.6427277  36.5497493
 144.3965668  57.0335730  36.9578503 144.6590116  61.8238815  57.9409732
 145.5793125  62.0017414  58.1349779 144.6239699  60.8794860  57.7889431
 142.9594340  55.6971045  36.4163960 142.0525796  55.4004158  36.4926674
 143.2370321  55.4000863  35.5498247 133.8772281  57.0177408  46.8663007
 133.5575065  56.1642716  46.5737381 133.3305709  57.2325986  47.6220974
 137.6552188  59.7339849  50.5832513 137.8738198  60.6656957  50.6020547
 138.0677962  59.3747824  51.3687317 144.5756406  50.2407935  42.5708202
 143.7657134  49.8955020  42.9463448 145.2640823  49.9315478  43.1595813
 146.5046954  49.3185981  44.1932498 147.0577993  49.7381435  44.8522521
 146.7417041  48.3921729  44.2355454 142.5280053  55.3073055  59.9735262
 142.4276780  56.2567412  59.9047353 142.3101596  54.9791294  59.1011332
 141.7293125  52.5557980  36.5575940 142.5912289  52.8812878  36.8171757
 141.9143469  51.7689476  36.0449005 133.7460541  60.6380320  48.8356128
 133.0524012  60.2234273  48.3226083 134.4933532  60.6800856  48.2389547
 142.3911324  58.7370194  58.7900324 141.9078405  59.5370554  58.9964213
 142.4772263  58.7478139  57.8367768 135.6597283  60.5698574  46.7122143
 135.6367971  60.6686261  45.7604026 135.9697920  61.4163724  47.0339309
 138.3184661  62.6274729  50.8268758 139.2727915  62.5958671  50.7598689
 138.1197185  62.1665352  51.6418984 138.9084043  61.1975845  53.3939555
 139.7276932  61.6919923  53.4174393 139.1820851  60.2807813  53.3657123
 136.6734890  68.1694348  47.8438956 136.5389358  67.4094749  47.2776954
 136.2566952  68.8935248  47.3767744 139.8304016  69.0663665  48.0557398
 139.7136400  70.0109098  47.9536089 139.0096462  68.7637227  48.4443197
 134.1618957  55.5313978  54.0931752 134.8077821  55.0212932  54.5818978
 133.9536109  56.2682660  54.6675178 146.6872350  62.5994826  59.5923893
 147.5563509  62.7735478  59.2310528 146.2079101  63.4189243  59.4699622
 142.6822568  49.7954023  39.8455649 142.6701238  50.7395863  40.0023920
 143.5745990  49.6124169  39.5515110 140.8558530  69.7191927  51.2713327
 141.7585777  69.7515537  51.5879822 140.6295900  68.7892378  51.2859662
 142.6112132  68.4722914  47.9323405 141.6607763  68.4724775  47.8187778
 142.9144618  67.7255648  47.4159440 146.4974687  46.3896800  44.1001585
 145.7307083  45.8355286  44.2458268 146.9085392  46.4618669  44.9615737
 138.5016448  52.6781596  58.1906767 139.3647910  52.3218400  58.4010091
 137.9281859  52.3395490  58.8782171 147.0762179  71.4513342  47.7477411
 146.2861233  71.7070871  47.2717522 147.5673426  72.2661680  47.8529452
 145.3599882  71.7043833  50.1792402 145.6107920  72.5890843  50.4449978
 145.8959430  71.5248434  49.4067494 145.9908924  75.8534825  43.8709879
 146.8284146  76.2631833  43.6543586 146.1687191  74.9134267  43.8410073
 146.0135095  73.1925540  44.5420612 145.8159495  72.5994901  43.8171679
 145.4581759  72.8877750  45.2596551 142.5734926  74.8775735  46.7088357
 143.2605966  74.5637465  46.1209373 142.4183055  75.7817100  46.4355609
 147.3769648  69.7665932  51.1373381 147.2927837  69.1591601  50.4023791
 146.5552354  70.2574950  51.1382877 142.1502902  72.9576329  48.9805825
 142.1887002  72.4239919  49.7742943 141.6443195  72.4311534  48.3616802
 145.7811480  71.6840431  42.0559756 146.0764921  70.7751109  42.0026810
 144.8799515  71.6628170  41.7340758 145.9685298  74.3538326  51.1984590
 145.4238766  75.1298134  51.3304864 146.8464648  74.7009131  51.0403711
 146.7551320  73.4808223  54.0914747 146.0133056  73.6290858  54.6779377
 146.4344064  73.7416488  53.2281496 145.4016539  79.2859978  47.0814075
 144.5648447  78.8582152  46.8998076 145.3740184  79.4792421  48.0184866
 144.7166035  72.3469326  46.8663007 144.3968819  71.4934634  46.5737381
 144.1699463  72.5617904  47.6220974 144.5854295  75.9672237  48.8356128
 143.8917767  75.5526190  48.3226083 145.3327286  76.0092774  48.2389547
 146.4991038  75.8990491  46.7122143 146.4761726  75.9978178  45.7604026
 146.8091674  76.7455642  47.0339309 147.5128644  83.4986266  47.8438956
 147.3783112  82.7386667  47.2776954 147.0960707  84.2227166  47.3767744
 145.0012712  70.8605896  54.0931752 145.6471575  70.3504850  54.5818978
 144.7929863  71.5974578  54.6675178 119.7810978  15.6674949  30.5262150
 119.7035008  16.6182774  30.6050630 119.1772622  15.3220821  31.1837076
 118.4404945  13.1776470  37.9028710 118.9912370  13.0493533  37.1305704
 117.6016421  13.4771359  37.5523603 122.8536723  15.2670980  27.8970492
 123.0288479  14.7959023  28.7116114 122.1669511  15.8936746  28.1251752
 117.4197808  18.4160343  34.6710352 117.6594406  19.0478867  35.3489370
 116.5767005  18.0648383  34.9575711 121.9325670  14.2239465  37.0751856
 121.8595841  15.0294437  37.5871160 121.4903063  14.4231431  36.2499877
 121.7215450  13.4611235  30.5854677 120.9382972  14.0032916  30.6792902
 122.4208195  13.9785215  30.9848919 124.3924354  14.1226299  39.2310015
 125.1052326  14.7573764  39.1585916 123.9014382  14.2190165  38.4150016
 117.8942640  14.4408345  32.0009130 117.2253016  14.9254473  31.5173171
 117.7555510  14.6877566  32.9152509 122.0347909  16.4752089  38.5991789
 122.5866217  16.6383710  39.3640874 122.3754102  17.0656527  37.9271814
 122.1813720  14.0410570  40.6140443 122.4900847  13.7959717  41.4863143
 122.9789202  14.2457209  40.1259313 122.2034332  16.1948480  32.8445820
 121.7639323  15.7024859  33.5378676 122.9542449  15.6521448  32.6037895
 114.6826671  12.3860021  32.8470448 115.5084691  12.0863793  32.4669091
 114.3320723  11.6167643  33.2960236 112.8835276  10.3046347  33.8059381
 112.0467185   9.8768522  33.6243383 112.8558922  10.4978791  34.7430173
 114.9947382  14.5172635  34.5684262 114.8601850  13.7573036  34.0022260
 114.5779444  15.2413535  34.1013051 118.1516508  15.4141952  34.7802705
 118.0348892  16.3587385  34.6781395 117.3308954  15.1115514  35.1688504
 119.1771022  16.0670214  37.9958633 120.0798269  16.0993824  38.3125128
 118.9508392  15.1370665  38.0104969 120.9324624  14.8201201  34.6568712
 119.9820255  14.8203062  34.5433084 121.2357110  14.0733935  34.1404747
 133.4767024  20.6089167  35.6575999 133.1385535  20.4930232  34.7696534
 134.3456792  20.2080332  35.6377005 129.3353840  22.4624644  31.6472890
 128.7718705  22.3714581  30.8789178 129.2206235  21.6424548  32.1275383
 133.9586807  21.7624019  41.6162205 133.9475448  21.3676817  40.7442708
 134.1207446  21.0290092  42.2095976 126.8818272  23.9575835  34.4857110
 127.6739563  23.6166660  34.0703410 127.1214922  24.0670810  35.4059264
 130.6794068  24.5461131  40.5641389 130.3883934  25.4506762  40.4488055
 131.3151052  24.5877658  41.2785458 131.6050275  21.9237979  37.1542748
 132.2013847  21.6994002  36.4399711 131.6625246  21.1822725  37.7568196
 135.6383953  24.2322546  37.5591182 135.3384676  25.1347585  37.4506989
 135.2935013  23.9654730  38.4112335 129.0896435  20.6836343  33.5927887
 128.1646931  20.5512557  33.8005578 129.3380848  21.4630562  34.0897829
 126.4505246  20.3269617  34.4271676 126.5797627  20.5804096  35.3411087
 125.7702697  20.9197325  34.1076331 130.6204733  30.9966867  30.5262150
 130.5428763  31.9474692  30.6050630 130.0166376  30.6512739  31.1837076
 133.1121963  18.1694732  43.1823517 132.3355297  18.7288652  43.1726381
 133.7512526  18.6551515  43.7038387 131.3668335  20.9780185  42.7441484
 132.1083019  21.5165229  42.4676307 130.6605320  21.6046474  42.9013036
 136.8423675  23.1209326  41.3413645 137.2507031  22.6791736  40.5968278
 136.1200936  22.5461953  41.5947838 133.1954745  18.0581933  38.7147202
 134.0415940  18.4821346  38.8581851 133.1353382  17.4015557  39.4085765
 137.1652489  23.6810517  35.0965934 136.5361352  23.8456231  34.3942002
 136.7778151  24.0952126  35.8676898 138.2992653  22.2624913  39.0505641
 138.5109548  22.9056673  38.3740023 138.2522401  21.4287230  38.5827572
 132.7180451  23.4184925  32.3616019 133.1818797  23.6972628  31.5720642
 132.4537249  22.5168369  32.1789110 129.6104532  22.9656406  35.2995783
 130.1805889  23.3943675  34.6613267 130.2012644  22.6838991  35.9979968
 130.1029699  18.1319834  43.5456794 129.4728359  18.8136114  43.7792191
 129.9965787  18.0202915  42.6009932 125.3974671  17.7991630  34.4722718
 124.6073725  18.0549158  33.9962829 125.8885919  18.6139968  34.5774759
 139.4138481  25.1396869  37.2227999 140.2355924  24.7377056  36.9410680
 139.4100884  25.0365103  38.1744115 127.3489417  18.1636209  31.4306195
 126.5520580  18.2754903  31.9489690 127.1215009  18.5022861  30.5647085
 133.1795084  24.6880912  39.3788709 133.2439517  25.1501319  40.2146881
 132.4706008  24.0578277  39.5071019 123.6812374  18.0522120  36.9037709
 123.9320413  18.9369130  37.1695285 124.2171923  17.8726722  36.1312801
 126.3472499  23.8724458  29.8195615 126.8597020  24.6667708  29.9701179
 126.9995212  23.1750748  29.7529216 128.1567384  26.9890214  31.9018368
 128.3334012  27.9108179  31.7139352 128.9524217  26.6748633  32.3312748
 127.4419740  19.0354846  41.7780531 127.3273256  18.1340103  42.0787630
 126.5864258  19.2818543  41.4265348 134.5211578  26.9772586  43.3768032
 134.0775432  26.1908965  43.0588936 135.1828792  27.1651737  42.7111923
 129.2798699  28.5068388  37.9028710 129.8306124  28.3785451  37.1305704
 128.4410175  28.8063277  37.5523603 136.6192816  27.2575386  41.4049433
 136.6011292  28.0784267  40.9129702 137.5412736  27.1329461  41.6299574
 133.0765870  24.7719516  42.2472941 133.6094207  24.0107804  42.0172249
 132.5479952  24.4793167  42.9897096 124.3121416  22.2013112  30.5955185
 125.1496638  22.6110120  30.3788893 124.4899684  21.2612554  30.5655379
 124.3347587  19.5403827  31.2665919 124.1371987  18.9473188  30.5416985
 123.7794251  19.2356037  31.9841858 132.4045249  28.0461750  33.0785155
 132.3621427  28.2722597  32.1493687 133.3207947  27.8125125  33.2270957
 135.8510882  18.5145818  39.9765785 136.2060270  18.7417291  40.8360250
 136.4983014  18.8464195  39.3543040 130.5211049  24.9224779  32.8747118
 131.3151648  24.4275100  32.6729693 129.8102742  24.3942643  32.5114824
 135.3405894  27.3042875  37.2259486 135.3942916  27.8733811  37.9937202
 134.4720675  27.4744760  36.8613523 126.7479362  15.5922674  31.5385112
 127.0086179  16.5068007  31.4294273 127.5696534  15.1247117  31.6881725
 128.2204287  17.0060431  38.7083937 128.8927341  16.7977793  38.0596586
 127.3934074  16.8082517  38.2689169 137.5308657  23.8971224  43.8000151
 137.3794164  23.6681776  42.8830235 137.5213337  24.8541826  43.8131496
 134.2993994  21.4703137  38.7846418 135.2286054  21.6214297  38.6115385
 133.8785024  21.5587158  37.9295064 133.0982325  25.4953801  36.5544955
 132.9593411  25.1272586  37.4270893 132.3096922  26.0101441  36.3828913
 133.6930477  30.5962898  27.8970492 133.8682233  30.1250941  28.7116114
 133.0063265  31.2228664  28.1251752 134.6487541  24.8735404  33.9433793
 134.3137373  24.8336174  34.8391443 134.1491486  24.2080120  33.4704203
 128.6231784  20.2803034  39.4686374 128.4851582  19.5483273  40.0697913
 129.5336708  20.1911934  39.1870562 131.2514085  19.9922993  38.9570054
 131.9613704  19.3516186  38.9156672 131.2083393  20.2435888  39.8796235
 139.2400864  26.9290347  41.8776633 139.1813410  26.2449567  41.2107216
 139.6420382  27.6709337  41.4257259 129.9643019  16.9788211  40.7765693
 129.4280376  16.5278950  41.4287290 129.3759728  17.1134120  40.0336158
 128.2591563  33.7452261  34.6710352 128.4988161  34.3770785  35.3489370
 127.4160759  33.3940301  34.9575711 139.2418271  24.8929931  40.1090613
 138.3545050  24.5555853  40.2317012 139.8116822  24.1612962  40.3459378
 120.8947418  21.2254022  33.4333664 121.5818458  20.9115753  32.8454679
 120.7395547  22.1295387  33.1600916 125.6982140  16.1144219  37.8618688
 125.6140329  15.5069889  37.1269098 124.8764847  16.6053237  37.8628184
 132.7719424  29.5531383  37.0751856 132.6989596  30.3586355  37.5871160
 132.3296818  29.7523349  36.2499877 132.5609204  28.7903153  30.5854677
 131.7776726  29.3324833  30.6792902 133.2601949  29.3077133  30.9848919
 135.2318108  29.4518217  39.2310015 135.9446080  30.0865682  39.1585916
 134.7408137  29.5482083  38.4150016 130.2830022  27.2012661  40.0515585
 130.9839481  27.8349144  40.2044980 129.8125137  27.5427392  39.2911225
 135.0438481  29.7916961  31.9796306 135.2260876  28.9738617  32.4424058
 135.8671467  30.0084653  31.5421196 134.1318881  20.4977079  44.3634173
 133.4559518  20.3971208  45.0336548 134.9546514  20.3416293  44.8270170
 125.8797740  26.7349016  36.9846688 126.4651176  25.9892704  37.1174592
 125.6822578  27.0452972  37.8683352 128.7336395  29.7700263  32.0009130
 128.0646770  30.2546391  31.5173171 128.5949265  30.0169483  32.9152509
 120.4715394  19.3054616  35.7051131 120.5099494  18.7718207  36.4988249
 119.9655687  18.7789821  35.0862108 132.8741663  31.8044007  38.5991789
 133.4259971  31.9675628  39.3640874 133.2147857  32.3948444  37.9271814
 127.3258429  16.2242289  42.8486708 127.9530468  15.8419366  43.4624232
 126.4686348  16.0056491  43.2142400 137.7252538  26.6305264  44.4540443
 138.2692442  27.2435222  43.9595398 137.1439383  27.1884842  44.9707456
 124.1023972  18.0318718  28.7805063 124.3977413  17.1229396  28.7272116
 123.2012008  18.0106457  28.4586065 136.0110051  29.7525982  35.5855471
 135.8861190  28.9515722  35.0766416 136.6689142  30.2472175  35.0969441
 127.6318219  16.1074715  34.7632611 126.9104805  16.7210682  34.6240085
 128.4211475  16.6432479  34.6849257 138.0744959  27.5535002  37.2135021
 137.1275295  27.4340353  37.1413348 138.4227732  26.6657500  37.2961283
 135.0791392  27.3487718  33.4139373 134.9316355  26.4204426  33.5946943
 135.9044886  27.3707809  32.9296449 138.6825514  28.1716277  34.5004246
 139.6072062  27.9659138  34.3628697 138.5140818  27.9232678  35.4093588
 129.8152128  18.1611269  34.9842235 129.6696709  18.4751572  35.8766517
 129.3377332  18.7796170  34.4313134 124.2897790  20.7016614  37.9229896
 123.7451258  21.4776422  38.0550171 125.1677140  21.0487418  37.7649018
 125.0763812  19.8286510  40.8160053 124.3345548  19.9769145  41.4024684
 124.7556556  20.0894776  39.9526803 133.0207475  29.3702488  40.6140443
 133.3294601  29.1251635  41.4863143 133.8182957  29.5749127  40.1259313
 133.0428087  31.5240398  32.8445820 132.6033077  31.0316776  33.5378676
 133.7936204  30.9813365  32.6037895 125.5220426  27.7151939  32.8470448
 126.3478446  27.4155710  32.4669091 125.1714478  26.9459561  33.2960236
 130.4901959  27.0678407  34.9168121 129.8681968  26.4049112  34.6170349
 131.1606826  27.0939539  34.2341769 123.7229031  25.6338265  33.8059381
 122.8860939  25.2060439  33.6243383 123.6952676  25.8270708  34.7430173
 141.0481332  26.0901318  43.7901765 140.2576876  26.0725457  43.2506264
 140.8114687  26.6289612  44.5450801 141.1679207  22.9393784  41.1034493
 141.2177212  22.7743792  42.0450016 141.0593130  22.0721044  40.7132374
 130.0515466  25.6182330  28.3926582 130.2003586  26.3017795  27.7393255
 130.8581909  25.5987420  28.9076038 142.6697404  25.3590726  41.3476515
 142.3782212  25.7220707  42.1839976 142.0569535  24.6457734  41.1689847
 127.8068099  21.6447508  29.3987651 127.5614141  20.7409838  29.5967861
 127.9764013  21.6464658  28.4567129 133.8196362  23.5009020  44.6655039
 134.7399372  23.6787619  44.8595085 133.7845945  22.5565065  44.5134738
 123.0378527  18.6947613  33.5908313 122.7181312  17.8412921  33.2982687
 122.4911956  18.9096191  34.3466281 126.8158435  21.4110054  37.3077820
 127.0344445  22.3427162  37.3265854 127.2284209  21.0518029  38.0932624
 131.6886300  16.9843260  46.6980569 131.5883027  17.9337617  46.6292660
 131.4707842  16.6561499  45.8256639 122.9066787  22.3150525  35.5601435
 122.2130259  21.9004477  35.0471389 123.6539778  22.3571061  34.9634854
 131.5517570  20.4140399  45.5145631 131.0684652  21.2140759  45.7209520
 131.6378509  20.4248344  44.5613075 124.8203530  22.2468778  33.4367450
 124.7974218  22.3456466  32.4849333 125.1304166  23.0933929  33.7584616
 127.4790908  24.3044933  37.5514064 128.4334161  24.2728876  37.4843996
 127.2803431  23.8435557  38.3664290 128.0690290  22.8746050  40.1184862
 128.8883179  23.3690128  40.1419699 128.3427098  21.9578018  40.0902430
 125.8341137  29.8464553  34.5684262 125.6995605  29.0864954  34.0022260
 125.4173199  30.5705453  34.1013051 128.9910262  30.7433870  34.7802705
 128.8742647  31.6879302  34.6781395 128.1702709  30.4407432  35.1688504
 123.3225204  17.2084183  40.8177059 123.9684068  16.6983137  41.3064284
 123.1142355  17.9452865  41.3920484 135.8478596  24.2765031  46.3169200
 136.7169756  24.4505683  45.9555835 135.3685348  25.0959448  46.1944929
 130.0164777  31.3962132  37.9958633 130.9192023  31.4285742  38.3125128
 129.7902147  30.4662583  38.0104969 131.7718379  30.1493118  34.6568712
 130.8214010  30.1494980  34.5433084 132.0750865  29.4025853  34.1404747
 144.3160778  35.9381085  35.6575999 143.9779290  35.8222150  34.7696534
 145.1850547  35.5372250  35.6377005 140.1747594  37.7916561  31.6472890
 139.6112459  37.7006498  30.8789178 140.0599989  36.9716466  32.1275383
 144.7980561  37.0915937  41.6162205 144.7869202  36.6968735  40.7442708
 144.9601201  36.3582009  42.2095976 137.7212026  39.2867753  34.4857110
 138.5133318  38.9458578  34.0703410 137.9608676  39.3962728  35.4059264
 141.5187823  39.8753048  40.5641389 141.2277688  40.7798679  40.4488055
 142.1544807  39.9169576  41.2785458 142.4444029  37.2529897  37.1542748
 143.0407602  37.0285919  36.4399711 142.5019001  36.5114642  37.7568196
 146.4777708  39.5614464  37.5591182 146.1778431  40.4639503  37.4506989
 146.1328767  39.2946647  38.4112335 139.9290189  36.0128261  33.5927887
 139.0040686  35.8804475  33.8005578 140.1774602  36.7922480  34.0897829
 137.2899000  35.6561534  34.4271676 137.4191381  35.9096013  35.3411087
 136.6096451  36.2489242  34.1076331 141.4598487  46.3258784  30.5262150
 141.3822517  47.2766609  30.6050630 140.8560131  45.9804657  31.1837076
 143.9515717  33.4986650  43.1823517 143.1749051  34.0580570  43.1726381
 144.5906280  33.9843433  43.7038387 142.2062089  36.3072103  42.7441484
 142.9476774  36.8457147  42.4676307 141.4999075  36.9338392  42.9013036
 144.0348499  33.3873850  38.7147202 144.8809694  33.8113264  38.8581851
 143.9747137  32.7307475  39.4085765 147.1847944  31.0478219  40.3728376
 146.9408876  31.8020279  39.8362652 147.4607875  31.4263566  41.2075623
 143.5574206  38.7476842  32.3616019 144.0212551  39.0264545  31.5720642
 143.2931004  37.8460287  32.1789110 140.4498287  38.2948324  35.2995783
 141.0199644  38.7235592  34.6613267 141.0406399  38.0130909  35.9979968
 140.9423453  33.4611751  43.5456794 140.3122114  34.1428032  43.7792191
 140.8359541  33.3494833  42.6009932 136.2368426  33.1283547  34.4722718
 135.4467480  33.3841076  33.9962829 136.7279673  33.9431885  34.5774759
 138.1883171  33.4928127  31.4306195 137.3914334  33.6046821  31.9489690
 137.9608763  33.8314779  30.5647085 144.0188839  40.0172830  39.3788709
 144.0833271  40.4793237  40.2146881 143.3099763  39.3870195  39.5071019
 134.5206129  33.3814038  36.9037709 134.7714167  34.2661048  37.1695285
 135.0565677  33.2018639  36.1312801 140.2204196  27.7632517  45.9082045
 139.8271142  27.2098716  46.5829689 141.0370336  28.0743096  46.2988562
 137.1866254  39.2016375  29.8195615 137.6990774  39.9959626  29.9701179
 137.8388967  38.5042666  29.7529216 138.9961138  42.3182132  31.9018368
 139.1727767  43.2400096  31.7139352 139.7917972  42.0040551  32.3312748
 143.1372157  29.1790396  43.5002301 143.8781870  29.7797549  43.4206764
 143.3690080  28.4368034  42.9420344 138.2813495  34.3646763  41.7780531
 138.1667010  33.4632021  42.0787630 137.4258013  34.6110460  41.4265348
 145.3605333  42.3064504  43.3768032 144.9169187  41.5200882  43.0588936
 146.0222546  42.4943654  42.7111923 140.1192454  43.8360305  37.9028710
 140.6699879  43.7077369  37.1305704 139.2803930  44.1355194  37.5523603
 143.9159625  40.1011433  42.2472941 144.4487962  39.3399721  42.0172249
 143.3873706  39.8085085  42.9897096 135.1515170  37.5305030  30.5955185
 135.9890392  37.9402038  30.3788893 135.3293438  36.5904472  30.5655379
 135.1741342  34.8695745  31.2665919 134.9765741  34.2765106  30.5416985
 134.6188006  34.5647955  31.9841858 143.2439003  43.3753668  33.0785155
 143.2015182  43.6014514  32.1493687 144.1601702  43.1417043  33.2270957
 146.6904637  33.8437736  39.9765785 147.0454025  34.0709209  40.8360250
 147.3376768  34.1756112  39.3543040 140.5844500  30.9514267  36.7612126
 141.2243879  30.8103026  36.0635089 139.7522030  30.6648780  36.3850728
 141.3604804  40.2516697  32.8747118 142.1545402  39.7567017  32.6729693
 140.6496496  39.7234560  32.5114824 146.1799648  42.6334793  37.2259486
 146.2336671  43.2025729  37.9937202 145.3114430  42.8036678  36.8613523
 137.5873116  30.9214592  31.5385112 137.8479934  31.8359925  31.4294273
 138.4090289  30.4539034  31.6881725 139.0598042  32.3352349  38.7083937
 139.7321095  32.1269711  38.0596586 138.2327828  32.1374435  38.2689169
 144.9623614  28.9614290  40.7249598 144.3151529  29.6604239  40.6314074
 145.7324629  29.3950434  41.0925846 145.1387748  36.7995055  38.7846418
 146.0679808  36.9506214  38.6115385 144.7178778  36.8879075  37.9295064
 143.9376080  40.8245719  36.5544955 143.7987166  40.4564503  37.4270893
 143.1490676  41.3393359  36.3828913 144.5324232  45.9254816  27.8970492
 144.7075988  45.4542859  28.7116114 143.8457020  46.5520582  28.1251752
 145.4881295  40.2027322  33.9433793 145.1531128  40.1628092  34.8391443
 144.9885241  39.5372038  33.4704203 139.4625539  35.6094952  39.4686374
 139.3245337  34.8775191  40.0697913 140.3730462  35.5203852  39.1870562
 142.0907840  35.3214911  38.9570054 142.8007458  34.6808103  38.9156672
 142.0477148  35.5727806  39.8796235 140.8036774  32.3080129  40.7765693
 140.2674131  31.8570867  41.4287290 140.2153482  32.4426038  40.0336158
 139.0985317  49.0744178  34.6710352 139.3381915  49.7062702  35.3489370
 138.2554514  48.7232218  34.9575711 131.7341173  36.5545940  33.4333664
 132.4212213  36.2407670  32.8454679 131.5789301  37.4587305  33.1600916
 136.5375895  31.4436137  37.8618688 136.4534084  30.8361806  37.1269098
 135.7158601  31.9345155  37.8628184 143.6113179  44.8823301  37.0751856
 143.5383350  45.6878272  37.5871160 143.1690572  45.0815267  36.2499877
 143.4002959  44.1195071  30.5854677 142.6170480  44.6616751  30.6792902
 144.0995704  44.6369050  30.9848919 146.0711862  44.7810135  39.2310015
 146.7839835  45.4157600  39.1585916 145.5801891  44.8774001  38.4150016
 141.1223776  42.5304578  40.0515585 141.8233236  43.1641061  40.2044980
 140.6518891  42.8719310  39.2911225 145.8832236  45.1208879  31.9796306
 146.0654630  44.3030535  32.4424058 146.7065222  45.3376571  31.5421196
 144.9712635  35.8268997  44.3634173 144.2953272  35.7263126  45.0336548
 145.7940269  35.6708211  44.8270170 136.7191494  42.0640933  36.9846688
 137.3044931  41.3184621  37.1174592 136.5216333  42.3744890  37.8683352
 139.5730149  45.0992181  32.0009130 138.9040525  45.5838308  31.5173171
 139.4343019  45.3461401  32.9152509 131.3109149  34.6346534  35.7051131
 131.3493248  34.1010124  36.4988249 130.8049442  34.1081739  35.0862108
 143.7135418  47.1335924  38.5991789 144.2653726  47.2967546  39.3640874
 144.0541611  47.7240362  37.9271814 138.6899911  29.4811074  39.2013674
 138.7541238  30.3425905  38.7891071 138.6267031  28.8685076  38.4686032
 138.1652184  31.5534207  42.8486708 138.7924222  31.1711284  43.4624232
 137.3080102  31.3348408  43.2142400 134.9417726  33.3610636  28.7805063
 135.2371167  32.4521314  28.7272116 134.0405762  33.3398375  28.4586065
 146.8503805  45.0817900  35.5855471 146.7254945  44.2807640  35.0766416
 147.5082896  45.5764093  35.0969441 138.4711973  31.4366632  34.7632611
 137.7498559  32.0502600  34.6240085 139.2605229  31.9724397  34.6849257
 141.2738287  28.7721059  41.0373263 141.7972689  29.0183355  41.7999572
 141.0550620  29.6041094  40.6176400 145.9185147  42.6779636  33.4139373
 145.7710109  41.7496343  33.5946943 146.7438640  42.6999727  32.9296449
 142.4790832  29.7134754  38.7222933 142.1387652  28.9142567  39.1243613
 141.7729838  30.0136465  38.1499767 140.6545883  33.4903187  34.9842235
 140.5090463  33.8043490  35.8766517 140.1771086  34.1088087  34.4313134
 144.3668396  30.9143075  37.0776252 144.1086174  31.8360146  37.0760583
 143.8353437  30.5173510  37.7676716 135.1291545  36.0308531  37.9229896
 134.5845013  36.8068339  38.0550171 136.0070895  36.3779336  37.7649018
 135.9157567  35.1578428  40.8160053 135.1739303  35.3061063  41.4024684
 135.5950311  35.4186693  39.9526803 143.8601229  44.6994406  40.6140443
 144.1688356  44.4543553  41.4863143 144.6576711  44.9041044  40.1259313
 143.8821841  46.8532315  32.8445820 143.4426832  46.3608694  33.5378676
 144.6329958  46.3105283  32.6037895 136.3614180  43.0443856  32.8470448
 137.1872200  42.7447628  32.4669091 136.0108232  42.2751479  33.2960236
 141.3295713  42.3970325  34.9168121 140.7075723  41.7341030  34.6170349
 142.0000580  42.4231456  34.2341769 134.5622785  40.9630183  33.8059381
 133.7254694  40.5352357  33.6243383 134.5346431  41.1562626  34.7430173
 141.4020241  30.8752113  44.5100627 141.4508396  31.7514235  44.1278397
 141.9442755  30.3329506  43.9372271 140.8909220  40.9474248  28.3926582
 141.0397341  41.6309712  27.7393255 141.6975664  40.9279338  28.9076038
 143.6319529  31.6283485  41.2646986 142.7622839  31.9217051  40.9929575
 143.8679010  32.2123930  41.9854250 138.6461853  36.9739426  29.3987651
 138.4007895  36.0701755  29.5967861 138.8157768  36.9756576  28.4567129
 144.6590117  38.8300937  44.6655039 145.5793126  39.0079536  44.8595085
 144.6239700  37.8856983  44.5134738 133.8772282  34.0239531  33.5908313
 133.5575066  33.1704839  33.2982687 133.3305710  34.2388109  34.3466281
 137.6552189  36.7401972  37.3077820 137.8738199  37.6719080  37.3265854
 138.0677963  36.3809946  38.0932624 142.5280055  32.3135178  46.6980569
 142.4276782  33.2629535  46.6292660 142.3101597  31.9853417  45.8256639
 133.7460542  37.6442442  35.5601435 133.0524013  37.2296395  35.0471389
 134.4933533  37.6862979  34.9634854 142.3911325  35.7432316  45.5145631
 141.9078406  36.5432677  45.7209520 142.4772264  35.7540261  44.5613075
 135.6597284  37.5760696  33.4367450 135.6367973  37.6748383  32.4849333
 135.9697921  38.4225847  33.7584616 138.3184662  39.6336851  37.5514064
 139.2727916  39.6020793  37.4843996 138.1197186  39.1727475  38.3664290
 138.9084044  38.2037967  40.1184862 139.7276933  38.6982046  40.1419699
 139.1820852  37.2869935  40.0902430 136.6734891  45.1756471  34.5684262
 136.5389359  44.4156872  34.0022260 136.2566953  45.8997371  34.1013051
 139.8304017  46.0725788  34.7802705 139.7136401  47.0171220  34.6781395
 139.0096463  45.7699349  35.1688504 134.1618959  32.5376101  40.8177059
 134.8077822  32.0275055  41.3064284 133.9536110  33.2744783  41.3920484
 146.6872351  39.6056949  46.3169200 147.5563510  39.7797601  45.9555835
 146.2079102  40.4251365  46.1944929 140.8558531  46.7254050  37.9958633
 141.7585778  46.7577660  38.3125128 140.6295901  45.7954501  38.0104969
 142.6112133  45.4785036  34.6568712 141.6607764  45.4786898  34.5433084
 142.9144619  44.7317771  34.1404747 138.5016450  29.6843718  44.9152073
 139.3647911  29.3280523  45.1255398 137.9281860  29.3457613  45.6027478
 147.0762180  48.4575465  34.4722718 146.2861234  48.7132994  33.9962829
 147.5673427  49.2723803  34.5774759 145.3599883  48.7105955  36.9037709
 145.6107922  49.5952965  37.1695285 145.8959432  48.5310557  36.1312801
 145.9908925  52.8596947  30.5955185 146.8284147  53.2693956  30.3788893
 146.1687193  51.9196389  30.5655379 146.0135096  50.1987663  31.2665919
 145.8159496  49.6057023  30.5416985 145.4581760  49.8939873  31.9841858
 142.5734927  51.8837858  33.4333664 143.2605967  51.5699588  32.8454679
 142.4183056  52.7879222  33.1600916 147.3769649  46.7728054  37.8618688
 147.2927838  46.1653724  37.1269098 146.5552356  47.2637073  37.8628184
 142.1502903  49.9638451  35.7051131 142.1887003  49.4302042  36.4988249
 141.6443196  49.4373657  35.0862108 145.7811481  48.6902553  28.7805063
 146.0764922  47.7813232  28.7272116 144.8799517  48.6690293  28.4586065
 145.9685299  51.3600449  37.9229896 145.4238767  52.1360257  38.0550171
 146.8464649  51.7071253  37.7649018 146.7551321  50.4870345  40.8160053
 146.0133057  50.6352981  41.4024684 146.4344065  50.7478611  39.9526803
 145.4016540  56.2922100  33.8059381 144.5648448  55.8644275  33.6243383
 145.3740185  56.4854544  34.7430173 144.7166036  49.3531449  33.5908313
 144.3968821  48.4996757  33.2982687 144.1699465  49.5680027  34.3466281
 144.5854296  52.9734360  35.5601435 143.8917768  52.5588313  35.0471389
 145.3327287  53.0154897  34.9634854 146.4991039  52.9052614  33.4367450
 146.4761727  53.0040301  32.4849333 146.8091675  53.7517765  33.7584616
 147.5128646  60.5048388  34.5684262 147.3783113  59.7448789  34.0022260
 147.0960708  61.2289288  34.1013051 145.0012713  47.8668019  40.8177059
 145.6471577  47.3566973  41.3064284 144.7929864  48.6036700  41.3920484
   4.8428334  72.1171372 133.1624899   4.1916314  72.7025452 132.7758912
   5.6372697  72.6477566 133.2219936  11.1095058  68.6096307 134.4229736
  10.3324501  68.2707467 133.9784898  11.7886539  68.6148931 133.7484701
   2.5146119  67.7061478 128.9664270   1.6073181  67.4750732 129.1655419
   3.0117151  66.9099098 129.1538252   5.4214198  76.4158986 131.8860956
   4.7475897  76.7190682 132.4945914   5.8080020  77.2188066 131.5366413
   3.3910441  69.3482817 130.8276339   2.9529871  68.6318676 130.3681976
   4.1320881  69.5758932 130.2661430   3.6205413  76.5838658 134.1008036
   3.7957169  76.1126701 134.9153658   2.9338201  77.2104424 134.3289296
   7.5121668  68.2067199 130.4208396   6.8950839  67.4814027 130.3241449
   7.0438157  68.9676559 130.0775471   8.3359353  71.5306371 134.5401036
   8.6119197  71.4162965 135.4494910   7.4663852  71.1323855 134.5013209
   5.3055583  74.7060906 135.4448898   5.8343349  74.1953361 134.8319060
   5.5683803  74.3903437 136.3094431   8.3995766  74.6777705 136.0603881
   8.5732644  74.1124127 135.3077734   8.8924658  75.4778600 135.8783371
   9.3870939  73.9944469 133.1600780  10.0821844  74.6151162 133.3788094
   9.7294089  73.1439820 133.4353157  11.2862362  71.4444175 134.6888110
  11.8113686  71.7831447 133.9637430  11.1984715  70.5091190 134.5051245
   3.4785807  74.1006221 132.0675873   2.9059774  74.7196408 131.6146345
   4.0518601  74.6505582 132.6015795   6.6983067  74.3843371 133.1984455
   7.6313740  74.3188933 133.4017331   6.6106280  75.2199638 132.7398988
   9.3271084  73.7009241 130.1588403   9.2484715  73.3669105 131.0524161
  10.1480751  74.1931009 130.1579875   3.8632606  65.4367034 129.4091926
   4.8091711  65.3073242 129.4780344   3.4846851  64.6981695 129.8861354
   6.8975036  71.0177237 129.7798381   7.6010886  71.2227239 130.3956037
   6.1737684  71.5853999 130.0447465   8.8061733  71.4559766 131.8296841
   9.6407337  71.0240964 131.6474316   8.6446076  71.2841780 132.7573736
   8.4607625  67.9591879 133.1953181   8.4056429  67.7936151 132.2541625
   7.8353681  68.6667912 133.3515370  17.4346008  81.9729417 141.9252018
  18.0724418  81.8536164 141.2215358  17.3166851  82.9210261 141.9839970
  15.6822089  87.4463289 133.1624899  15.0310069  88.0317370 132.7758912
  16.4766452  87.9769484 133.2219936   9.6077716  84.5352426 133.5612033
  10.3808592  83.9881413 133.4224909   9.9603115  85.3996676 133.7726494
  11.9443994  80.6945092 131.1930483  12.1969514  80.1726614 130.4313946
  11.0068553  80.5311238 131.2957167  16.9887277  79.6980871 139.0005226
  17.7750366  79.2800294 138.6495643  17.2525981  80.6026963 139.1686875
  17.1597354  85.1353721 133.6993883  16.5243187  85.2088348 134.4114788
  16.8294760  85.7247320 133.0212962  22.3895704  79.6356104 139.9038205
  23.1220876  79.0655321 140.1376034  21.6335059  79.2477704 140.3444710
  11.6640283  82.5973198 133.3954858  11.5476541  81.9218102 134.0635942
  11.7742542  82.1105572 132.5787011  14.0071823  82.0583346 137.1001547
  13.6430031  81.5313966 137.8114469  14.8638939  81.6681815 136.9268033
  13.6477310  77.0873245 132.0962896  13.8151713  77.9553482 132.4633367
  13.4574480  77.2500527 131.1724185  19.8049787  78.0672764 141.4426163
  18.8966665  77.9988173 141.1484924  19.7537383  78.5444709 142.2707989
  13.6266531  79.5430903 133.0809562  13.5066157  79.9887953 133.9195043
  12.9319120  79.8916220 132.5223101  19.3251597  80.0152376 133.9089897
  20.2369454  80.2479763 133.7337594  18.8161245  80.5989420 133.3464975
  17.9321180  84.9978194 141.3003478  17.3030042  85.1623908 140.5979546
  17.5446842  85.4119804 142.0714442  21.8110412  85.9332632 138.6547842
  21.1261450  86.3131534 138.1044875  21.8954261  86.5427959 139.3879790
  13.4849142  84.7352602 138.5653563  13.9487487  85.0140305 137.7758186
  13.2205940  83.8336047 138.3826654  12.4218028  80.8575755 135.3743128
  13.1242071  81.3096798 135.8417055  12.0898656  80.2159574 136.0023021
  28.2713164  82.8003295 139.7750514  27.5176873  82.2310693 139.6194519
  28.4060706  82.7665960 140.7221149  13.6611792  87.6716697 135.4505233
  13.5257467  88.5168233 135.8790081  14.2021605  87.8735975 134.6871167
  16.9754539  81.1855870 132.4876562  16.4601162  81.9560475 132.7264949
  16.7031847  80.5121007 133.1109623  14.5601650  76.0305571 137.5461800
  13.7043246  75.6412422 137.3667439  14.9728601  76.1097532 136.6861586
  21.9488813  83.9388225 134.4229736  21.1718256  83.5999385 133.9784898
  22.6280294  83.9440848 133.7484701  16.7640842  79.0582963 134.3136343
  16.4590977  79.3729112 135.1646486  17.7171284  79.1364382 134.3563676
  15.2087274  85.2173186 135.9629297  14.6808635  84.4825945 135.6502535
  14.7074776  85.9947862 135.7169266  20.1880120  83.4122206 141.0796344
  19.5303794  84.1021468 141.1676472  20.9920519  83.8018638 141.4230330
   9.9406001  75.8792852 138.3235909  10.5149753  75.6568034 137.5909102
  10.5276984  75.9481547 139.0764510  18.9985578  81.7666579 139.1300285
  19.5117460  82.3996571 139.6321995  19.6486802  81.1667775 138.7643645
  10.2675588  77.9097313 132.3431794   9.4312901  78.2472000 132.6641069
  10.1280358  77.7746293 131.4058931  12.2428669  72.7534101 137.0510978
  11.5893081  72.4383118 136.4267593  12.2009143  72.1309841 137.7770801
  13.3539874  83.0353396 128.9664270  12.4466936  82.8042650 129.1655419
  13.8510906  82.2391015 129.1538252  16.2607953  91.7450903 131.8860956
  15.5869651  92.0482600 132.4945914  16.6473775  92.5479984 131.5366413
  15.4766409  79.2416035 141.3758626  14.5588971  79.4630982 141.2180314
  15.8926553  79.3162345 140.5170333  16.2601457  80.6407450 136.5061306
  17.0073276  81.1528847 136.1968428  16.5293047  80.3191503 137.3665700
  14.5328107  83.1365991 133.4888260  13.6239327  82.8525024 133.5860730
  14.5623191  83.5565070 132.6291567  19.7647375  86.7472580 137.2579428
  19.3109702  85.9063490 137.3144618  19.1341341  87.3833979 137.5954208
  18.7080294  77.6764566 138.4880095  17.9703051  77.1641953 138.8190338
  18.9607068  77.2364948 137.6763372  18.2080314  88.5849077 138.1929246
  18.5003288  89.1454134 137.4741612  18.7178935  88.8777638 138.9482405
  18.8091922  70.4540818 139.0821865  19.1150798  69.5938182 138.7947780
  19.5344526  71.0458439 138.8820859  13.0813001  80.7494612 139.5898056
  13.1361611  79.7968448 139.5140532  12.2704203  80.9054051 140.0739354
  14.2304195  84.6774735 130.8276339  13.7923625  83.9610594 130.3681976
  14.9714636  84.9050849 130.2661430  11.0205361  79.3671671 137.3488435
  10.2073227  79.6665842 137.7553627  11.5164355  78.9727360 138.0662917
  22.3477310  82.9531932 136.8852657  22.2095208  83.1433528 135.9573847
  21.9913529  83.7151314 137.3420709  22.3746689  85.0208459 141.8963929
  22.8083196  84.9283748 142.7446983  23.0878270  84.9965959 141.2583945
   7.5962503  80.3835539 135.1544415   6.6660091  80.3219994 135.3714377
   7.6919975  79.8611492 134.3581056   7.5148052  76.9090352 137.7422656
   7.7754870  77.8235685 137.6331817   8.3365225  76.4414794 137.8919269
  23.2362239  85.0632159 144.4296814  23.4298129  85.9677970 144.6756089
  23.1362857  84.6039578 145.2635399  14.4599168  91.9130576 134.1008036
  14.6350924  91.4418619 134.9153658  13.7731956  92.5396342 134.3289296
  18.3515423  83.5359116 130.4208396  17.7344593  82.8105944 130.3241449
  17.8831911  84.2968477 130.0775471  10.1413969  77.7544541 129.5429701
   9.2643435  77.6333341 129.1791947  10.6171722  76.9630619 129.2908589
  16.6374545  75.9165460 139.4326427  17.1343244  75.1635423 139.1127497
  15.8661526  75.9529777 138.8669636  24.4904302  81.6205826 141.0744718
  24.4794178  82.5030541 140.7038651  23.6221682  81.2677377 140.8799255
  17.7204325  84.6737148 137.0064850  16.7860604  84.7938610 136.8369554
  17.8980994  83.7709614 136.7424860  13.2209514  78.0582843 139.1598111
  12.8507301  77.5053884 139.8479017  13.7168606  77.4540977 138.6073111
  21.1076877  80.5154467 137.5414884  21.5737329  81.3482458 137.4675187
  21.5584377  80.0499448 138.2460143  19.1753108  86.8598288 134.5401036
  19.4512952  86.7454883 135.4494910  18.3057607  86.4615773 134.5013209
  18.8499998  81.0724946 144.0805680  18.1971448  81.3200853 143.4258132
  19.2280378  80.2589084 143.7468157  16.1449337  90.0352824 135.4448898
  16.6737104  89.5245279 134.8319060  16.4077557  89.7195354 136.3094431
   6.5980504  77.0300493 135.1081932   6.2693210  76.1497872 134.9257037
   6.9519875  76.9748162 135.9958321   9.7122327  77.3173463 135.4757409
  10.0518400  77.8459385 134.7536018  10.1594448  77.6553869 136.2515976
  11.6990474  75.8148085 133.6750702  12.4198837  76.1929338 133.1714419
  11.0755778  76.5336962 133.7785680  15.8421597  76.5193234 134.6109034
  16.0585212  77.4017872 134.3097863  15.3615664  76.1279447 133.8814676
  19.2389521  90.0069622 136.0603881  19.4126398  89.4416045 135.3077734
  19.7318412  90.8070517 135.8783371  11.8454097  75.3495875 136.5048239
  11.9670009  74.4212522 136.7039126  11.5556140  75.3634561 135.5926554
  25.0928912  82.7706045 137.6794181  25.5360058  82.0213371 137.2813304
  24.2155422  82.7616182 137.2967913  20.2264693  89.3236387 133.1600780
  20.9215598  89.9443079 133.3788094  20.5687844  88.4731738 133.4353157
  22.1256117  86.7736092 134.6888110  22.6507441  87.1123365 133.9637430
  22.0378469  85.8383108 134.5051245  10.8184156  86.9350008 134.5964126
  10.9672277  87.6185472 133.9430799  11.6250600  86.9155098 135.1113581
  24.6361777  84.2411284 140.0716629  25.4708668  84.6801088 140.2354189
  24.7720906  83.7649937 139.2524874  21.6853283  81.7991018 146.0194116
  22.1607404  81.9918665 145.2112968  20.7618848  81.8550204 145.7737500
   8.5736789  82.9615186 135.6025195   8.3282831  82.0577516 135.8005405
   8.7432704  82.9632336 134.6604673   7.8432437  78.6943543 133.1011356
   7.1501682  78.7687898 132.4451392   7.5984189  77.9303887 133.6232873
  14.3179562  89.4298138 132.0675873  13.7453529  90.0488326 131.6146345
  14.8912356  89.9797500 132.6015795  17.5376822  89.7135289 133.1984455
  18.4707495  89.6480850 133.4017331  17.4500035  90.5491555 132.7398988
  20.1664838  89.0301159 130.1588403  20.0878470  88.6961023 131.0524161
  20.9874505  89.5222927 130.1579875  22.8643030  81.8962898 143.3664722
  22.8319350  80.9578899 143.5524405  23.4743653  81.9746935 142.6330547
  14.7026360  80.7658951 129.4091926  15.6485465  80.6365159 129.4780344
  14.3240605  80.0273613 129.8861354  23.0137518  78.6873942 143.4123005
  22.4976567  77.9032398 143.2252934  23.8977467  78.3592658 143.5769524
  20.6748245  72.4314957 139.3718817  20.4773066  72.1230045 140.2562149
  21.2847951  73.1576596 139.5016747  28.6819579  82.9578905 142.5070758
  29.4122968  82.6964193 143.0678462  28.0726525  82.2207627 142.5472826
  26.7634877  81.0986768 143.1045210  26.0368040  80.9642733 142.4961701
  26.3482163  81.4063596 143.9101928  12.8869278  78.6908928 129.3446811
  11.9800733  78.3942040 129.4209525  13.1645259  78.3938746 128.4781097
  14.5031343  73.2345817 135.4991052  13.6932072  72.8892902 135.8746298
  15.1915760  72.9253361 136.0878664  16.4321892  72.3123864 137.1215349
  16.9852930  72.7319318 137.7805372  16.6691978  71.3859612 137.1638305
  11.6568062  75.5495863 129.4858790  12.5187226  75.8750761 129.7454607
  11.8418406  74.7627359 128.9731856  19.8100699  74.4224389 136.6294013
  19.2299368  75.0809193 136.2472066  19.5436631  73.6001734 136.2181431
  18.2604265  73.8229447 138.8315333  18.7604043  73.9345982 138.0229652
  18.9039873  73.5190500 139.4716142  18.5925577  76.5824480 135.6850361
  17.7051432  76.8674130 135.4670556  19.0079566  76.4218243 134.8377638
  21.9440113  76.6071001 139.4004701  22.7200503  77.0967453 139.6729317
  21.2188247  77.0329055 139.8576570  24.3812671  77.3198620 140.4578641
  24.9757162  77.0794356 139.7471949  24.4539255  76.6005750 141.0852178
  17.7368790  86.3469154 129.7798381  18.4404640  86.5519157 130.3956037
  17.0131439  86.9145916 130.0447465  18.5666600  82.0979016 135.9000652
  18.5101802  82.5547567 135.0608284  19.1194943  81.3369700 135.7223494
  22.3771406  77.8868747 136.7250771  22.1208341  77.4865383 137.5558979
  21.7524274  78.6012541 136.6000910  26.6883744  80.6264821 139.2322062
  26.1283302  80.6958010 140.0053624  26.0827248  80.4505805 138.5121559
  19.6455488  86.7851684 131.8296841  20.4801091  86.3532882 131.6474316
  19.4839830  86.6133697 132.7573736  19.3001380  83.2883797 133.1953181
  19.2450184  83.1228068 132.2541625  18.6747435  83.9959830 133.3515370
  12.6097505  72.7891906 132.7738499  12.5976175  73.7333746 132.9306770
  13.5020927  72.6062051 132.4797960  16.4249625  69.3834682 137.0284436
  15.6582020  68.8293169 137.1741118  16.8360330  69.4556551 137.8898588
  28.2739763  97.3021335 141.9252018  28.9118173  97.1828082 141.2215358
  28.1560606  98.2502179 141.9839970  26.5215843 102.7755207 133.1624899
  25.8703823 103.3609287 132.7758912  27.3160206 103.3061402 133.2219936
  20.4471470  99.8644344 133.5612033  21.2202346  99.3173331 133.4224909
  20.7996869 100.7288593 133.7726494  22.7837748  96.0237010 131.1930483
  23.0363269  95.5018531 130.4313946  21.8462307  95.8603156 131.2957167
  27.8281031  95.0272788 139.0005226  28.6144120  94.6092212 138.6495643
  28.0919735  95.9318881 139.1686875  27.9991108 100.4645639 133.6993883
  27.3636941 100.5380265 134.4114788  27.6688515 101.0539238 133.0212962
  33.2289458  94.9648022 139.9038205  33.9614630  94.3947239 140.1376034
  32.4728814  94.5769622 140.3444710  22.5034037  97.9265116 133.3954858
  22.3870295  97.2510019 134.0635942  22.6136297  97.4397490 132.5787011
  24.8465578  97.3875263 137.1001547  24.4823785  96.8605884 137.8114469
  25.7032694  96.9973732 136.9268033  30.7514879  88.6769596 144.3632813
  30.4198203  89.5465007 144.1394028  30.1560492  88.3605880 145.0426844
  24.4871065  92.4165163 132.0962896  24.6545467  93.2845399 132.4633367
  24.2968234  92.5792445 131.1724185  30.6443542  93.3964682 141.4426163
  29.7360419  93.3280090 141.1484924  30.5931138  93.8736627 142.2707989
  24.4660286  94.8722820 133.0809562  24.3459911  95.3179871 133.9195043
  23.7712874  95.2208138 132.5223101  32.5105188  91.5981120 143.2204037
  31.8679569  91.8913654 142.5743832  32.0060117  91.4834041 144.0257234
  30.1645352  95.3444294 133.9089897  31.0763208  95.5771680 133.7337594
  29.6554999  95.9281338 133.3464975  28.7714934 100.3270112 141.3003478
  28.1423797 100.4915826 140.5979546  28.3840596 100.7411722 142.0714442
  32.6504166 101.2624550 138.6547842  31.9655204 101.6423451 138.1044875
  32.7348016 101.8719877 139.3879790  27.5081327  91.5202330 142.1579757
  26.6465806  91.8183583 142.4496495  27.5343761  91.7372728 141.2260790
  24.3242896 100.0644520 138.5653563  24.7881242 100.3432223 137.7758186
  24.0599694  99.1627965 138.3826654  23.2611782  96.1867672 135.3743128
  23.9635826  96.6388716 135.8417055  22.9292411  95.5451491 136.0023021
  39.1106919  98.1295213 139.7750514  38.3570627  97.5602611 139.6194519
  39.2454460  98.0957877 140.7221149  24.5005547 103.0008615 135.4505233
  24.3651222 103.8460151 135.8790081  25.0415359 103.2027893 134.6871167
  27.8498010  86.5239177 143.9804127  27.5062280  87.4140819 143.9043238
  28.2176973  86.3340835 143.1173712  27.8148293  96.5147788 132.4876562
  27.2994917  97.2852393 132.7264949  27.5425602  95.8412924 133.1109623
  25.3995404  91.3597489 137.5461800  24.5437001  90.9704339 137.3667439
  25.8122356  91.4389450 136.6861586  26.9294551  88.8943832 141.9453360
  26.4259346  88.8573967 141.1321165  27.2225158  89.8036575 142.0050017
  23.1737437  88.9782562 140.9519542  24.0390433  88.7825371 140.5925431
  23.2414946  88.7492914 141.8788899  32.7882567  99.2680143 134.4229736
  32.0112010  98.9291302 133.9784898  33.4674048  99.2732766 133.7484701
  27.6034596  94.3874880 134.3136343  27.2984732  94.7021029 135.1646486
  28.5565038  94.4656300 134.3563676  26.0481028 100.5465104 135.9629297
  25.5202390  99.8117863 135.6502535  25.5468531 101.3239780 135.7169266
  31.0273874  98.7414124 141.0796344  30.3697549  99.4313385 141.1676472
  31.8314273  99.1310556 141.4230330  20.7799756  91.2084770 138.3235909
  21.3543508  90.9859951 137.5909102  21.3670738  91.2773464 139.0764510
  29.8379333  97.0958497 139.1300285  30.3511215  97.7288489 139.6321995
  30.4880557  96.4959692 138.7643645  21.1069343  93.2389231 132.3431794
  20.2706655  93.5763917 132.6641069  20.9674113  93.1038211 131.4058931
  23.0822423  88.0826019 137.0510978  22.4286836  87.7675036 136.4267593
  23.0402898  87.4601759 137.7770801  24.1933628  98.3645314 128.9664270
  23.2860690  98.1334567 129.1655419  24.6904660  97.5682933 129.1538252
  27.1001707 107.0742821 131.8860956  26.4263406 107.3774518 132.4945914
  27.4867529 107.8771901 131.5366413  26.3160164  94.5707952 141.3758626
  25.3982725  94.7922899 141.2180314  26.7320307  94.6454263 140.5170333
  27.0995212  95.9699368 136.5061306  27.8467031  96.4820765 136.1968428
  27.3686801  95.6483421 137.3665700  25.3721862  98.4657909 133.4888260
  24.4633081  98.1816941 133.5860730  25.4016946  98.8856987 132.6291567
  30.6041129 102.0764498 137.2579428  30.1503456 101.2355408 137.3144618
  29.9735096 102.7125896 137.5954208  29.5474049  93.0056484 138.4880095
  28.8096806  92.4933870 138.8190338  29.8000822  92.5656866 137.6763372
  29.0474068 103.9140995 138.1929246  29.3397043 104.4746052 137.4741612
  29.5572689 104.2069556 138.9482405  29.6485676  85.7832736 139.0821865
  29.9544553  84.9230100 138.7947780  30.3738281  86.3750356 138.8820859
  23.9206756  96.0786529 139.5898056  23.9755366  95.1260366 139.5140532
  23.1097958  96.2345968 140.0739354  25.0697950 100.0066652 130.8276339
  24.6317380  99.2902511 130.3681976  25.8108390 100.2342767 130.2661430
  21.8599116  94.6963589 137.3488435  21.0466981  94.9957760 137.7553627
  22.3558110  94.3019278 138.0662917  33.1871064  98.2823849 136.8852657
  33.0488963  98.4725445 135.9573847  32.8307283  99.0443232 137.3420709
  33.2140444 100.3500376 141.8963929  33.6476951 100.2575665 142.7446983
  33.9272025 100.3257877 141.2583945  18.4356258  95.7127457 135.1544415
  17.5053846  95.6511912 135.3714377  18.5313730  95.1903409 134.3581056
  18.3541807  92.2382269 137.7422656  18.6148624  93.1527603 137.6331817
  19.1758979  91.7706712 137.8919269  34.0755994 100.3924077 144.4296814
  34.2691884 101.2969888 144.6756089  33.9756612  99.9331496 145.2635399
  25.2992922 107.2422493 134.1008036  25.4744678 106.7710537 134.9153658
  24.6125710 107.8688260 134.3289296  29.1909177  98.8651034 130.4208396
  28.5738348  98.1397862 130.3241449  28.7225666  99.6260394 130.0775471
  20.9807723  93.0836458 129.5429701  20.1037189  92.9625259 129.1791947
  21.4565476  92.2922537 129.2908589  27.4768299  91.2457378 139.4326427
  27.9736999  90.4927340 139.1127497  26.7055281  91.2821695 138.8669636
  35.3298057  96.9497744 141.0744718  35.3187933  97.8322459 140.7038651
  34.4615436  96.5969294 140.8799255  28.5598080 100.0029065 137.0064850
  27.6254359 100.1230528 136.8369554  28.7374748  99.1001532 136.7424860
  24.0603268  93.3874761 139.1598111  23.6901056  92.8345801 139.8479017
  24.5562360  92.7832895 138.6073111  31.9470631  95.8446385 137.5414884
  32.4131083  96.6774376 137.4675187  32.3978132  95.3791366 138.2460143
  30.0146862 102.1890206 134.5401036  30.2906706 102.0746800 135.4494910
  29.1451361 101.7907691 134.5013209  29.9187294  88.2126972 141.5805786
  29.0050374  88.4431198 141.7487992  30.3480396  88.2965416 142.4319818
  29.6893753  96.4016864 144.0805680  29.0365203  96.6492771 143.4258132
  30.0674132  95.5881002 143.7468157  26.9843092 105.3644742 135.4448898
  27.5130858 104.8537196 134.8319060  27.2471311 105.0487272 136.3094431
  17.4374259  92.3592411 135.1081932  17.1086965  91.4789790 134.9257037
  17.7913629  92.3040080 135.9958321  20.5516082  92.6465381 135.4757409
  20.8912154  93.1751302 134.7536018  20.9988202  92.9845787 136.2515976
  23.8975994  88.1151744 143.3787800  24.7202064  87.6412222 143.2566691
  24.1414058  88.8942228 143.8786487  22.5384229  91.1440003 133.6750702
  23.2592591  91.5221255 133.1714419  21.9149533  91.8628879 133.7785680
  26.6815352  91.8485152 134.6109034  26.8978966  92.7309789 134.3097863
  26.2009419  91.4571365 133.8814676  23.2810956  91.7973413 141.2360669
  23.2672525  90.9014506 140.8992966  23.9983384  91.8044076 141.8698955
  25.1337087  92.2310753 143.2813796  24.8754865  93.1527824 143.2798126
  24.6022127  91.8341187 143.9714260  30.0783275 105.3361540 136.0603881
  30.2520153 104.7707963 135.3077734  30.5712167 106.1362435 135.8783371
  22.6847852  90.6787793 136.5048239  22.8063763  89.7504439 136.7039126
  22.3949894  90.6926479 135.5926554  25.5539042  88.3642703 139.6414958
  25.5760739  88.4282037 138.6866938  25.9707101  87.5247212 139.8355465
  35.9322667  98.0997963 137.6794181  36.3753813  97.3505288 137.2813304
  35.0549177  98.0908099 137.2967913  31.0658448 104.6528304 133.1600780
  31.7609353 105.2734997 133.3788094  31.4081598 103.8023656 133.4353157
  32.9649871 102.1028010 134.6888110  33.4901195 102.4415283 133.9637430
  32.8772224 101.1675025 134.5051245  21.6577911 102.2641926 134.5964126
  21.8066031 102.9477390 133.9430799  22.4644354 102.2447016 135.1113581
  35.4755531  99.5703201 140.0716629  36.3102423 100.0093005 140.2354189
  35.6114660  99.0941855 139.2524874  32.5247037  97.1282936 146.0194116
  33.0001159  97.3210582 145.2112968  31.6012603  97.1842122 145.7737500
  19.4130544  98.2907103 135.6025195  19.1676586  97.3869433 135.8005405
  19.5826458  98.2924254 134.6604673  27.1027254  89.1630780 144.9849950
  27.6209198  89.8991807 144.6596439  26.7482387  89.4694773 145.8196709
  18.6826191  94.0235461 133.1011356  17.9895436  94.0979816 132.4451392
  18.4377943  93.2595805 133.6232873  27.3539848  85.5831062 140.5050847
  27.6341602  84.9154251 141.1311273  28.1390455  85.7760158 139.9925511
  25.1573316 104.7590056 132.0675873  24.5847283 105.3780243 131.6146345
  25.7306110 105.3089418 132.6015795  31.2248706  94.0048696 144.2522422
  32.1766129  94.1046794 144.2734646  31.0552157  93.2126965 144.7620506
  29.2463086  91.0904279 144.4381823  28.6513018  91.3709292 143.7428312
  28.9612782  91.5798180 145.2098564  28.3770576 105.0427206 133.1984455
  29.3101249 104.9772768 133.4017331  28.2893789 105.8783473 132.7398988
  31.0058593 104.3593077 130.1588403  30.9272224 104.0252940 131.0524161
  31.8268260 104.8514845 130.1579875  33.7036784  97.2254816 143.3664722
  33.6713104  96.2870817 143.5524405  34.3137408  97.3038853 142.6330547
  25.5420115  96.0950869 129.4091926  26.4879220  95.9657077 129.4780344
  25.1634360  95.3565531 129.8861354  33.8531273  94.0165859 143.4123005
  33.3370321  93.2324316 143.2252934  34.7371221  93.6884576 143.5769524
  31.5141999  87.7606875 139.3718817  31.3166821  87.4521963 140.2562149
  32.1241705  88.4868514 139.5016747  39.5213334  98.2870823 142.5070758
  40.2516722  98.0256111 143.0678462  38.9120279  97.5499545 142.5472826
  37.6028631  96.4278685 143.1045210  36.8761795  96.2934650 142.4961701
  37.1875918  96.7355514 143.9101928  23.7263032  94.0200845 129.3446811
  22.8194487  93.7233958 129.4209525  24.0039013  93.7230663 128.4781097
  25.3425098  88.5637735 135.4991052  24.5325826  88.2184820 135.8746298
  26.0309515  88.2545279 136.0878664  27.2715646  87.6415782 137.1215349
  27.8246685  88.0611235 137.7805372  27.5085732  86.7151530 137.1638305
  22.4961817  90.8787780 129.4858790  23.3580981  91.2042679 129.7454607
  22.6812161  90.0919276 128.9731856  30.6494453  89.7516307 136.6294013
  30.0693122  90.4101111 136.2472066  30.3830386  88.9293652 136.2181431
  29.0998020  89.1521365 138.8315333  29.5997798  89.2637899 138.0229652
  29.7433627  88.8482418 139.4716142  29.4319331  91.9116397 135.6850361
  28.5445186  92.1966048 135.4670556  29.8473320  91.7510161 134.8377638
  32.7833867  91.9362918 139.4004701  33.5594257  92.4259371 139.6729317
  32.0582001  92.3620973 139.8576570  35.2206426  92.6490538 140.4578641
  35.8150917  92.4086273 139.7471949  35.2933010  91.9297668 141.0852178
  28.5762545 101.6761072 129.7798381  29.2798395 101.8811075 130.3956037
  27.8525193 102.2437834 130.0447465  29.4060355  97.4270933 135.9000652
  29.3495556  97.8839485 135.0608284  29.9588697  96.6661618 135.7223494
  33.2165161  93.2160665 136.7250771  32.9602095  92.8157301 137.5558979
  32.5918029  93.9304459 136.6000910  37.5277499  95.9556738 139.2322062
  36.9677057  96.0249928 140.0053624  36.9221002  95.7797723 138.5121559
  30.4849242 102.1143601 131.8296841  31.3194846 101.6824800 131.6474316
  30.3233585 101.9425615 132.7573736  30.1395134  98.6175715 133.1953181
  30.0843938  98.4519986 132.2541625  29.5141189  99.3251747 133.3515370
  23.4491260  88.1183824 132.7738499  23.4369930  89.0625663 132.9306770
  24.3414682  87.9353969 132.4797960  27.2643379  84.7126600 137.0284436
  26.4975775  84.1585087 137.1741118  27.6754084  84.7848469 137.8898588
  39.1133517 112.6313252 141.9252018  39.7511927 112.5120000 141.2215358
  38.9954360 113.5794096 141.9839970  37.3609598 118.1047125 133.1624899
  36.7097578 118.6901205 132.7758912  38.1553961 118.6353319 133.2219936
  31.2865225 115.1936262 133.5612033  32.0596101 114.6465249 133.4224909
  31.6390624 116.0580511 133.7726494  33.6231503 111.3528928 131.1930483
  33.8757023 110.8310449 130.4313946  32.6856062 111.1895073 131.2957167
  38.6674786 110.3564706 139.0005226  39.4537875 109.9384129 138.6495643
  38.9313490 111.2610798 139.1686875  38.8384863 115.7937556 133.6993883
  38.2030696 115.8672183 134.4114788  38.5082269 116.3831155 133.0212962
  44.0683213 110.2939939 139.9038205  44.8008385 109.7239156 140.1376034
  43.3122568 109.9061540 140.3444710  33.3427792 113.2557034 133.3954858
  33.2264050 112.5801937 134.0635942  33.4530051 112.7689408 132.5787011
  35.6859332 112.7167181 137.1001547  35.3217540 112.1897802 137.8114469
  36.5426448 112.3265650 136.9268033  41.5908633 104.0061513 144.3632813
  41.2591958 104.8756924 144.1394028  40.9954246 103.6897797 145.0426844
  35.3264819 107.7457081 132.0962896  35.4939222 108.6137317 132.4633367
  35.1361989 107.9084362 131.1724185  41.4837296 108.7256600 141.4426163
  40.5754174 108.6572008 141.1484924  41.4324892 109.2028545 142.2707989
  35.3054040 110.2014738 133.0809562  35.1853666 110.6471789 133.9195043
  34.6106629 110.5500056 132.5223101  43.3498943 106.9273038 143.2204037
  42.7073323 107.2205571 142.5743832  42.8453871 106.8125958 144.0257234
  41.0039106 110.6736211 133.9089897  41.9156963 110.9063598 133.7337594
  40.4948754 111.2573255 133.3464975  39.6108689 115.6562030 141.3003478
  38.9817551 115.8207744 140.5979546  39.2234351 116.0703639 142.0714442
  43.4897921 116.5916468 138.6547842  42.8048959 116.9715369 138.1044875
  43.5741770 117.2011794 139.3879790  38.3475081 106.8494247 142.1579757
  37.4859560 107.1475501 142.4496495  38.3737516 107.0664646 141.2260790
  35.1636651 115.3936438 138.5653563  35.6274996 115.6724141 137.7758186
  34.8993449 114.4919882 138.3826654  34.1005537 111.5159590 135.3743128
  34.8029580 111.9680634 135.8417055  33.7686165 110.8743409 136.0023021
  49.9500673 113.4587130 139.7750514  49.1964382 112.8894529 139.6194519
  50.0848214 113.4249795 140.7221149  35.3399301 118.3300533 135.4505233
  35.2044976 119.1752069 135.8790081  35.8809114 118.5319810 134.6871167
  38.6891765 101.8531095 143.9804127  38.3456034 102.7432736 143.9043238
  39.0570728 101.6632752 143.1173712  38.6542048 111.8439706 132.4876562
  38.1388671 112.6144310 132.7264949  38.3819356 111.1704842 133.1109623
  36.2389159 106.6889407 137.5461800  35.3830755 106.2996257 137.3667439
  36.6516110 106.7681367 136.6861586  37.7688305 104.2235750 141.9453360
  37.2653101 104.1865885 141.1321165  38.0618912 105.1328493 142.0050017
  34.0131191 104.3074480 140.9519542  34.8784188 104.1117288 140.5925431
  34.0808700 104.0784831 141.8788899  43.6276322 114.5972060 134.4229736
  42.8505765 114.2583220 133.9784898  44.3067803 114.6024684 133.7484701
  38.4428351 109.7166798 134.3136343  38.1378486 110.0312947 135.1646486
  39.3958793 109.7948218 134.3563676  36.8874783 115.8757021 135.9629297
  36.3596144 115.1409781 135.6502535  36.3862285 116.6531698 135.7169266
  41.8667629 114.0706042 141.0796344  41.2091303 114.7605303 141.1676472
  42.6708028 114.4602474 141.4230330  31.6193510 106.5376687 138.3235909
  32.1937262 106.3151869 137.5909102  32.2064493 106.6065382 139.0764510
  40.6773087 112.4250414 139.1300285  41.1904969 113.0580406 139.6321995
  41.3274311 111.8251610 138.7643645  31.9463097 108.5681148 132.3431794
  31.1100410 108.9055835 132.6641069  31.8067867 108.4330128 131.4058931
  33.9216178 103.4117936 137.0510978  33.2680590 103.0966954 136.4267593
  33.8796652 102.7893677 137.7770801  35.0327383 113.6937231 128.9664270
  34.1254445 113.4626485 129.1655419  35.5298415 112.8974851 129.1538252
  37.9395462 122.4034739 131.8860956  37.2657160 122.7066435 132.4945914
  38.3261284 123.2063819 131.5366413  37.1553918 109.8999870 141.3758626
  36.2376480 110.1214817 141.2180314  37.5714062 109.9746180 140.5170333
  37.9388966 111.2991286 136.5061306  38.6860785 111.8112683 136.1968428
  38.2080556 110.9775338 137.3665700  36.2115616 113.7949826 133.4888260
  35.3026836 113.5108859 133.5860730  36.2410700 114.2148905 132.6291567
  41.4434884 117.4056416 137.2579428  40.9897211 116.5647326 137.3144618
  40.8128850 118.0417814 137.5954208  40.3867803 108.3348402 138.4880095
  39.6490560 107.8225788 138.8190338  40.6394577 107.8948783 137.6763372
  39.8867823 119.2432912 138.1929246  40.1790797 119.8037970 137.4741612
  40.3966443 119.5361473 138.9482405  40.4879431 101.1124654 139.0821865
  40.7938307 100.2522017 138.7947780  41.2132035 101.7042274 138.8820859
  34.7600510 111.4078447 139.5898056  34.8149120 110.4552283 139.5140532
  33.9491712 111.5637886 140.0739354  35.9091704 115.3358570 130.8276339
  35.4711134 114.6194429 130.3681976  36.6502145 115.5634685 130.2661430
  32.6992870 110.0255507 137.3488435  31.8860736 110.3249677 137.7553627
  33.1951864 109.6311195 138.0662917  44.0264819 113.6115767 136.8852657
  43.8882717 113.8017363 135.9573847  43.6701038 114.3735150 137.3420709
  44.0534198 115.6792294 141.8963929  44.4870705 115.5867583 142.7446983
  44.7665779 115.6549794 141.2583945  29.2750012 111.0419374 135.1544415
  28.3447600 110.9803830 135.3714377  29.3707484 110.5195327 134.3581056
  29.1935561 107.5674187 137.7422656  29.4542379 108.4819520 137.6331817
  30.0152734 107.0998630 137.8919269  44.9149748 115.7215995 144.4296814
  45.1085638 116.6261805 144.6756089  44.8150366 115.2623414 145.2635399
  36.1386677 122.5714411 134.1008036  36.3138433 122.1002454 134.9153658
  35.4519465 123.1980177 134.3289296  40.0302932 114.1942952 130.4208396
  39.4132102 113.4689780 130.3241449  39.5619420 114.9552312 130.0775471
  31.8201478 108.4128376 129.5429701  30.9430944 108.2917177 129.1791947
  32.2959231 107.6214454 129.2908589  38.3162054 106.5749296 139.4326427
  38.8130753 105.8219258 139.1127497  37.5449035 106.6113612 138.8669636
  46.1691811 112.2789661 141.0744718  46.1581687 113.1614377 140.7038651
  45.3009191 111.9261212 140.8799255  39.3991834 115.3320983 137.0064850
  38.4648113 115.4522445 136.8369554  39.5768503 114.4293450 136.7424860
  34.8997022 108.7166679 139.1598111  34.5294810 108.1637719 139.8479017
  35.3956115 108.1124812 138.6073111  42.7864386 111.1738302 137.5414884
  43.2524838 112.0066294 137.4675187  43.2371886 110.7083284 138.2460143
  40.8540617 117.5182124 134.5401036  41.1300461 117.4038718 135.4494910
  39.9845116 117.1199608 134.5013209  40.7581049 103.5418889 141.5805786
  39.8444128 103.7723116 141.7487992  41.1874150 103.6257333 142.4319818
  40.5287507 111.7308781 144.0805680  39.8758957 111.9784689 143.4258132
  40.9067887 110.9172919 143.7468157  37.8236846 120.6936660 135.4448898
  38.3524613 120.1829114 134.8319060  38.0865066 120.3779190 136.3094431
  28.2768013 107.6884329 135.1081932  27.9480719 106.8081708 134.9257037
  28.6307384 107.6331998 135.9958321  31.3909836 107.9757299 135.4757409
  31.7305909 108.5043220 134.7536018  31.8381957 108.3137705 136.2515976
  34.7369749 103.4443662 143.3787800  35.5595818 102.9704140 143.2566691
  34.9807812 104.2234146 143.8786487  33.3777983 106.4731920 133.6750702
  34.0986346 106.8513173 133.1714419  32.7543287 107.1920797 133.7785680
  37.5209106 107.1777069 134.6109034  37.7372721 108.0601707 134.3097863
  37.0403173 106.7863283 133.8814676  34.1204710 107.1265330 141.2360669
  34.1066279 106.2306424 140.8992966  34.8377139 107.1335994 141.8698955
  35.9730841 107.5602671 143.2813796  35.7148619 108.4819741 143.2798126
  35.4415882 107.1633105 143.9714260  40.9177030 120.6653458 136.0603881
  41.0913907 120.0999880 135.3077734  41.4105921 121.4654353 135.8783371
  33.5241606 106.0079711 136.5048239  33.6457518 105.0796357 136.7039126
  33.2343649 106.0218397 135.5926554  36.3932797 103.6934621 139.6414958
  36.4154494 103.7573954 138.6866938  36.8100856 102.8539130 139.8355465
  46.7716421 113.4289881 137.6794181  47.2147567 112.6797206 137.2813304
  45.8942931 113.4200017 137.2967913  41.9052202 119.9820222 133.1600780
  42.6003107 120.6026915 133.3788094  42.2475353 119.1315573 133.4353157
  43.8043626 117.4319928 134.6888110  44.3294950 117.7707200 133.9637430
  43.7165978 116.4966943 134.5051245  32.4971665 117.5933843 134.5964126
  32.6459786 118.2769308 133.9430799  33.3038109 117.5738933 135.1113581
  46.3149286 114.8995119 140.0716629  47.1496177 115.3384923 140.2354189
  46.4508415 114.4233772 139.2524874  43.3640792 112.4574854 146.0194116
  43.8394913 112.6502500 145.2112968  42.4406357 112.5134040 145.7737500
  30.2524298 113.6199021 135.6025195  30.0070340 112.7161351 135.8005405
  30.4220213 113.6216171 134.6604673  37.9421008 104.4922697 144.9849950
  38.4602952 105.2283724 144.6596439  37.5876141 104.7986691 145.8196709
  29.5219946 109.3527379 133.1011356  28.8289191 109.4271734 132.4451392
  29.2771698 108.5887722 133.6232873  38.1933602 100.9122980 140.5050847
  38.4735356 100.2446169 141.1311273  38.9784209 101.1052076 139.9925511
  35.9967071 120.0881974 132.0675873  35.4241038 120.7072161 131.6146345
  36.5699865 120.6381336 132.6015795  42.0642461 109.3340614 144.2522422
  43.0159884 109.4338712 144.2734646  41.8945911 108.5418882 144.7620506
  40.0856840 106.4196197 144.4381823  39.4906772 106.7001210 143.7428312
  39.8006537 106.9090098 145.2098564  39.2164331 120.3719124 133.1984455
  40.1495004 120.3064686 133.4017331  39.1287543 121.2075391 132.7398988
  41.8452347 119.6884994 130.1588403  41.7665979 119.3544858 131.0524161
  42.6662014 120.1806762 130.1579875  44.5430539 112.5546734 143.3664722
  44.5106859 111.6162734 143.5524405  45.1531162 112.6330770 142.6330547
  36.3813869 111.4242787 129.4091926  37.3272974 111.2948995 129.4780344
  36.0028114 110.6857448 129.8861354  44.6925027 109.3457777 143.4123005
  44.1764076 108.5616234 143.2252934  45.5764976 109.0176494 143.5769524
  42.3535754 103.0898793 139.3718817  42.1560575 102.7813881 140.2562149
  42.9635460 103.8160432 139.5016747  50.3607088 113.6162740 142.5070758
  51.0910477 113.3548029 143.0678462  49.7514034 112.8791462 142.5472826
  48.4422385 111.7570603 143.1045210  47.7155549 111.6226568 142.4961701
  48.0269672 112.0647432 143.9101928  34.5656787 109.3492763 129.3446811
  33.6588242 109.0525876 129.4209525  34.8432768 109.0522581 128.4781097
  36.1818852 103.8929653 135.4991052  35.3719581 103.5476738 135.8746298
  36.8703269 103.5837196 136.0878664  38.1109401 102.9707699 137.1215349
  38.6640439 103.3903153 137.7805372  38.3479487 102.0443448 137.1638305
  33.3355571 106.2079698 129.4858790  34.1974735 106.5334596 129.7454607
  33.5205915 105.4211194 128.9731856  41.4888208 105.0808225 136.6294013
  40.9086877 105.7393029 136.2472066  41.2224140 104.2585569 136.2181431
  39.9391774 104.4813282 138.8315333  40.4391552 104.5929817 138.0229652
  40.5827382 104.1774335 139.4716142  40.2713086 107.2408315 135.6850361
  39.3838941 107.5257966 135.4670556  40.6867075 107.0802078 134.8377638
  43.6227622 107.2654836 139.4004701  44.3988012 107.7551288 139.6729317
  42.8975756 107.6912890 139.8576570  46.0600180 107.9782455 140.4578641
  46.6544671 107.7378191 139.7471949  46.1326764 107.2589586 141.0852178
  39.4156299 117.0052990 129.7798381  40.1192149 117.2102992 130.3956037
  38.6918948 117.5729752 130.0447465  40.2454109 112.7562851 135.9000652
  40.1889311 113.2131402 135.0608284  40.7982452 111.9953536 135.7223494
  44.0558915 108.5452583 136.7250771  43.7995850 108.1449218 137.5558979
  43.4311783 109.2596377 136.6000910  48.3671253 111.2848656 139.2322062
  47.8070811 111.3541845 140.0053624  47.7614757 111.1089641 138.5121559
  41.3242997 117.4435519 131.8296841  42.1588600 117.0116717 131.6474316
  41.1627339 117.2717533 132.7573736  40.9788889 113.9467632 133.1953181
  40.9237692 113.7811904 132.2541625  40.3534944 114.6543665 133.3515370
  34.2885014 103.4475741 132.7738499  34.2763684 104.3917581 132.9306770
  35.1808436 103.2645887 132.4797960  38.1037134 100.0418518 137.0284436
  37.3369529  99.4877005 137.1741118  38.5147839 100.1140387 137.8898588
  49.9527272 127.9605170 141.9252018  50.5905682 127.8411917 141.2215358
  49.8348115 128.9086014 141.9839970  48.2003352 133.4339042 133.1624899
  47.5491332 134.0193123 132.7758912  48.9947715 133.9645237 133.2219936
  42.1258979 130.5228179 133.5612033  42.8989855 129.9757166 133.4224909
  42.4784378 131.3872429 133.7726494  44.4625257 126.6820845 131.1930483
  44.7150778 126.1602367 130.4313946  43.5249816 126.5186991 131.2957167
  49.5068540 125.6856624 139.0005226  50.2931629 125.2676047 138.6495643
  49.7707244 126.5902716 139.1686875  49.6778617 131.1229474 133.6993883
  49.0424450 131.1964101 134.4114788  49.3476024 131.7123073 133.0212962
  54.9076967 125.6231857 139.9038205  55.6402139 125.0531074 140.1376034
  54.1516323 125.2353457 140.3444710  44.1821546 128.5848951 133.3954858
  44.0657804 127.9093855 134.0635942  44.2923806 128.0981325 132.5787011
  46.5253087 128.0459099 137.1001547  46.1611294 127.5189720 137.8114469
  47.3820203 127.6557568 136.9268033  52.4302388 119.3353431 144.3632813
  52.0985712 120.2048842 144.1394028  51.8348001 119.0189715 145.0426844
  46.1658574 123.0748998 132.0962896  46.3332976 123.9429235 132.4633367
  45.9755743 123.2376280 131.1724185  52.3231051 124.0548517 141.4426163
  51.4147928 123.9863926 141.1484924  52.2718647 124.5320462 142.2707989
  46.1447795 125.5306656 133.0809562  46.0247420 125.9763707 133.9195043
  45.4500383 125.8791973 132.5223101  54.1892697 122.2564956 143.2204037
  53.5467078 122.5497489 142.5743832  53.6847626 122.1417876 144.0257234
  51.8432861 126.0028129 133.9089897  52.7550717 126.2355516 133.7337594
  51.3342508 126.5865173 133.3464975  49.1868836 122.1786165 142.1579757
  48.3253315 122.4767418 142.4496495  49.2131270 122.3956564 141.2260790
  46.0030405 130.7228355 138.5653563  46.4668751 131.0016058 137.7758186
  45.7387203 129.8211800 138.3826654  44.9399291 126.8451508 135.3743128
  45.6423335 127.2972551 135.8417055  44.6079920 126.2035327 136.0023021
  46.1793056 133.6592450 135.4505233  46.0438731 134.5043986 135.8790081
  46.7202868 133.8611728 134.6871167  49.5285519 117.1823012 143.9804127
  49.1849789 118.0724654 143.9043238  49.8964482 116.9924670 143.1173712
  49.4935802 127.1731623 132.4876562  48.9782426 127.9436228 132.7264949
  49.2213111 126.4996760 133.1109623  47.0782913 122.0181324 137.5461800
  46.2224509 121.6288175 137.3667439  47.4909865 122.0973285 136.6861586
  48.6082060 119.5527667 141.9453360  48.1046855 119.5157803 141.1321165
  48.9012667 120.4620410 142.0050017  44.8524946 119.6366397 140.9519542
  45.7177942 119.4409206 140.5925431  44.9202455 119.4076749 141.8788899
  54.4670076 129.9263978 134.4229736  53.6899519 129.5875138 133.9784898
  55.1461557 129.9316601 133.7484701  49.2822105 125.0458716 134.3136343
  48.9772241 125.3604865 135.1646486  50.2352547 125.1240135 134.3563676
  47.7268537 131.2048939 135.9629297  47.1989899 130.4701698 135.6502535
  47.2256040 131.9823615 135.7169266  42.4587265 121.8668605 138.3235909
  43.0331017 121.6443787 137.5909102  43.0458247 121.9357300 139.0764510
  51.5166842 127.7542332 139.1300285  52.0298724 128.3872324 139.6321995
  52.1668066 127.1543528 138.7643645  42.7856852 123.8973066 132.3431794
  41.9494164 124.2347753 132.6641069  42.6461622 123.7622046 131.4058931
  44.7609932 118.7409854 137.0510978  44.1074345 118.4258871 136.4267593
  44.7190407 118.1185594 137.7770801  45.8721137 129.0229149 128.9664270
  44.9648199 128.7918403 129.1655419  46.3692169 128.2266768 129.1538252
  48.7789216 137.7326656 131.8860956  48.1050915 138.0358353 132.4945914
  49.1655038 138.5355737 131.5366413  47.9947673 125.2291788 141.3758626
  47.0770234 125.4506735 141.2180314  48.4107816 125.3038098 140.5170333
  48.7782721 126.6283203 136.5061306  49.5254540 127.1404600 136.1968428
  49.0474310 126.3067256 137.3665700  47.0509371 129.1241744 133.4888260
  46.1420590 128.8400777 133.5860730  47.0804455 129.5440823 132.6291567
  52.2828638 132.7348333 137.2579428  51.8290965 131.8939243 137.3144618
  51.6522605 133.3709732 137.5954208  51.2261558 123.6640320 138.4880095
  50.4884315 123.1517706 138.8190338  51.4788331 123.2240701 137.6763372
  50.7261577 134.5724830 138.1929246  51.0184552 135.1329887 137.4741612
  51.2360198 134.8653391 138.9482405  51.3273185 116.4416572 139.0821865
  51.6332062 115.5813935 138.7947780  52.0525790 117.0334192 138.8820859
  45.5994265 126.7370365 139.5898056  45.6542875 125.7844201 139.5140532
  44.7885467 126.8929804 140.0739354  46.7485459 130.6650488 130.8276339
  46.3104888 129.9486347 130.3681976  47.4895899 130.8926602 130.2661430
  43.5386625 125.3547424 137.3488435  42.7254490 125.6541595 137.7553627
  44.0345619 124.9603113 138.0662917  54.8658573 128.9407685 136.8852657
  54.7276472 129.1309281 135.9573847  54.5094792 129.7027068 137.3420709
  40.1143767 126.3711292 135.1544415  39.1841355 126.3095748 135.3714377
  40.2101239 125.8487245 134.3581056  40.0329316 122.8966105 137.7422656
  40.2936133 123.8111438 137.6331817  40.8546488 122.4290547 137.8919269
  46.9780431 137.9006329 134.1008036  47.1532187 137.4294372 134.9153658
  46.2913219 138.5272095 134.3289296  50.8696686 129.5234869 130.4208396
  50.2525857 128.7981697 130.3241449  50.4013175 130.2844230 130.0775471
  42.6595232 123.7420294 129.5429701  41.7824698 123.6209094 129.1791947
  43.1352985 122.9506372 129.2908589  49.1555808 121.9041213 139.4326427
  49.6524508 121.1511176 139.1127497  48.3842790 121.9405530 138.8669636
  50.2385589 130.6612901 137.0064850  49.3041868 130.7814363 136.8369554
  50.4162257 129.7585367 136.7424860  45.7390777 124.0458596 139.1598111
  45.3688565 123.4929637 139.8479017  46.2349869 123.4416730 138.6073111
  53.6258140 126.5030220 137.5414884  54.0918592 127.3358212 137.4675187
  54.0765641 126.0375201 138.2460143  51.6934371 132.8474041 134.5401036
  51.9694215 132.7330636 135.4494910  50.8238870 132.4491526 134.5013209
  51.5974803 118.8710807 141.5805786  50.6837883 119.1015034 141.7487992
  52.0267904 118.9549251 142.4319818  48.6630601 136.0228577 135.4448898
  49.1918367 135.5121032 134.8319060  48.9258820 135.7071107 136.3094431
  39.1161768 123.0176246 135.1081932  38.7874474 122.1373625 134.9257037
  39.4701138 122.9623915 135.9958321  42.2303591 123.3049216 135.4757409
  42.5699663 123.8335138 134.7536018  42.6775711 123.6429622 136.2515976
  45.5763503 118.7735579 143.3787800  46.3989573 118.2996058 143.2566691
  45.8201567 119.5526063 143.8786487  44.2171738 121.8023838 133.6750702
  44.9380100 122.1805091 133.1714419  43.5937042 122.5212715 133.7785680
  48.3602861 122.5068987 134.6109034  48.5766475 123.3893625 134.3097863
  47.8796928 122.1155200 133.8814676  44.9598465 122.4557248 141.2360669
  44.9460034 121.5598341 140.8992966  45.6770893 122.4627912 141.8698955
  46.8124596 122.8894588 143.2813796  46.5542373 123.8111659 143.2798126
  46.2809636 122.4925023 143.9714260  51.7570784 135.9945375 136.0603881
  51.9307662 135.4291798 135.3077734  52.2499676 136.7946270 135.8783371
  44.3635361 121.3371628 136.5048239  44.4851272 120.4088275 136.7039126
  44.0737403 121.3510314 135.5926554  47.2326551 119.0226539 139.6414958
  47.2548248 119.0865872 138.6866938  47.6494610 118.1831047 139.8355465
  57.6110176 128.7581798 137.6794181  58.0541322 128.0089124 137.2813304
  56.7336686 128.7491935 137.2967913  52.7445957 135.3112140 133.1600780
  53.4396862 135.9318832 133.3788094  53.0869107 134.4607491 133.4353157
  54.6437380 132.7611845 134.6888110  55.1688704 133.0999118 133.9637430
  54.5559733 131.8258861 134.5051245  43.3365420 132.9225761 134.5964126
  43.4853540 133.6061225 133.9430799  44.1431863 132.9030851 135.1113581
  41.0918053 128.9490939 135.6025195  40.8464095 128.0453269 135.8005405
  41.2613967 128.9508089 134.6604673  48.7814763 119.8214615 144.9849950
  49.2996707 120.5575642 144.6596439  48.4269895 120.1278608 145.8196709
  40.3613700 124.6819296 133.1011356  39.6682945 124.7563651 132.4451392
  40.1165452 123.9179640 133.6232873  49.0327357 116.2414898 140.5050847
  49.3129111 115.5738087 141.1311273  49.8177964 116.4343993 139.9925511
  46.8360825 135.4173891 132.0675873  46.2634792 136.0364079 131.6146345
  47.4093619 135.9673253 132.6015795  50.9250595 121.7488115 144.4381823
  50.3300527 122.0293128 143.7428312  50.6400291 122.2382016 145.2098564
  50.0558085 135.7011042 133.1984455  50.9888758 135.6356603 133.4017331
  49.9681298 136.5367308 132.7398988  52.6846102 135.0176912 130.1588403
  52.6059733 134.6836776 131.0524161  53.5055769 135.5098680 130.1579875
  47.2207624 126.7534704 129.4091926  48.1666729 126.6240912 129.4780344
  46.8421869 126.0149366 129.8861354  53.1929508 118.4190710 139.3718817
  52.9954330 118.1105798 140.2562149  53.8029214 119.1452349 139.5016747
  45.4050541 124.6784681 129.3446811  44.4981996 124.3817793 129.4209525
  45.6826522 124.3814499 128.4781097  47.0212607 119.2221570 135.4991052
  46.2113335 118.8768655 135.8746298  47.7097024 118.9129114 136.0878664
  48.9503155 118.2999617 137.1215349  49.5034194 118.7195071 137.7805372
  49.1873241 117.3735365 137.1638305  44.1749326 121.5371616 129.4858790
  45.0368490 121.8626514 129.7454607  44.3599670 120.7503112 128.9731856
  52.3281962 120.4100142 136.6294013  51.7480631 121.0684946 136.2472066
  52.0617895 119.5877487 136.2181431  50.7785528 119.8105200 138.8315333
  51.2785307 119.9221735 138.0229652  51.4221136 119.5066253 139.4716142
  51.1106840 122.5700233 135.6850361  50.2232695 122.8549883 135.4670556
  51.5260829 122.4093996 134.8377638  54.4621376 122.5946754 139.4004701
  55.2381766 123.0843206 139.6729317  53.7369510 123.0204808 139.8576570
  56.8993935 123.3074373 140.4578641  57.4938426 123.0670109 139.7471949
  56.9720519 122.5881503 141.0852178  50.2550054 132.3344907 129.7798381
  50.9585904 132.5394910 130.3956037  49.5312702 132.9021669 130.0447465
  51.0847864 128.0854769 135.9000652  51.0283065 128.5423320 135.0608284
  51.6376206 127.3245453 135.7223494  54.8952670 123.8744500 136.7250771
  54.6389604 123.4741136 137.5558979  54.2705538 124.5888294 136.6000910
  59.2065008 126.6140574 139.2322062  58.6464566 126.6833763 140.0053624
  58.6008511 126.4381558 138.5121559  52.1636751 132.7727437 131.8296841
  52.9982355 132.3408635 131.6474316  52.0021094 132.6009450 132.7573736
  51.8182643 129.2759550 133.1953181  51.7631447 129.1103821 132.2541625
  51.1928698 129.9835583 133.3515370  45.1278769 118.7767659 132.7738499
  45.1157438 119.7209499 132.9306770  46.0202191 118.5937804 132.4797960
  48.9430888 115.3710436 137.0284436  48.1763284 114.8168922 137.1741118
  49.3541593 115.4432304 137.8898588  55.3019012 142.0112763 131.1930483
  55.5544532 141.4894284 130.4313946  54.3643571 141.8478909 131.2957167
  57.0052328 138.4040916 132.0962896  57.1726731 139.2721152 132.4633367
  56.8149497 138.5668198 131.1724185  53.6250606 139.2264984 132.3431794
  52.7887919 139.5639670 132.6641069  53.4855376 139.0913964 131.4058931
  55.6003687 134.0701772 137.0510978  54.9468099 133.7550789 136.4267593
  55.5584161 133.4477512 137.7770801  56.7114892 144.3521067 128.9664270
  55.8041954 144.1210320 129.1655419  57.2085924 143.5558686 129.1538252
  53.4988987 139.0712211 129.5429701  52.6218453 138.9501012 129.1791947
  53.9746740 138.2798290 129.2908589  49.9555522 138.3468164 135.1081932
  49.6268228 137.4665543 134.9257037  50.3094893 138.2915833 135.9958321
  55.0565492 137.1315756 133.6750702  55.7773855 137.5097008 133.1714419
  54.4330796 137.8504632 133.7785680  51.2007455 140.0111214 133.1011356
  50.5076700 140.0855569 132.4451392  50.9559207 139.2471558 133.6232873
  58.0601378 142.0826622 129.4091926  59.0060483 141.9532830 129.4780344
  57.6815623 141.3441284 129.8861354  56.2444296 140.0076598 129.3446811
  55.3375751 139.7109711 129.4209525  56.5220277 139.7106416 128.4781097
  57.8606361 134.5513488 135.4991052  57.0507090 134.2060573 135.8746298
  58.5490778 134.2421032 136.0878664  55.0143080 136.8663534 129.4858790
  55.8762244 137.1918432 129.7454607  55.1993424 136.0795029 128.9731856
  55.9672523 134.1059577 132.7738499  55.9551193 135.0501416 132.9306770
  56.8595945 133.9229722 132.4797960   4.8428336  49.1233494 119.8870205
   4.1916315  49.7087575 119.5004219   5.6372698  49.6539689 119.9465243
  11.1095060  45.6158430 121.1475042  10.3324502  45.2769589 120.7030204
  11.7886541  45.6211053 120.4730007   2.5146121  44.7123601 115.6909577
   1.6073182  44.4812854 115.8900726   3.0117153  43.9161220 115.8783558
   5.4214199  53.4221108 118.6106263   4.7475898  53.7252805 119.2191221
   5.8080021  54.2250189 118.2611720   3.3910442  46.3544940 117.5521646
   2.9529872  45.6380798 117.0927283   4.1320883  46.5821054 116.9906737
   3.6205415  53.5900781 120.8253342   3.7957170  53.1188824 121.6398965
   2.9338203  54.2166547 121.0534603   7.5121669  45.2129321 117.1453703
   6.8950840  44.4876149 117.0486756   7.0438158  45.9738681 116.8020777
   8.3359355  48.5368493 121.2646343   8.6119199  48.4225088 122.1740217
   7.4663853  48.1385978 121.2258516   5.3055584  51.7123029 122.1694205
   5.8343351  51.2015484 121.5564367   5.5683804  51.3965559 123.0339738
   8.3995768  51.6839827 122.7849188   8.5732645  51.1186250 122.0323040
   8.8924659  52.4840722 122.6028678   9.3870940  51.0006592 119.8846086
  10.0821845  51.6213284 120.1033401   9.7294090  50.1501943 120.1598464
  11.2862363  48.4506297 121.4133417  11.8113687  48.7893570 120.6882737
  11.1984716  47.5153313 121.2296552   3.4785809  51.1068343 118.7921180
   2.9059776  51.7258531 118.3391652   4.0518602  51.6567705 119.3261102
   6.6983068  51.3905494 119.9229762   7.6313742  51.3251055 120.1262638
   6.6106281  52.2261760 119.4644295   9.3271085  50.7071364 116.8833710
   9.2484717  50.3731227 117.7769468  10.1480752  51.1993132 116.8825182
   3.8632607  42.4429156 116.1337232   4.8091712  42.3135364 116.2025650
   3.4846852  41.7043818 116.6106660   6.8975037  48.0239359 116.5043688
   7.6010887  48.2289362 117.1201344   6.1737686  48.5916121 116.7692772
   8.8061734  48.4621888 118.5542148   9.6407338  48.0303087 118.3719623
   8.6446077  48.2903902 119.4819043   8.4607626  44.9654002 119.9198487
   8.4056430  44.7998273 118.9786931   7.8353682  45.6730035 120.0760677
  17.4346009  58.9791540 128.6497325  18.0724419  58.8598287 127.9460665
  17.3166852  59.9272384 128.7085277  14.2435716  58.9318968 128.5858849
  13.9054227  58.8160032 127.6979384  15.1125484  58.5310133 128.5659856
  10.1022531  60.7854444 124.5755740   9.5387397  60.6944381 123.8072028
   9.9874926  59.9654349 125.0558233   7.6486963  62.2805636 127.4139961
   8.4408255  61.9396460 126.9986260   7.8883613  62.3900611 128.3342114
  15.6822090  64.4525412 119.8870205  15.0310070  65.0379492 119.5004219
  16.4766453  64.9831607 119.9465243   9.6077717  61.5414549 120.2857340
  10.3808593  60.9943536 120.1470215   9.9603116  62.4058798 120.4971801
  12.3718967  60.2467780 130.0825599  12.9682539  60.0223802 129.3682562
  12.4293938  59.5052525 130.6851046  11.9443995  57.7007215 117.9175790
  12.1969516  57.1788736 117.1559253  11.0068554  57.5373360 118.0202473
  16.9887278  56.7042993 125.7250533  17.7750367  56.2862417 125.3740950
  17.2525982  57.6089086 125.8932181  17.1597355  62.1415844 120.4239190
  16.5243188  62.2150470 121.1360094  16.8294762  62.7309443 119.7458269
  22.3895705  56.6418227 126.6283511  23.1220877  56.0717443 126.8621341
  21.6335061  56.2539827 127.0690017  11.6640284  59.6035321 120.1200165
  11.5476542  58.9280224 120.7881249  11.7742544  59.1167695 119.3032318
  14.0071825  59.0645468 123.8246854  13.6430032  58.5376089 124.5359775
  14.8638941  58.6743937 123.6513339  13.6477312  54.0935368 118.8208202
  13.8151714  54.9615604 119.1878673  13.4574481  54.2562650 117.8969492
  16.4052645  62.5552347 130.4874033  16.1053368  63.4577386 130.3789840
  16.0603704  62.2884530 131.3395186   9.8565126  59.0066144 126.5210737
   8.9315623  58.8742358 126.7288429  10.1049540  59.7860363 127.0180680
  19.8049789  55.0734887 128.1671470  18.8966666  55.0050295 127.8730231
  19.7537384  55.5506832 128.9953295  13.6266533  56.5493025 119.8054869
  13.5066158  56.9950076 120.6440349  12.9319121  56.8978343 119.2468407
   7.2173937  58.6499417 127.3554526   7.3466319  58.9033896 128.2693938
   6.5371389  59.2427125 127.0359181  11.3873425  69.3196667 123.4545000
  11.3097454  70.2704492 123.5333481  10.7835068  68.9742540 124.1119927
  19.3251599  57.0214498 120.6335203  20.2369455  57.2541885 120.4582901
  18.8161246  57.6051543 120.0710282  17.9321181  62.0040317 128.0248785
  17.3030044  62.1686031 127.3224853  17.5446843  62.4181926 128.7959749
  21.8110413  62.9394755 125.3793148  21.1261451  63.3193656 124.8290182
  21.8954262  63.5490081 126.1125096  19.0661345  60.5854714 131.9788492
  19.2778240  61.2286474 131.3022873  19.0191093  59.7517030 131.5110422
  13.4849143  61.7414725 125.2898870  13.9487488  62.0202428 124.5003492
  13.2205941  60.8398170 125.1071960  10.3773224  61.2886207 128.2278633
  10.9474581  61.7173475 127.5896118  10.9681336  61.0068791 128.9262819
  12.4218029  57.8637877 122.0988435  13.1242072  58.3158921 122.5662361
  12.0898657  57.2221696 122.7268328  20.1807173  63.4626669 130.1510849
  21.0024616  63.0606857 129.8693531  20.1769575  63.3594903 131.1026965
   8.1158108  56.4866009 124.3589045   7.3189272  56.5984704 124.8772541
   7.8883701  56.8252662 123.4929936  13.9463776  63.0110713 132.3071560
  14.0108208  63.4731120 133.1429732  13.2374700  62.3808077 132.4353870
  28.2713166  59.8065418 126.4995821  27.5176874  59.2372816 126.3439825
  28.4060707  59.7728082 127.4466455  13.6611794  64.6778820 122.1750540
  13.5257468  65.5230356 122.6035388  14.2021606  64.8798098 121.4116474
   7.1141191  62.1954258 122.7478465   7.6265712  62.9897508 122.8984030
   7.7663904  61.4980549 122.6812067   8.9236076  65.3120014 124.8301218
   9.1002704  66.2337979 124.6422202   9.7192909  64.9978434 125.2595598
  10.0467391  66.8298188 130.8311561  10.5974816  66.7015251 130.0588555
   9.2078867  67.1293077 130.4806453  17.3861508  65.5805186 134.3332283
  17.3679983  66.4014067 133.8412553  18.3081428  65.4559262 134.5582425
   5.0790108  60.5242912 123.5238036   5.9165330  60.9339921 123.3071743
   5.2568375  59.5842355 123.4938230  16.9754540  58.1917993 119.2121869
  16.4601163  58.9622598 119.4510256  16.7031848  57.5183129 119.8354930
  14.5601651  53.0367694 124.2707107  13.7043247  52.6474544 124.0912746
  14.9728603  53.1159655 123.4106893  21.9488814  60.9450348 121.1475042
  21.1718257  60.6061507 120.7030204  22.6280295  60.9502971 120.4730007
  16.7640843  56.0645085 121.0381650  16.4590979  56.3791234 121.8891793
  17.7171285  56.1426505 121.0808983  15.2087275  62.2235308 122.6874604
  14.6808636  61.4888068 122.3747841  14.7074778  63.0009985 122.4414572
  20.1880121  60.4184329 127.8041650  19.5303795  61.1083590 127.8921779
  20.9920520  60.8080761 128.1475636   9.9406003  52.8854975 125.0481215
  10.5149754  52.6630156 124.3154408  10.5276985  52.9543669 125.8009817
  18.9985580  58.7728702 125.8545592  19.5117461  59.4058693 126.3567302
  19.6486804  58.1729897 125.4888952  10.2675590  54.9159436 119.0677101
   9.4312902  55.2534122 119.3886375  10.1280359  54.7808416 118.1304238
  12.2428670  49.7596224 123.7756285  11.5893083  49.4445241 123.1512900
  12.2009144  49.1371964 124.5016108  13.3539875  60.0415519 115.6909577
  12.4466937  59.8104772 115.8900726  13.8510907  59.2453138 115.8783558
  16.2607954  68.7513026 118.6106263  15.5869653  69.0544723 119.2191221
  16.6473776  69.5542106 118.2611720  15.4766411  56.2478157 128.1003932
  14.5588972  56.4693104 127.9425620  15.8926554  56.3224468 127.2415640
  16.2601458  57.6469573 123.2306613  17.0073277  58.1590970 122.9213735
  16.5293048  57.3253626 124.0911006  14.5328109  60.1428114 120.2133567
  13.6239328  59.8587146 120.3106037  14.5623192  60.5627192 119.3536874
  19.7647376  63.7534703 123.9824735  19.3109703  62.9125613 124.0389925
  19.1341343  64.3896101 124.3199515  18.7080296  54.6826689 125.2125402
  17.9703052  54.1704075 125.5435645  18.9607069  54.2427071 124.4008679
  18.2080315  65.5911200 124.9174553  18.5003290  66.1516257 124.1986918
  18.7178936  65.8839761 125.6727712  18.8091923  47.4602941 125.8067171
  19.1150800  46.6000305 125.5193086  19.5344528  48.0520561 125.6066165
   5.1016279  57.8633628 124.1948769   4.9040679  57.2702988 123.4699836
   4.5462943  57.5585838 124.9124708  13.0813003  57.7556734 126.3143362
  13.1361612  56.8030571 126.2385839  12.2704205  57.9116173 126.7984661
  14.2304196  61.6836857 117.5521646  13.7923626  60.9672716 117.0927283
  14.9714637  61.9112972 116.9906737  11.0205363  56.3733794 124.0733741
  10.2073228  56.6727964 124.4798933  11.5164357  55.9789483 124.7908223
  13.1713940  66.3691551 126.0068006  13.1290119  66.5952397 125.0776538
  14.0876639  66.1354925 126.1553807  22.3477311  59.9594054 123.6097964
  22.2095210  60.1495650 122.6819153  21.9913530  60.7213437 124.0666015
  22.3746691  62.0270581 128.6209236  22.8083197  61.9345870 129.4692290
  23.0878271  62.0028082 127.9829252  11.2879741  63.2454580 125.8029969
  12.0820340  62.7504900 125.6012544  10.5771434  62.7172443 125.4397674
  16.1074586  65.6272675 130.1542336  16.1611608  66.1963612 130.9220052
  15.2389367  65.7974560 129.7896373   7.5962505  57.3897662 121.8789721
   6.6660093  57.3282117 122.0959683   7.6919977  56.8673614 121.0826363
   7.5148054  53.9152474 124.4667963   7.7754871  54.8297808 124.3577123
   8.3365226  53.4476917 124.6164576  23.2362240  62.0694282 131.1542121
  23.4298130  62.9740092 131.4001396  23.1362858  61.6101701 131.9880706
  15.0662685  59.7932937 131.7129268  15.9954745  59.9444097 131.5398235
  14.6453715  59.8816958 130.8577915  13.8651017  63.8183602 129.4827806
  13.7262103  63.4502386 130.3553744  13.0765613  64.3331241 129.3111763
  14.4599169  68.9192698 120.8253342  14.6350925  68.4480741 121.6398965
  13.7731957  69.5458464 121.0534603  15.4156232  63.1965205 126.8716643
  15.0806065  63.1565974 127.7674293  14.9160178  62.5309920 126.3987054
  18.3515424  60.5421239 117.1453703  17.7344595  59.8168067 117.0486756
  17.8831912  61.3030599 116.8020777  20.0069556  65.2520147 134.8059483
  19.9482102  64.5679367 134.1390067  20.4089074  65.9939137 134.3540109
   9.0260254  72.0682061 127.5993202   9.2656853  72.7000585 128.2772221
   8.1829451  71.7170101 127.8858562  10.1413970  54.7606663 116.2675007
   9.2643436  54.6395464 115.9037254  10.6171723  53.9692741 116.0153896
  20.0086963  63.2159731 133.0373463  19.1213742  62.8785653 133.1599862
  20.5785514  62.4842762 133.2742229  13.5388116  67.8761183 130.0034706
  13.4658288  68.6816155 130.5154011  13.0965509  68.0753149 129.1782728
  13.3277896  67.1132954 123.5137528  12.5445418  67.6554634 123.6075752
  14.0270641  67.6306933 123.9131769  16.6374546  52.9227583 126.1571733
  17.1343246  52.1697545 125.8372804  15.8661528  52.9591900 125.5914943
  24.4904303  58.6267949 127.7990025  24.4794180  59.5092664 127.4283958
  23.6221683  58.2739499 127.6044562  15.9986800  67.7748018 132.1592865
  16.7114772  68.4095482 132.0868766  15.5076828  67.8711884 131.3432867
  17.7204327  61.6799270 123.7310157  16.7860605  61.8000733 123.5614861
  17.8980995  60.7771737 123.4670167  13.2209515  55.0644966 125.8843418
  12.8507302  54.5116006 126.5724323  13.7168607  54.4603099 125.3318418
  21.1076878  57.5216589 124.2660191  21.5737330  58.3544581 124.1920493
  21.5584379  57.0561571 124.9705449  11.0498713  65.5242461 132.9798436
  11.7508173  66.1578944 133.1327830  10.5793828  65.8657193 132.2194075
  19.1753109  63.8660411 121.2646343  19.4512953  63.7517005 122.1740217
  18.3057608  63.4677896 121.2258516  18.8499999  58.0787068 130.8050986
  18.1971450  58.3262976 130.1503439  19.2280379  57.2651207 130.4713463
  15.8107173  68.1146762 124.9079156  15.9929568  67.2968418 125.3706909
  16.6340159  68.3314454 124.4704046  16.1449339  67.0414947 122.1694205
  16.6737105  66.5307401 121.5564367  16.4077558  66.7257477 123.0339738
   6.6466431  65.0578816 129.9129539   7.2319868  64.3122504 130.0457443
   6.4491270  65.3682773 130.7966202   9.5005087  68.0930063 124.9291981
   8.8315462  68.5776191 124.4456021   9.3617956  68.3399284 125.8435359
  13.6410355  70.1273807 131.5274639  14.1928663  70.2905428 132.2923725
  13.9816549  70.7178245 130.8554664   4.8692664  56.3548518 121.7087913
   5.1646105  55.4459197 121.6554967   3.9680699  56.3336258 121.3868915
  16.7778742  68.0755782 128.5138321  16.6529882  67.2745522 128.0049267
  17.4357834  68.5701976 128.0252291  18.8413651  65.8764803 130.1417872
  17.8943986  65.7570154 130.0696198  19.1896424  64.9887301 130.2244133
   6.5980505  54.0362616 121.8327238   6.2693211  53.1559995 121.6502344
   6.9519876  53.9810285 122.7203627  15.8460084  65.6717519 126.3422224
  15.6985047  64.7434226 126.5229794  16.6713578  65.6937609 125.8579299
   9.7122328  54.3235586 122.2002716  10.0518401  54.8521507 121.4781324
  10.1594449  54.6615992 122.9761282  19.4494206  66.4946078 127.4287097
  20.3740753  66.2888939 127.2911548  19.2809509  66.2462479 128.3376438
  11.6990476  52.8210207 120.3996009  12.4198838  53.1991460 119.8959726
  11.0755780  53.5399084 120.5030987  15.8421598  53.5255356 121.3354341
  16.0585213  54.4079994 121.0343169  15.3615666  53.1341570 120.6059983
  19.2389522  67.0131745 122.7849188  19.4126400  66.4478167 122.0323040
  19.7318413  67.8132640 122.6028678  11.8454099  52.3557998 123.2293545
  11.9670010  51.4274644 123.4284433  11.5556141  52.3696684 122.3171861
  25.0928913  59.7768168 124.4039488  25.5360059  59.0275493 124.0058611
  24.2155424  59.7678304 124.0213220  20.2264695  66.3298509 119.8846086
  20.9215599  66.9505202 120.1033401  20.5687845  65.4793861 120.1598464
  22.1256118  63.7798215 121.4133417  22.6507442  64.1185488 120.6882737
  22.0378470  62.8445230 121.2296552  13.7876167  67.6932289 133.5423294
  14.0963293  67.4481435 134.4145993  14.5851649  67.8978927 133.0542164
  13.8096779  69.8470198 125.7728670  13.3701769  69.3546577 126.4661527
  14.5604896  69.3043166 125.5320745   6.2889118  66.0381739 125.7753298
   7.1147137  65.7385511 125.3951942   5.9383170  65.2689361 126.2243087
  11.2570651  65.3908207 127.8450972  10.6350660  64.7278912 127.5453200
  11.9275518  65.4169339 127.1624620   4.4897723  63.9568065 126.7342232
   3.6529631  63.5290240 126.5526233   4.4621368  64.1500509 127.6713023
  21.8150024  64.4131119 136.7184615  21.0245568  64.3955257 136.1789114
  21.5783378  64.9519412 137.4733652  21.9347899  61.2623585 134.0317344
  21.9845904  61.0973592 134.9732866  21.8261822  60.3950844 133.6415224
  10.8184158  63.9412131 121.3209432  10.9672278  64.6247595 120.6676105
  11.6250601  63.9217221 121.8358888  23.4366096  63.6820526 134.2759365
  23.1450904  64.0450507 135.1122826  22.8238227  62.9687535 134.0972697
  24.6361778  61.2473406 126.7961935  25.4708669  61.6863210 126.9599496
  24.7720907  60.7712059 125.9770181  21.6853284  58.8053141 132.7439423
  22.1607406  58.9980787 131.9358274  20.7618849  58.8612327 132.4982807
   8.5736791  59.9677308 122.3270501   8.3282833  59.0639638 122.5250711
   8.7432705  59.9694459 121.3849979   7.8432438  55.7005666 119.8256663
   7.1501683  55.7750021 119.1696699   7.5984190  54.9366009 120.3478180
  14.3179563  66.4360261 118.7921180  13.7453530  67.0550448 118.3391652
  14.8912357  66.9859623 119.3261102  17.5376823  66.7197411 119.9229762
  18.4707496  66.6542973 120.1262638  17.4500036  67.5553678 119.4644295
  20.1664840  66.0363282 116.8833710  20.0878471  65.7023145 117.7769468
  20.9874506  66.5285049 116.8825182  22.8643031  58.9025021 130.0910028
  22.8319351  57.9641022 130.2769712  23.4743654  58.9809058 129.3575853
  14.7026362  57.7721074 116.1337232  15.6485466  57.6427282 116.2025650
  14.3240607  57.0335736 116.6106660  23.0137519  55.6936064 130.1368311
  22.4976568  54.9094521 129.9498240  23.8977468  55.3654781 130.3014831
  20.6748246  49.4377080 126.0964124  20.4773067  49.1292168 126.9807456
  21.2847952  50.1638719 126.2262054  28.6819581  59.9641028 129.2316065
  29.4122969  59.7026316 129.7923768  28.0726526  59.2269750 129.2718133
  26.7634878  58.1048890 129.8290516  26.0368041  57.9704855 129.2207008
  26.3482165  58.4125719 130.6347234  12.8869279  55.6971050 116.0692118
  11.9800734  55.4004163 116.1454831  13.1645260  55.4000868 115.2026404
  14.5031345  50.2407940 122.2236359  13.6932073  49.8955025 122.5991605
  15.1915761  49.9315484 122.8123970  16.4321893  49.3185987 123.8460655
  16.9852931  49.7381440 124.5050679  16.6691979  48.3921735 123.8883611
  11.6568063  52.5557985 116.2104097  12.5187227  52.8812884 116.4699914
  11.8418408  51.7689481 115.6977163  19.8100700  51.4286512 123.3539320
  19.2299369  52.0871316 122.9717372  19.5436633  50.6063856 122.9426737
  18.2604266  50.8291570 125.5560640  18.7604045  50.9408104 124.7474959
  18.9039874  50.5252622 126.1961449   5.5872222  60.5698579 126.3650300
   5.5642910  60.6686266 125.4132184   5.8972858  61.4163730 126.6867467
  18.5925578  53.5886602 122.4095668  17.7051433  53.8736253 122.1915863
  19.0079567  53.4280366 121.5622945  21.9440114  53.6133123 126.1250007
  22.7200504  54.1029576 126.3974624  21.2188248  54.0391177 126.5821877
  24.3812673  54.3260742 127.1823948  24.9757163  54.0856478 126.4717256
  24.4539256  53.6067873 127.8097484   6.6009828  68.1694353 127.4967113
   6.4664296  67.4094754 126.9305111   6.1841891  68.8935253 127.0295902
  17.7368791  63.3531277 116.5043688  18.4404642  63.5581279 117.1201344
  17.0131440  63.9208039 116.7692772  18.5666602  59.1041138 122.6245958
  18.5101803  59.5609690 121.7853591  19.1194944  58.3431823 122.4468801
  22.3771408  54.8930870 123.4496078  22.1208342  54.4927506 124.2804285
  21.7524276  55.6074664 123.3246217  26.6883745  57.6326943 125.9567369
  26.1283303  57.7020133 126.7298931  26.0827249  57.4567928 125.2366865
   9.7578954  69.0663670 127.7085555   9.6411338  70.0109103 127.6064246
   8.9371401  68.7637232 128.0971355  19.6455489  63.7913806 118.5542148
  20.4801093  63.3595005 118.3719623  19.4839832  63.6195820 119.4819043
  19.3001381  60.2945919 119.9198487  19.2450185  60.1290191 118.9786931
  18.6747436  61.0021952 120.0760677  12.6097506  49.7954028 119.4983806
  12.5976176  50.7395868 119.6552077  13.5020928  49.6124174 119.2043267
  10.7833468  69.7191932 130.9241484  11.6860715  69.7515543 131.2407979
  10.5570838  68.7892383 130.9387820  12.5387070  68.4722919 127.5851562
  11.5882701  68.4724780 127.4715935  12.8419557  67.7255653 127.0687597
  16.4249626  46.3896805 123.7529743  15.6582022  45.8355292 123.8986425
  16.8360331  46.4618674 124.6143894  28.2739764  74.3083457 128.6497325
  28.9118174  74.1890205 127.9460665  28.1560607  75.2564301 128.7085277
  25.0829470  74.2610885 128.5858849  24.7447982  74.1451950 127.6979384
  25.9519238  73.8602050 128.5659856  20.9416286  76.1146362 124.5755740
  20.3781151  76.0236299 123.8072028  20.8268681  75.2946266 125.0558233
  25.5649253  75.4145737 134.5445055  25.5537894  75.0198535 133.6725559
  25.7269893  74.6811810 135.1378826  18.4880718  77.6097553 127.4139961
  19.2802010  77.2688378 126.9986260  18.7277368  77.7192528 128.3342114
  26.5215845  79.7817329 119.8870205  25.8703824  80.3671410 119.5004219
  27.3160207  80.3123524 119.9465243  20.4471472  76.8706467 120.2857340
  21.2202348  76.3235454 120.1470215  20.7996871  77.7350716 120.4971801
  22.2856514  78.1982849 133.4924239  21.9946380  79.1028480 133.3770905
  22.9213499  78.2399376 134.2068309  23.2112721  75.5759697 130.0825599
  23.8076293  75.3515720 129.3682562  23.2687693  74.8344443 130.6851046
  22.7837750  73.0299133 117.9175790  23.0363270  72.5080654 117.1559253
  21.8462309  72.8665278 118.0202473  27.8281032  72.0334911 125.7250533
  28.6144122  71.6154334 125.3740950  28.0919737  72.9381003 125.8932181
  27.9991110  77.4707761 120.4239190  27.3636943  77.5442388 121.1360094
  27.6688516  78.0601360 119.7458269  33.2289460  71.9710144 126.6283511
  33.9614631  71.4009361 126.8621341  32.4728815  71.5831745 127.0690017
  22.5034038  74.9327239 120.1200165  22.3870296  74.2572142 120.7881249
  22.6136298  74.4459613 119.3032318  24.8465579  74.3937386 123.8246854
  24.4823786  73.8668007 124.5359775  25.7032695  74.0035855 123.6513339
  30.7514880  65.6831718 131.0878120  30.4198205  66.5527129 130.8639335
  30.1560493  65.3668002 131.7672150  24.4871066  69.4227285 118.8208202
  24.6545469  70.2907522 119.1878673  24.2968235  69.5854567 117.8969492
  27.2446399  77.8844264 130.4874033  26.9447122  78.7869303 130.3789840
  26.8997459  77.6176448 131.3395186  20.6958881  74.3358061 126.5210737
  19.7709377  74.2034275 126.7288429  20.9443294  75.1152280 127.0180680
  30.6443543  70.4026805 128.1671470  29.7360421  70.3342213 127.8730231
  30.5931139  70.8798750 128.9953295  24.4660287  71.8784943 119.8054869
  24.3459912  72.3241994 120.6440349  23.7712875  72.2270261 119.2468407
  18.0567692  73.9791335 127.3554526  18.1860073  74.2325814 128.2693938
  17.3765143  74.5719043 127.0359181  22.2267179  84.6488585 123.4545000
  22.1491209  85.5996410 123.5333481  21.6228823  84.3034457 124.1119927
  24.7184409  71.8216450 136.1106367  23.9417743  72.3810370 136.1009232
  25.3574972  72.3073233 136.6321237  32.5105190  68.6043243 129.9449344
  31.8679570  68.8975776 129.2989139  32.0060118  68.4896163 130.7502541
  30.1645353  72.3506416 120.6335203  31.0763209  72.5833803 120.4582901
  29.6555000  72.9343460 120.0710282  22.9730781  74.6301904 135.6724334
  23.7145466  75.1686947 135.3959158  22.2667767  75.2568192 135.8295886
  28.4486121  76.7731044 134.2696496  28.8569477  76.3313455 133.5251128
  27.7263382  76.1983672 134.5230689  24.8017191  71.7103651 131.6430053
  25.6478386  72.1343064 131.7864702  24.7415829  71.0537275 132.3368616
  28.7714936  77.3332235 128.0248785  28.1423798  77.4977949 127.3224853
  28.3840598  77.7473844 128.7959749  32.6504167  78.2686672 125.3793148
  31.9655206  78.6485574 124.8290182  32.7348017  78.8781999 126.1125096
  27.9516636  69.3708019 133.3011226  27.7077568  70.1250080 132.7645502
  28.2276567  69.7493367 134.1358473  29.9055099  75.9146631 131.9788492
  30.1171994  76.5578391 131.3022873  29.8584847  75.0808948 131.5110422
  27.5081328  68.5264452 128.8825064  26.6465807  68.8245706 129.1741802
  27.5343763  68.7434851 127.9506097  24.3242897  77.0706643 125.2898870
  24.7881243  77.3494346 124.5003492  24.0599696  76.1690087 125.1071960
  21.2166978  76.6178124 128.2278633  21.7868336  77.0465393 127.5896118
  21.8075090  76.3360709 128.9262819  23.2611783  73.1929795 122.0988435
  23.9635827  73.6450839 122.5662361  22.9292412  72.5513614 122.7268328
  21.7092145  71.7841552 136.4739644  21.0790806  72.4657833 136.7075041
  21.6028233  71.6724633 135.5292783  17.0037117  71.4513348 127.4005568
  16.2136171  71.7070876 126.9245679  17.4948365  72.2661686 127.5057609
  31.0200927  78.7918587 130.1510849  31.8418371  78.3898774 129.8693531
  31.0163330  78.6886821 131.1026965  18.9551863  71.8157927 124.3589045
  18.1583026  71.9276621 124.8772541  18.7277455  72.1544579 123.4929936
  24.7857530  78.3402630 132.3071560  24.8501963  78.8023037 133.1429732
  24.0768454  77.7099995 132.4353870  15.2874820  71.7043838 129.8320559
  15.5382859  72.5890848 130.0978135  15.8234369  71.5248440 129.0595651
  39.1106920  75.1357335 126.4995821  38.3570628  74.5664733 126.3439825
  39.2454461  75.1020000 127.4466455  24.5005548  80.0070738 122.1750540
  24.3651223  80.8522273 122.6035388  25.0415361  80.2090015 121.4116474
  17.9534946  77.5246176 122.7478465  18.4659466  78.3189426 122.8984030
  18.6057658  76.8272466 122.6812067  19.7629830  80.6411932 124.8301218
  19.9396459  81.5629897 124.6422202  20.5586664  80.3270351 125.2595598
  23.9040849  67.5020197 136.4285152  24.6450562  68.1027350 136.3489614
  24.1358772  66.7597834 135.8703194  19.0482187  72.6876564 134.7063382
  18.9335702  71.7861821 135.0070480  18.1926704  72.9340261 134.3548198
  26.1274024  80.6294304 136.3050882  25.6837879  79.8430683 135.9871787
  26.7891238  80.8173455 135.6394773  20.8861146  82.1590106 130.8311561
  21.4368571  82.0307169 130.0588555  20.0472622  82.4584995 130.4806453
  28.2255263  80.9097104 134.3332283  28.2073738  81.7305985 133.8412553
  29.1475183  80.7851179 134.5582425  24.6828317  78.4241234 135.1755792
  25.2156654  77.6629522 134.9455100  24.1542398  78.1314885 135.9179946
  27.8498012  63.5301300 130.7049434  27.5062281  64.4202941 130.6288544
  28.2176974  63.3402957 129.8419019  15.9183862  75.8534830 123.5238036
  16.7559084  76.2631838 123.3071743  16.0962130  74.9134272 123.4938230
  27.8148294  73.5209911 119.2121869  27.2994918  74.2914515 119.4510256
  27.5425603  72.8475047 119.8354930  25.3995405  68.3659611 124.2707107
  24.5437002  67.9766462 124.0912746  25.8122357  68.4451572 123.4106893
  26.9294552  65.9005955 128.6698667  26.4259348  65.8636090 127.8566472
  27.2225159  66.8098697 128.7295323  23.1737438  65.9844684 127.6764849
  24.0390435  65.7887493 127.3170738  23.2414947  65.7555036 128.6034205
  32.7882569  76.2742265 121.1475042  32.0112011  75.9353425 120.7030204
  33.4674050  76.2794888 120.4730007  27.6034598  71.3937003 121.0381650
  27.2984733  71.7083152 121.8891793  28.5565040  71.4718423 121.0808983
  26.0481029  77.5527226 122.6874604  25.5202391  76.8179986 122.3747841
  25.5468532  78.3301902 122.4414572  31.0273875  75.7476247 127.8041650
  30.3697550  76.4375508 127.8921779  31.8314275  76.1372679 128.1475636
  20.7799757  68.2146892 125.0481215  21.3543509  67.9922074 124.3154408
  21.3670739  68.2835587 125.8009817  29.8379334  74.1020619 125.8545592
  30.3511216  74.7350611 126.3567302  30.4880558  73.5021815 125.4888952
  21.1069344  70.2451353 119.0677101  20.2706656  70.5826040 119.3886375
  20.9674114  70.1100333 118.1304238  23.0822425  65.0888141 123.7756285
  22.4286837  64.7737158 123.1512900  23.0402899  64.4663882 124.5016108
  24.1933630  75.3707436 115.6909577  23.2860691  75.1396690 115.8900726
  24.6904662  74.5745056 115.8783558  27.1001708  84.0804944 118.6106263
  26.4263407  84.3836640 119.2191221  27.4867530  84.8834024 118.2611720
  26.3160165  71.5770075 128.1003932  25.3982726  71.7985022 127.9425620
  26.7320309  71.6516385 127.2415640  27.0995213  72.9761491 123.2306613
  27.8467032  73.4882888 122.9213735  27.3686802  72.6545543 124.0911006
  25.3721863  75.4720031 120.2133567  24.4633082  75.1879064 120.3106037
  25.4016947  75.8919110 119.3536874  30.6041130  79.0826621 123.9824735
  30.1503458  78.2417531 124.0389925  29.9735097  79.7188019 124.3199515
  29.5474050  70.0118607 125.2125402  28.8096807  69.4995993 125.5435645
  29.8000824  69.5718988 124.4008679  29.0474070  80.9203117 124.9174553
  29.3397044  81.4808175 124.1986918  29.5572690  81.2131678 125.6727712
  29.6485677  62.7894859 125.8067171  29.9544554  61.9292222 125.5193086
  30.3738282  63.3812479 125.6066165  15.9410033  73.1925545 124.1948769
  15.7434433  72.5994906 123.4699836  15.3856697  72.8877756 124.9124708
  23.9206757  73.0848652 126.3143362  23.9755367  72.1322488 126.2385839
  23.1097959  73.2408091 126.7984661  25.0697951  77.0128775 117.5521646
  24.6317381  76.2964634 117.0927283  25.8108392  77.2404890 116.9906737
  21.8599117  71.7025712 124.0733741  21.0466983  72.0019882 124.4798933
  22.3558111  71.3081400 124.7908223  24.0107695  81.6983469 126.0068006
  23.9683874  81.9244315 125.0776538  24.9270394  81.4646843 126.1553807
  27.4573329  72.1667536 132.9048635  27.8122716  72.3939009 133.7643101
  28.1045460  72.4985913 132.2825890  33.1871066  75.2885972 123.6097964
  33.0488964  75.4787568 122.6819153  32.8307284  76.0505355 124.0666015
  21.3513192  69.2744067 129.6894976  21.9912571  69.1332826 128.9917939
  20.5190722  68.9878580 129.3133578  33.2140445  77.3562499 128.6209236
  33.6476952  77.2637788 129.4692290  33.9272026  77.3319999 127.9829252
  22.1273496  78.5746498 125.8029969  22.9214094  78.0796818 125.6012544
  21.4165188  78.0464361 125.4397674  26.9468340  80.9564593 130.1542336
  27.0005362  81.5255529 130.9220052  26.0783121  81.1266478 129.7896373
  18.4356259  72.7189579 121.8789721  17.5053847  72.6574035 122.0959683
  18.5313731  72.1965532 121.0826363  18.3541808  69.2444392 124.4667963
  18.6148625  70.1589725 124.3577123  19.1758981  68.7768835 124.6164576
  19.8266734  70.6582149 131.6366787  20.4989787  70.4499511 130.9879436
  18.9996520  70.4604235 131.1972020  34.0755995  77.3986200 131.1542121
  34.2691885  78.3032010 131.4001396  33.9756613  76.9393619 131.9880706
  25.7292306  67.2844090 133.6532448  25.0820221  67.9834040 133.5596925
  26.4993321  67.7180234 134.0208697  29.1371103  77.5492942 136.7283002
  28.9856610  77.3203494 135.8113085  29.1275783  78.5063544 136.7414347
  25.9056440  75.1224855 131.7129268  26.8348500  75.2736015 131.5398235
  25.4847470  75.2108876 130.8577915  24.7044772  79.1475520 129.4827806
  24.5655857  78.7794304 130.3553744  23.9159368  79.6623159 129.3111763
  25.2992924  84.2484616 120.8253342  25.4744679  83.7772659 121.6398965
  24.6125712  84.8750382 121.0534603  26.2549987  78.5257122 126.8716643
  25.9199819  78.4857892 127.7674293  25.7553932  77.8601838 126.3987054
  20.2294231  73.9324752 132.3969225  20.0914029  73.2004991 132.9980764
  21.1399154  73.8433652 132.1153412  29.1909178  75.8713157 117.1453703
  28.5738349  75.1459985 117.0486756  28.7225667  76.6322517 116.8020777
  22.8576531  73.6444712 131.8852904  23.5676150  73.0037904 131.8439523
  22.8145840  73.8957606 132.8079085  30.8463310  80.5812065 134.8059483
  30.7875856  79.8971285 134.1390067  31.2482828  81.3231055 134.3540109
  21.5705465  70.6309929 133.7048544  21.0342822  70.1800668 134.3570140
  20.9822174  70.7655838 132.9619008  19.8654009  87.3973979 127.5993202
  20.1050607  88.0292503 128.2772221  19.0223205  87.0462019 127.8858562
  20.9807724  70.0898581 116.2675007  20.1037191  69.9687382 115.9037254
  21.4565477  69.2984659 116.0153896  30.8480717  78.5451649 133.0373463
  29.9607496  78.2077571 133.1599862  31.4179268  77.8134680 133.2742229
  12.5009864  74.8775741 126.3616515  13.1880904  74.5637471 125.7737530
  12.3457993  75.7817105 126.0883766  17.3044587  69.7665937 130.7901538
  17.2202775  69.1591607 130.0551948  16.4827293  70.2574955 130.7911035
  24.3781871  83.2053101 130.0034706  24.3052042  84.0108073 130.5154011
  23.9359264  83.4045067 129.1782728  24.1671650  82.4424871 123.5137528
  23.3839172  82.9846551 123.6075752  24.8664396  82.9598851 123.9131769
  27.4768301  68.2519501 126.1571733  27.9737000  67.4989463 125.8372804
  26.7055282  68.2883817 125.5914943  35.3298058  73.9559866 127.7990025
  35.3187934  74.8384582 127.4283958  34.4615437  73.6031417 127.6044562
  26.8380554  83.1039935 132.1592865  27.5508526  83.7387400 132.0868766
  26.3470583  83.2003801 131.3432867  28.5598081  77.0091188 123.7310157
  27.6254360  77.1292650 123.5614861  28.7374750  76.1063655 123.4670167
  24.0603269  70.3936884 125.8843418  23.6901057  69.8407924 126.5724323
  24.5562362  69.7895017 125.3318418  31.9470633  72.8508507 124.2660191
  32.4131085  73.6836499 124.1920493  32.3978133  72.3853489 124.9705449
  21.8892468  80.8534379 132.9798436  22.5901927  81.4870862 133.1327830
  21.4187583  81.1949110 132.2194075  30.0146864  79.1952328 121.2646343
  30.2906708  79.0808923 122.1740217  29.1451362  78.7969813 121.2258516
  29.9187295  65.2189094 128.3051092  29.0050375  65.4493321 128.4733299
  30.3480397  65.3027538 129.1565125  29.6893754  73.4078986 130.8050986
  29.0365204  73.6554894 130.1503439  30.0674134  72.5943124 130.4713463
  26.6500928  83.4438679 124.9079156  26.8323322  82.6260335 125.3706909
  27.4733914  83.6606372 124.4704046  26.9843093  82.3706864 122.1694205
  27.5130860  81.8599319 121.5564367  27.2471313  82.0549395 123.0339738
  25.7381327  74.1498797 137.2917023  25.0621964  74.0492927 137.9619399
  26.5608961  73.9938011 137.7553021  17.4860186  80.3870734 129.9129539
  18.0713623  79.6414422 130.0457443  17.2885024  80.6974690 130.7966202
  20.3398841  83.4221981 124.9291981  19.6709216  83.9068109 124.4456021
  20.2011711  83.6691202 125.8435359  12.0777841  72.9576334 128.6333982
  12.1161940  72.4239925 129.4271100  11.5718133  72.4311539 128.0144959
  24.4804110  85.4565725 131.5274639  25.0322418  85.6197346 132.2923725
  24.8210303  86.0470162 130.8554664  19.4568603  67.8040874 132.1296524
  19.5209929  68.6655705 131.7173922  19.3935723  67.1914876 131.3968882
  18.9320875  69.8764007 135.7769558  19.5592914  69.4941084 136.3907083
  18.0748794  69.6578209 136.1425251  29.3314984  80.2826982 137.3823294
  29.8754888  80.8956940 136.8878249  28.7501829  80.8406561 137.8990307
  15.7086418  71.6840436 121.7087913  16.0039859  70.7751114 121.6554967
  14.8074454  71.6628176 121.3868915  27.6172497  83.4047700 128.5138321
  27.4923636  82.6037440 128.0049267  28.2751588  83.8993894 128.0252291
  19.2380665  69.7596433 127.6915462  18.5167251  70.3732400 127.5522935
  20.0273921  70.2954197 127.6132108  29.6807405  81.2056720 130.1417872
  28.7337741  81.0862071 130.0696198  30.0290178  80.3179218 130.2244133
  22.0406979  67.0950859 133.9656113  22.5641381  67.3413156 134.7282423
  21.8219312  67.9270894 133.5459251  17.4374260  69.3654534 121.8327238
  17.1086966  68.4851913 121.6502344  17.7913630  69.3102202 122.7203627
  26.6853839  81.0009436 126.3422224  26.5378801  80.0726144 126.5229794
  27.5107332  81.0229527 125.8579299  20.5516083  69.6527504 122.2002716
  20.8912155  70.1813425 121.4781324  20.9988203  69.9907910 122.9761282
  30.2887960  81.8237995 127.4287097  31.2134508  81.6180857 127.2911548
  30.1203264  81.5754396 128.3376438  23.2459524  68.0364554 131.6505784
  22.9056344  67.2372367 132.0526464  22.5398530  68.3366265 131.0782617
  23.8975996  65.1213867 130.1033107  24.7202065  64.6474345 129.9811997
  24.1414059  65.9004350 130.6031793  22.5384230  68.1502125 120.3996009
  23.2592593  68.5283378 119.8959726  21.9149534  68.8691002 120.5030987
  26.6815353  68.8547274 121.3354341  26.8978967  69.7371912 121.0343169
  26.2009420  68.4633488 120.6059983  21.4214574  71.8132987 127.9125086
  21.2759155  72.1273290 128.8049367  20.9439778  72.4317888 127.3595984
  23.2810957  68.8035535 127.9605975  23.2672526  67.9076629 127.6238273
  23.9983385  68.8106199 128.5944261  25.1337088  69.2372876 130.0059103
  24.8754866  70.1589946 130.0043433  24.6022128  68.8403310 130.6959567
  30.0783277  82.3423663 122.7849188  30.2520154  81.7770085 122.0323040
  30.5712168  83.1424558 122.6028678  15.8960237  74.3538332 130.8512747
  15.3513705  75.1298140 130.9833021  16.7739586  74.7009136 130.6931868
  22.6847853  67.6849916 123.2293545  22.8063764  66.7566562 123.4284433
  22.3949896  67.6988602 122.3171861  25.5539044  65.3704826 126.3660265
  25.5760740  65.4344159 125.4112245  25.9707103  64.5309335 126.5600771
  35.9322668  75.1060086 124.4039488  36.3753814  74.3567411 124.0058611
  35.0549178  75.0970222 124.0213220  31.0658449  81.6590427 119.8846086
  31.7609354  82.2797120 120.1033401  31.4081599  80.8085778 120.1598464
  16.6826258  73.4808228 133.7442904  15.9407994  73.6290863 134.3307534
  16.3619003  73.7416494 132.8809653  32.9649872  79.1090133 121.4133417
  33.4901196  79.4477405 120.6882737  32.8772225  78.1737148 121.2296552
  24.6269921  83.0224206 133.5423294  24.9357047  82.7773353 134.4145993
  25.4245403  83.2270845 133.0542164  24.6490533  85.1762116 125.7728670
  24.2095523  84.6838495 126.4661527  25.3998650  84.6335084 125.5320745
  17.1282872  81.3673657 125.7753298  17.9540892  81.0677429 125.3951942
  16.7776924  80.5981279 126.2243087  22.0964405  80.7200125 127.8450972
  21.4744414  80.0570830 127.5453200  22.7669272  80.7461257 127.1624620
  15.3291477  79.2859983 126.7342232  14.4923385  78.8582158 126.5526233
  15.3015123  79.4792427 127.6713023  22.1688933  69.1981913 137.4383478
  22.2177088  70.0744036 137.0561247  22.7111447  68.6559306 136.8655121
  32.6543778  79.7423036 136.7184615  31.8639322  79.7247175 136.1789114
  32.4177133  80.2811330 137.4733652  32.7741653  76.5915503 134.0317344
  32.8239658  76.4265510 134.9732866  32.6655577  75.7242762 133.6415224
  21.6577912  79.2704048 121.3209432  21.8066032  79.9539513 120.6676105
  22.4644356  79.2509138 121.8358888  30.0645416  72.5746431 135.3476650
  30.9655279  72.4352895 135.0560648  30.1393390  72.7400885 136.2874828
  24.3988221  69.9513285 134.1929837  23.5291531  70.2446851 133.9212425
  24.6347702  70.5353730 134.9137100  34.2759850  79.0112444 134.2759365
  33.9844659  79.3742425 135.1122826  33.6631982  78.2979452 134.0972697
  35.4755533  76.5765324 126.7961935  36.3102424  77.0155128 126.9599496
  35.6114661  76.1003977 125.9770181  32.5247039  74.1345059 132.7439423
  33.0001160  74.3272705 131.9358274  31.6012604  74.1904245 132.4982807
  19.4130545  75.2969226 122.3270501  19.1676587  74.3931556 122.5250711
  19.5826460  75.2986376 121.3849979  27.1027255  66.1692902 131.7095257
  27.6209199  66.9053929 131.3841745  26.7482388  66.4756896 132.5442016
  18.6826193  71.0297583 119.8256663  17.9895438  71.1041938 119.1696699
  18.4377945  70.2657927 120.3478180  27.3539849  62.5893185 127.2296154
  27.6341603  61.9216374 127.8556580  28.1390456  62.7822280 126.7170817
  25.1573318  81.7652179 118.7921180  24.5847285  82.3842366 118.3391652
  25.7306111  82.3151540 119.3261102  31.2248708  71.0110819 130.9767729
  32.1766130  71.1108916 130.9979953  31.0552158  70.2189087 131.4865813
  29.2463087  68.0966402 131.1627130  28.6513019  68.3771415 130.4673618
  28.9612784  68.5860303 131.9343871  28.3770577  82.0489329 119.9229762
  29.3101251  81.9834891 120.1262638  28.2893790  82.8845596 119.4644295
  31.0058594  81.3655199 116.8833710  30.9272226  81.0315063 117.7769468
  31.8268261  81.8576967 116.8825182  33.7036785  74.2316939 130.0910028
  33.6713105  73.2932939 130.2769712  34.3137409  74.3100975 129.3575853
  25.5420116  73.1012991 116.1337232  26.4879221  72.9719200 116.2025650
  25.1634361  72.3627653 116.6106660  33.8531274  71.0227982 130.1368311
  33.3370322  70.2386439 129.9498240  34.7371222  70.6946699 130.3014831
  31.5142001  64.7668998 126.0964124  31.3166822  64.4584086 126.9807456
  32.1241706  65.4930636 126.2262054  39.5213335  75.2932945 129.2316065
  40.2516724  75.0318233 129.7923768  38.9120281  74.5561667 129.2718133
  37.6028632  73.4340808 129.8290516  36.8761796  73.2996773 129.2207008
  37.1875919  73.7417637 130.6347234  25.4258809  77.1530738 137.5937889
  26.3461818  77.3309337 137.7877936  25.3908392  76.2086783 137.4417589
  23.7263033  71.0262968 116.0692118  22.8194489  70.7296081 116.1454831
  24.0039014  70.7292786 115.2026404  14.6440974  72.3469331 126.5191164
  14.3243758  71.4934639 126.2265538  14.0974402  72.5617909 127.2749131
  18.4220881  75.0631772 130.2360670  18.6406891  75.9948880 130.2548704
  18.8346655  74.7039747 131.0215474  25.3425099  65.5699858 122.2236359
  24.5325827  65.2246943 122.5991605  26.0309516  65.2607401 122.8123970
  27.2715647  64.6477904 123.8460655  27.8246686  65.0673358 124.5050679
  27.5085734  63.7213653 123.8883611  23.2948747  70.6364978 139.6263419
  23.1945473  71.5859335 139.5575510  23.0770289  70.3083217 138.7539489
  22.4961818  67.8849903 116.2104097  23.3580982  68.2104801 116.4699914
  22.6812162  67.0981399 115.6977163  14.5129234  75.9672243 128.4884286
  13.8192705  75.5526196 127.9754240  15.2602225  76.0092779 127.8917704
  30.6494454  66.7578430 123.3539320  30.0693123  67.4163234 122.9717372
  30.3830387  65.9355774 122.9426737  29.0998021  66.1583487 125.5560640
  29.5997799  66.2700022 124.7474959  29.7433629  65.8544540 126.1961449
  23.1580017  74.0662117 138.4428481  22.6747098  74.8662477 138.6492370
  23.2440956  74.0770062 137.4895925  16.4265976  75.8990497 126.3650300
  16.4036664  75.9978184 125.4132184  16.7366613  76.7455647 126.6867467
  19.0853354  77.9566652 130.4796915  20.0396608  77.9250594 130.4126846
  18.8865878  77.4957275 131.2947141  19.6752736  76.5267768 133.0467713
  20.4945625  77.0211846 133.0702550  19.9489544  75.6099736 133.0185280
  29.4319332  68.9178520 122.4095668  28.5445187  69.2028171 122.1915863
  29.8473321  68.7572283 121.5622945  32.7833869  68.9425041 126.1250007
  33.5594259  69.4321493 126.3974624  32.0582003  69.3683095 126.5821877
  35.2206427  69.6552660 127.1823948  35.8150918  69.4148396 126.4717256
  35.2933011  68.9359791 127.8097484  17.4403583  83.4986271 127.4967113
  17.3058051  82.7386672 126.9305111  17.0235645  84.2227171 127.0295902
  28.5762546  78.6823195 116.5043688  29.2798396  78.8873197 117.1201344
  27.8525195  79.2499957 116.7692772  29.4060356  74.4333056 122.6245958
  29.3495558  74.8901607 121.7853591  29.9588699  73.6723740 122.4468801
  33.2165162  70.2222788 123.4496078  32.9602096  69.8219423 124.2804285
  32.5918030  70.9366582 123.3246217  37.5277500  72.9618861 125.9567369
  36.9677058  73.0312050 126.7298931  36.9221003  72.7859846 125.2366865
  20.5972709  84.3955588 127.7085555  20.4805093  85.3401021 127.6064246
  19.7765155  84.0929150 128.0971355  30.4849243  79.1205724 118.5542148
  31.3194847  78.6886922 118.3719623  30.3233586  78.9487737 119.4819043
  30.1395135  75.6237837 119.9198487  30.0843939  75.4582109 118.9786931
  29.5141191  76.3313870 120.0760677  14.9287650  70.8605901 133.7459910
  15.5746514  70.3504855 134.2347135  14.7204802  71.5974583 134.3203335
  27.4541043  77.9286749 139.2452050  28.3232202  78.1027401 138.8838685
  26.9747794  78.7481166 139.1227779  23.4491261  65.1245946 119.4983806
  23.4369931  66.0687786 119.6552077  24.3414683  64.9416092 119.2043267
  21.6227223  85.0483850 130.9241484  22.5254470  85.0807460 131.2407979
  21.3964593  84.1184301 130.9387820  23.3780825  83.8014837 127.5851562
  22.4276456  83.8016698 127.4715935  23.6813311  83.0547571 127.0687597
  27.2643380  61.7188723 123.7529743  26.4975776  61.1647209 123.8986425
  27.6754085  61.7910592 124.6143894  39.1133518  89.6375375 128.6497325
  39.7511928  89.5182122 127.9460665  38.9954361  90.5856219 128.7085277
  35.9223225  89.5902803 128.5858849  35.5841736  89.4743868 127.6979384
  36.7912993  89.1893968 128.5659856  31.7810040  91.4438279 124.5755740
  31.2174905  91.3528216 123.8072028  31.6662435  90.6238184 125.0558233
  36.4043008  90.7437655 134.5445055  36.3931648  90.3490453 133.6725559
  36.5663647  90.0103727 135.1378826  29.3274472  92.9389471 127.4139961
  30.1195764  92.5980296 126.9986260  29.5671122  93.0484446 128.3342114
  37.3609599  95.1109247 119.8870205  36.7097579  95.6963328 119.5004219
  38.1553962  95.6415442 119.9465243  31.2865226  92.1998384 120.2857340
  32.0596102  91.6527371 120.1470215  31.6390625  93.0642634 120.4971801
  33.1250269  93.5274767 133.4924239  32.8340135  94.4320397 133.3770905
  33.7607253  93.5691294 134.2068309  34.0506476  90.9051615 130.0825599
  34.6470048  90.6807637 129.3682562  34.1081447  90.1636361 130.6851046
  33.6231504  88.3591050 117.9175790  33.8757025  87.8372572 117.1559253
  32.6856063  88.1957196 118.0202473  38.6674787  87.3626829 125.7250533
  39.4537876  86.9446252 125.3740950  38.9313491  88.2672921 125.8932181
  38.8384864  92.7999679 120.4239190  38.2030697  92.8734306 121.1360094
  38.5082271  93.3893278 119.7458269  44.0683214  87.3002062 126.6283511
  44.8008386  86.7301279 126.8621341  43.3122570  86.9123662 127.0690017
  33.3427793  90.2619156 120.1200165  33.2264051  89.5864060 120.7881249
  33.4530053  89.7751530 119.3032318  35.6859334  89.7229303 123.8246854
  35.3217541  89.1959924 124.5359775  36.5426450  89.3327773 123.6513339
  41.5908634  81.0123636 131.0878120  41.2591959  81.8819047 130.8639335
  40.9954248  80.6959920 131.7672150  35.3264821  84.7519203 118.8208202
  35.4939223  85.6199440 119.1878673  35.1361990  84.9146485 117.8969492
  38.0840154  93.2136182 130.4874033  37.7840877  94.1161221 130.3789840
  37.7391213  92.9468365 131.3395186  31.5352635  89.6649979 126.5210737
  30.6103132  89.5326193 126.7288429  31.7837049  90.4444198 127.0180680
  41.4837298  85.7318722 128.1671470  40.5754175  85.6634131 127.8730231
  41.4324893  86.2090667 128.9953295  35.3054042  87.2076861 119.8054869
  35.1853667  87.6533911 120.6440349  34.6106630  87.5562178 119.2468407
  28.8961446  89.3083252 127.3554526  29.0253828  89.5617731 128.2693938
  28.2158898  89.9010960 127.0359181  33.0660934  99.9780502 123.4545000
  32.9884963 100.9288327 123.5333481  32.4622577  99.6326375 124.1119927
  35.5578163  87.1508368 136.1106367  34.7811498  87.7102288 136.1009232
  36.1968727  87.6365151 136.6321237  43.3498944  83.9335161 129.9449344
  42.7073324  84.2267694 129.2989139  42.8453873  83.8188081 130.7502541
  41.0039108  87.6798334 120.6335203  41.9156964  87.9125721 120.4582901
  40.4948755  88.2635378 120.0710282  33.8124536  89.9593821 135.6724334
  34.5539220  90.4978865 135.3959158  33.1061521  90.5860110 135.8295886
  39.2879875  92.1022962 134.2696496  39.6963231  91.6605372 133.5251128
  38.5657137  91.5275589 134.5230689  35.6410945  87.0395568 131.6430053
  36.4872141  87.4634982 131.7864702  35.5809583  86.3829193 132.3368616
  39.6108690  92.6624152 128.0248785  38.9817552  92.8269866 127.3224853
  39.2234352  93.0765762 128.7959749  43.4897922  93.5978590 125.3793148
  42.8048960  93.9777491 124.8290182  43.5741771  94.2073917 126.1125096
  38.7910391  84.6999937 133.3011226  38.5471323  85.4541997 132.7645502
  39.0670321  85.0785284 134.1358473  40.7448854  91.2438549 131.9788492
  40.9565749  91.8870309 131.3022873  40.6978602  90.4100866 131.5110422
  38.3475083  83.8556370 128.8825064  37.4859562  84.1537623 129.1741802
  38.3737517  84.0726769 127.9506097  35.1636652  92.3998560 125.2898870
  35.6274997  92.6786263 124.5003492  34.8993450  91.4982005 125.1071960
  32.0560733  91.9470042 128.2278633  32.6262090  92.3757310 127.5896118
  32.6468845  91.6652627 128.9262819  34.1005538  88.5221713 122.0988435
  34.8029581  88.9742756 122.5662361  33.7686166  87.8805532 122.7268328
  32.5485900  87.1133469 136.4739644  31.9184560  87.7949750 136.7075041
  32.4421987  87.0016551 135.5292783  27.8430872  86.7805265 127.4005568
  27.0529926  87.0362794 126.9245679  28.3342119  87.5953603 127.5057609
  41.8594681  94.1210505 130.1510849  42.6812125  93.7190692 129.8693531
  41.8557084  94.0178739 131.1026965  29.7945617  87.1449845 124.3589045
  28.9976781  87.2568539 124.8772541  29.5671210  87.4836497 123.4929936
  35.6251285  93.6694548 132.3071560  35.6895717  94.1314955 133.1429732
  34.9162209  93.0391913 132.4353870  26.1268575  87.0335756 129.8320559
  26.3776613  87.9182766 130.0978135  26.6628123  86.8540357 129.0595651
  49.9500675  90.4649253 126.4995821  49.1964383  89.8956651 126.3439825
  50.0848216  90.4311918 127.4466455  35.3399303  95.3362655 122.1750540
  35.2044977  96.1814191 122.6035388  35.8809115  95.5381933 121.4116474
  31.8266642  81.4154235 138.8364895  31.4333588  80.8620434 139.5112540
  32.6432783  81.7264814 139.2271413  28.7928700  92.8538093 122.7478465
  29.3053221  93.6481344 122.8984030  29.4451413  92.1564384 122.6812067
  30.6023585  95.9703850 124.8301218  30.7790213  96.8921814 124.6422202
  31.3980418  95.6562269 125.2595598  34.7434603  82.8312114 136.4285152
  35.4844317  83.4319267 136.3489614  34.9752526  82.0889752 135.8703194
  29.8875941  88.0168482 134.7063382  29.7729456  87.1153739 135.0070480
  29.0320459  88.2632178 134.3548198  36.9667779  95.9586222 136.3050882
  36.5231633  95.1722600 135.9871787  37.6284993  96.1465372 135.6394773
  31.7254900  97.4882023 130.8311561  32.2762325  97.3599087 130.0588555
  30.8866376  97.7876912 130.4806453  39.0649017  96.2389022 134.3332283
  39.0467492  97.0597903 133.8412553  39.9868937  96.1143097 134.5582425
  35.5222071  93.7533151 135.1755792  36.0550408  92.9921439 134.9455100
  34.9936152  93.4606803 135.9179946  38.6891766  78.8593217 130.7049434
  38.3456036  79.7494859 130.6288544  39.0570729  78.6694875 129.8419019
  26.7577617  91.1826748 123.5238036  27.5952839  91.5923756 123.3071743
  26.9355884  90.2426190 123.4938230  38.6542049  88.8501828 119.2121869
  38.1388672  89.6206433 119.4510256  38.3819357  88.1766965 119.8354930
  36.2389160  83.6951529 124.2707107  35.3830756  83.3058380 124.0912746
  36.6516112  83.7743490 123.4106893  37.7688307  81.2297872 128.6698667
  37.2653102  81.1928008 127.8566472  38.0618913  82.1390615 128.7295323
  34.0131192  81.3136602 127.6764849  34.8784189  81.1179411 127.3170738
  34.0808701  81.0846954 128.6034205  43.6276323  91.6034183 121.1475042
  42.8505766  91.2645342 120.7030204  44.3067804  91.6086806 120.4730007
  38.4428352  86.7228920 121.0381650  38.1378488  87.0375070 121.8891793
  39.3958794  86.8010340 121.0808983  36.8874784  92.8819144 122.6874604
  36.3596145  92.1471903 122.3747841  36.3862287  93.6593820 122.4414572
  41.8667630  91.0768164 127.8041650  41.2091304  91.7667426 127.8921779
  42.6708029  91.4664596 128.1475636  31.6193512  83.5438810 125.0481215
  32.1937263  83.3213992 124.3154408  32.2064494  83.6127505 125.8009817
  40.6773089  89.4312537 125.8545592  41.1904970  90.0642529 126.3567302
  41.3274313  88.8313732 125.4888952  31.9463099  85.5743271 119.0677101
  31.1100411  85.9117958 119.3886375  31.8067868  85.4392251 118.1304238
  33.9216179  80.4180059 123.7756285  33.2680592  80.1029076 123.1512900
  33.8796653  79.7955799 124.5016108  35.0327384  90.6999354 115.6909577
  34.1254446  90.4688607 115.8900726  35.5298416  89.9036973 115.8783558
  37.9395463  99.4096861 118.6106263  37.2657162  99.7128558 119.2191221
  38.3261285 100.2125942 118.2611720  37.1553920  86.9061992 128.1003932
  36.2376481  87.1276940 127.9425620  37.5714063  86.9808303 127.2415640
  37.9388967  88.3053408 123.2306613  38.6860786  88.8174805 122.9213735
  38.2080557  87.9837461 124.0911006  36.2115618  90.8011949 120.2133567
  35.3026837  90.5170982 120.3106037  36.2410701  91.2211027 119.3536874
  41.4434885  94.4118538 123.9824735  40.9897212  93.5709448 124.0389925
  40.8128852  95.0479937 124.3199515  40.3867805  85.3410524 125.2125402
  39.6490561  84.8287911 125.5435645  40.6394578  84.9010906 124.4008679
  39.8867824  96.2495035 124.9174553  40.1790799  96.8100092 124.1986918
  40.3966445  96.5423596 125.6727712  40.4879432  78.1186776 125.8067171
  40.7938309  77.2584140 125.5193086  41.2132037  78.7104397 125.6066165
  26.7803788  88.5217463 124.1948769  26.5828188  87.9286824 123.4699836
  26.2250452  88.2169673 124.9124708  34.7600512  88.4140570 126.3143362
  34.8149121  87.4614406 126.2385839  33.9491714  88.5700009 126.7984661
  35.9091705  92.3420693 117.5521646  35.4711135  91.6256551 117.0927283
  36.6502146  92.5696807 116.9906737  32.6992871  87.0317629 124.0733741
  31.8860737  87.3311800 124.4798933  33.1951866  86.6373318 124.7908223
  34.8501449  97.0275386 126.0068006  34.8077628  97.2536232 125.0776538
  35.7664148  96.7938761 126.1553807  38.2967083  87.4959454 132.9048635
  38.6516471  87.7230927 133.7643101  38.9439214  87.8277831 132.2825890
  44.0264820  90.6177890 123.6097964  43.8882719  90.8079486 122.6819153
  43.6701039  91.3797272 124.0666015  32.1906946  84.6035985 129.6894976
  32.8306326  84.4624744 128.9917939  31.3584477  84.3170498 129.3133578
  44.0534200  92.6854417 128.6209236  44.4870706  92.5929706 129.4692290
  44.7665780  92.6611917 127.9829252  32.9667250  93.9038415 125.8029969
  33.7607849  93.4088735 125.6012544  32.2558943  93.3756278 125.4397674
  37.7862095  96.2856511 130.1542336  37.8399117  96.8547447 130.9220052
  36.9176876  96.4558396 129.7896373  29.2750014  88.0481497 121.8789721
  28.3447602  87.9865952 122.0959683  29.3707486  87.5257450 121.0826363
  29.1935563  84.5736310 124.4667963  29.4542380  85.4881643 124.3577123
  30.0152735  84.1060752 124.6164576  30.6660488  85.9874067 131.6366787
  31.3383541  85.7791429 130.9879436  29.8390275  85.7896153 131.1972020
  44.9149749  92.7278117 131.1542121  45.1085639  93.6323928 131.4001396
  44.8150367  92.2685536 131.9880706  36.5686060  82.6136008 133.6532448
  35.9213975  83.3125958 133.5596925  37.3387075  83.0472152 134.0208697
  39.9764858  92.8784860 136.7283002  39.8250364  92.6495412 135.8113085
  39.9669537  93.8355461 136.7414347  36.7450194  90.4516773 131.7129268
  37.6742254  90.6027932 131.5398235  36.3241224  90.5400794 130.8577915
  35.5438526  94.4767437 129.4827806  35.4049612  94.1086222 130.3553744
  34.7553122  94.9915077 129.3111763  36.1386678  99.5776534 120.8253342
  36.3138434  99.1064577 121.6398965  35.4519466 100.2042300 121.0534603
  37.0943741  93.8549040 126.8716643  36.7593574  93.8149810 127.7674293
  36.5947687  93.1893756 126.3987054  31.0687985  89.2616670 132.3969225
  30.9307783  88.5296909 132.9980764  31.9792909  89.1725570 132.1153412
  40.0302933  91.2005074 117.1453703  39.4132104  90.4751902 117.0486756
  39.5619421  91.9614434 116.8020777  33.6970286  88.9736629 131.8852904
  34.4069904  88.3329821 131.8439523  33.6539594  89.2249524 132.8079085
  41.6857065  95.9103983 134.8059483  41.6269611  95.2263203 134.1390067
  42.0876583  96.6522973 134.3540109  32.4099220  85.9601847 133.7048544
  31.8736577  85.5092586 134.3570140  31.8215928  86.0947756 132.9619008
  30.7047763 102.7265896 127.5993202  30.9444362 103.3584421 128.2772221
  29.8616960 102.3753936 127.8858562  31.8201479  85.4190499 116.2675007
  30.9430945  85.2979299 115.9037254  32.2959232  84.6276577 116.0153896
  41.6874472  93.8743567 133.0373463  40.8001251  93.5369488 133.1599862
  42.2573023  93.1426598 133.2742229  23.3403619  90.2067658 126.3616515
  24.0274659  89.8929388 125.7737530  23.1851748  91.1109023 126.0883766
  28.1438341  85.0957855 130.7901538  28.0596530  84.4883524 130.0551948
  27.3221048  85.5866873 130.7911035  35.2175625  98.5345019 130.0034706
  35.1445797  99.3399990 130.5154011  34.7753018  98.7336985 129.1782728
  35.0065405  97.7716789 123.5137528  34.2232927  98.3138469 123.6075752
  35.7058150  98.2890769 123.9131769  38.3162055  83.5811418 126.1571733
  38.8130755  82.8281381 125.8372804  37.5449037  83.6175735 125.5914943
  46.1691812  89.2851784 127.7990025  46.1581689  90.1676499 127.4283958
  45.3009192  88.9323335 127.6044562  37.6774309  98.4331853 132.1592865
  38.3902281  99.0679318 132.0868766  37.1864337  98.5295719 131.3432867
  39.3991836  92.3383106 123.7310157  38.4648114  92.4584568 123.5614861
  39.5768504  91.4355572 123.4670167  34.8997024  85.7228801 125.8843418
  34.5294811  85.1699842 126.5724323  35.3956116  85.1186935 125.3318418
  42.7864387  88.1800425 124.2660191  43.2524839  89.0128416 124.1920493
  43.2371888  87.7145406 124.9705449  32.7286222  96.1826296 132.9798436
  33.4295682  96.8162779 133.1327830  32.2581337  96.5241028 132.2194075
  40.8540618  94.5244246 121.2646343  41.1300462  94.4100841 122.1740217
  39.9845117  94.1261731 121.2258516  40.7581050  80.5481012 128.3051092
  39.8444130  80.7785239 128.4733299  41.1874151  80.6319456 129.1565125
  40.5287508  88.7370904 130.8050986  39.8758959  88.9846811 130.1503439
  40.9067888  87.9235042 130.4713463  37.4894682  98.7730597 124.9079156
  37.6717077  97.9552253 125.3706909  38.3127668  98.9898289 124.4704046
  37.8236848  97.6998782 122.1694205  38.3524614  97.1891237 121.5564367
  38.0865067  97.3841312 123.0339738  36.5775081  89.4790715 137.2917023
  35.9015718  89.3784844 137.9619399  37.4002715  89.3229929 137.7553021
  28.3253940  95.7162651 129.9129539  28.9107377  94.9706339 130.0457443
  28.1278779  96.0266608 130.7966202  31.1792596  98.7513899 124.9291981
  30.5102971  99.2360026 124.4456021  31.0405465  98.9983119 125.8435359
  22.9171595  88.2868252 128.6333982  22.9555695  87.7531842 129.4271100
  22.4111888  87.7603457 128.0144959  35.3197864 100.7857642 131.5274639
  35.8716172 100.9489264 132.2923725  35.6604058 101.3762080 130.8554664
  30.2962357  83.1332792 132.1296524  30.3603684  83.9947623 131.7173922
  30.2329478  82.5206794 131.3968882  29.7714630  85.2055925 135.7769558
  30.3986669  84.8233002 136.3907083  28.9142549  84.9870127 136.1425251
  40.1708739  95.6118900 137.3823294  40.7148642  96.2248858 136.8878249
  39.5895583  96.1698478 137.8990307  26.5480173  87.0132354 121.7087913
  26.8433614  86.1043032 121.6554967  25.6468208  86.9920093 121.3868915
  38.4566251  98.7339618 128.5138321  38.3317391  97.9329358 128.0049267
  39.1145343  99.2285811 128.0252291  30.0774420  85.0888350 127.6915462
  29.3561005  85.7024318 127.5522935  30.8667675  85.6246115 127.6132108
  40.5201160  96.5348638 130.1417872  39.5731495  96.4153989 130.0696198
  40.8683933  95.6471136 130.2244133  32.8800733  82.4242777 133.9656113
  33.4035135  82.6705073 134.7282423  32.6613066  83.2562812 133.5459251
  28.2768014  84.6946451 121.8327238  27.9480720  83.8143830 121.6502344
  28.6307385  84.6394120 122.7203627  37.5247593  96.3301354 126.3422224
  37.3772556  95.4018062 126.5229794  38.3501087  96.3521445 125.8579299
  31.3909837  84.9819421 122.2002716  31.7305910  85.5105342 121.4781324
  31.8381958  85.3199827 122.9761282  41.1281715  97.1529913 127.4287097
  42.0528262  96.9472774 127.2911548  40.9597018  96.9046314 128.3376438
  34.0853278  83.3656472 131.6505784  33.7450099  82.5664285 132.0526464
  33.3792285  83.6658183 131.0782617  34.7369750  80.4505784 130.1033107
  35.5595819  79.9766263 129.9811997  34.9807814  81.2296268 130.6031793
  33.3777985  83.4794043 120.3996009  34.0986347  83.8575296 119.8959726
  32.7543289  84.1982920 120.5030987  37.5209107  84.1839192 121.3354341
  37.7372722  85.0663830 121.0343169  37.0403175  83.7925405 120.6059983
  32.2608329  87.1424905 127.9125086  32.1152910  87.4565208 128.8049367
  31.7833532  87.7609805 127.3595984  34.1204712  84.1327453 127.9605975
  34.1066280  83.2368546 127.6238273  34.8377140  84.1398117 128.5944261
  35.9730842  84.5664793 130.0059103  35.7148620  85.4881864 130.0043433
  35.4415883  84.1695228 130.6959567  40.9177031  97.6715580 122.7849188
  41.0913909  97.1062003 122.0323040  41.4105922  98.4716475 122.6028678
  26.7353991  89.6830249 130.8512747  26.1907459  90.4590057 130.9833021
  27.6133341  90.0301054 130.6931868  33.5241608  83.0141833 123.2293545
  33.6457519  82.0858479 123.4284433  33.2343650  83.0280519 122.3171861
  36.3932798  80.6996744 126.3660265  36.4154495  80.7636077 125.4112245
  36.8100857  79.8601252 126.5600771  46.7716422  90.4352003 124.4039488
  47.2147568  89.6859328 124.0058611  45.8942933  90.4262140 124.0213220
  41.9052204  96.9882345 119.8846086  42.6003108  97.6089037 120.1033401
  42.2475354  96.1377696 120.1598464  27.5220013  88.8100146 133.7442904
  26.7801749  88.9582781 134.3307534  27.2012757  89.0708411 132.8809653
  43.8043627  94.4382050 121.4133417  44.3294951  94.7769323 120.6882737
  43.7165979  93.5029066 121.2296552  35.4663676  98.3516124 133.5423294
  35.7750802  98.1065271 134.4145993  36.2639158  98.5562762 133.0542164
  35.4884288 100.5054034 125.7728670  35.0489278 100.0130412 126.4661527
  36.2392405  99.9627001 125.5320745  27.9676627  96.6965574 125.7753298
  28.7934646  96.3969346 125.3951942  27.6170679  95.9273197 126.2243087
  32.9358160  96.0492043 127.8450972  32.3138169  95.3862748 127.5453200
  33.6063027  96.0753175 127.1624620  26.1685232  94.6151901 126.7342232
  25.3317140  94.1874075 126.5526233  26.1408877  94.8084344 127.6713023
  33.0082687  84.5273831 137.4383478  33.0570843  85.4035953 137.0561247
  33.5505201  83.9851224 136.8655121  43.4937533  95.0714954 136.7184615
  42.7033077  95.0539093 136.1789114  43.2570887  95.6103248 137.4733652
  43.6135408  91.9207420 134.0317344  43.6633413  91.7557428 134.9732866
  43.5049331  91.0534679 133.6415224  32.4971667  94.5995966 121.3209432
  32.6459787  95.2831430 120.6676105  33.3038110  94.5801056 121.8358888
  40.9039170  87.9038348 135.3476650  41.8049033  87.7644813 135.0560648
  40.9787145  88.0692803 136.2874828  35.2381976  85.2805203 134.1929837
  34.3685285  85.5738769 133.9212425  35.4741456  85.8645648 134.9137100
  45.1153605  94.3404362 134.2759365  44.8238413  94.7034342 135.1122826
  44.5025736  93.6271370 134.0972697  46.3149287  91.9057242 126.7961935
  47.1496178  92.3447046 126.9599496  46.4508416  91.4295895 125.9770181
  43.3640793  89.4636976 132.7439423  43.8394915  89.6564623 131.9358274
  42.4406358  89.5196162 132.4982807  30.2524300  90.6261144 122.3270501
  30.0070342  89.7223474 122.5250711  30.4220214  90.6278294 121.3849979
  37.9421009  81.4984820 131.7095257  38.4602953  82.2345847 131.3841745
  37.5876142  81.8048813 132.5442016  29.5219947  86.3589501 119.8256663
  28.8289192  86.4333856 119.1696699  29.2771699  85.5949845 120.3478180
  38.1933604  77.9185103 127.2296154  38.4735357  77.2508292 127.8556580
  38.9784211  78.1114198 126.7170817  35.9967072  97.0944096 118.7921180
  35.4241039  97.7134284 118.3391652  36.5699866  97.6443458 119.3261102
  42.0642462  86.3402736 130.9767729  43.0159885  86.4400834 130.9979953
  41.8945912  85.5481005 131.4865813  40.0856841  83.4258320 131.1627130
  39.4906774  83.7063332 130.4673618  39.8006538  83.9152221 131.9343871
  39.2164332  97.3781247 119.9229762  40.1495005  97.3126808 120.1262638
  39.1287545  98.2137513 119.4644295  41.8452349  96.6947117 116.8833710
  41.7665980  96.3606980 117.7769468  42.6662015  97.1868885 116.8825182
  44.5430540  89.5608856 130.0910028  44.5106860  88.6224857 130.2769712
  45.1531163  89.6392893 129.3575853  36.3813871  88.4304909 116.1337232
  37.3272975  88.3011117 116.2025650  36.0028116  87.6919571 116.6106660
  44.6925028  86.3519900 130.1368311  44.1764077  85.5678356 129.9498240
  45.5764977  86.0238616 130.3014831  42.3535755  80.0960915 126.0964124
  42.1560576  79.7876003 126.9807456  42.9635461  80.8222554 126.2262054
  50.3607090  90.6224863 129.2316065  51.0910478  90.3610151 129.7923768
  49.7514035  89.8853585 129.2718133  48.4422387  88.7632726 129.8290516
  47.7155550  88.6288691 129.2207008  48.0269674  89.0709554 130.6347234
  36.2652563  92.4822655 137.5937889  37.1855573  92.6601254 137.7877936
  36.2302146  91.5378701 137.4417589  34.5656788  86.3554886 116.0692118
  33.6588243  86.0587998 116.1454831  34.8432769  86.0584704 115.2026404
  25.4834728  87.6761249 126.5191164  25.1637513  86.8226557 126.2265538
  24.9368156  87.8909827 127.2749131  29.2614636  90.3923690 130.2360670
  29.4800645  91.3240798 130.2548704  29.6740410  90.0331664 131.0215474
  36.1818854  80.8991775 122.2236359  35.3719582  80.5538860 122.5991605
  36.8703270  80.5899319 122.8123970  38.1109402  79.9769822 123.8460655
  38.6640440  80.3965275 124.5050679  38.3479488  79.0505570 123.8883611
  34.1342501  85.9656896 139.6263419  34.0339228  86.9151253 139.5575510
  33.9164043  85.6375135 138.7539489  33.3355572  83.2141821 116.2104097
  34.1974736  83.5396719 116.4699914  33.5205917  82.4273317 115.6977163
  25.3522988  91.2964160 128.4884286  24.6586460  90.8818113 127.9754240
  26.0995979  91.3384697 127.8917704  41.4888209  82.0870347 123.3539320
  40.9086878  82.7455151 122.9717372  41.2224142  81.2647692 122.9426737
  39.9391775  81.4875405 125.5560640  40.4391554  81.5991939 124.7474959
  40.5827383  81.1836458 126.1961449  33.9973771  89.3954035 138.4428481
  33.5140853  90.1954395 138.6492370  34.0834710  89.4061979 137.4895925
  27.2659731  91.2282414 126.3650300  27.2430419  91.3270102 125.4132184
  27.5760367  92.0747565 126.6867467  29.9247109  93.2858569 130.4796915
  30.8790362  93.2542512 130.4126846  29.7259632  92.8249193 131.2947141
  30.5146491  91.8559685 133.0467713  31.3339380  92.3503764 133.0702550
  30.7883298  90.9391653 133.0185280  40.2713087  84.2470438 122.4095668
  39.3838942  84.5320088 122.1915863  40.6867076  84.0864201 121.5622945
  43.6227623  84.2716959 126.1250007  44.3988013  84.7613411 126.3974624
  42.8975757  84.6975013 126.5821877  46.0600182  84.9844578 127.1823948
  46.6544672  84.7440314 126.4717256  46.1326765  84.2651708 127.8097484
  28.2797337  98.8278189 127.4967113  28.1451805  98.0678590 126.9305111
  27.8629400  99.5519089 127.0295902  39.4156300  94.0115112 116.5043688
  40.1192151  94.2165115 117.1201344  38.6918949  94.5791874 116.7692772
  40.2454111  89.7624974 122.6245958  40.1889312  90.2193525 121.7853591
  40.7982453  89.0015658 122.4468801  44.0558917  85.5514705 123.4496078
  43.7995851  85.1511341 124.2804285  43.4311785  86.2658499 123.3246217
  48.3671254  88.2910779 125.9567369  47.8070812  88.3603968 126.7298931
  47.7614758  88.1151763 125.2366865  31.4366463  99.7247506 127.7085555
  31.3198847 100.6692938 127.6064246  30.6158910  99.4221067 128.0971355
  41.3242998  94.4497641 118.5542148  42.1588602  94.0178840 118.3719623
  41.1627341  94.2779655 119.4819043  40.9788890  90.9529755 119.9198487
  40.9237694  90.7874026 118.9786931  40.3534945  91.6605788 120.0760677
  25.7681405  86.1897819 133.7459910  26.4140269  85.6796773 134.2347135
  25.5598556  86.9266501 134.3203335  38.2934797  93.2578667 139.2452050
  39.1625957  93.4319319 138.8838685  37.8141549  94.0773083 139.1227779
  34.2885015  80.4537864 119.4983806  34.2763685  81.3979704 119.6552077
  35.1808437  80.2708009 119.2043267  32.4620977 100.3775768 130.9241484
  33.3648224 100.4099378 131.2407979  32.2358347  99.4476219 130.9387820
  34.2174579  99.1306754 127.5851562  33.2670210  99.1308616 127.4715935
  34.5207066  98.3839489 127.0687597  38.1037135  77.0480640 123.7529743
  37.3369531  76.4939127 123.8986425  38.5147840  77.1202509 124.6143894
  30.1078896  83.3365436 137.8434924  30.9710358  82.9802241 138.0538248
  29.5344307  82.9979331 138.5310328  49.9527273 104.9667293 128.6497325
  50.5905683 104.8474040 127.9460665  49.8348116 105.9148137 128.7085277
  46.7616979 104.9194721 128.5858849  46.4235491 104.8035785 127.6979384
  47.6306747 104.5185886 128.5659856  42.6203795 106.7730197 124.5755740
  42.0568660 106.6820134 123.8072028  42.5056190 105.9530102 125.0558233
  47.2436762 106.0729572 134.5445055  47.2325403 105.6782371 133.6725559
  47.4057402 105.3395645 135.1378826  40.1668227 108.2681389 127.4139961
  40.9589519 107.9272213 126.9986260  40.4064877 108.3776364 128.3342114
  48.2003354 110.4401165 119.8870205  47.5491333 111.0255245 119.5004219
  48.9947716 110.9707360 119.9465243  42.1258981 107.5290302 120.2857340
  42.8989857 106.9819289 120.1470215  42.4784380 108.3934551 120.4971801
  43.9644023 108.8566684 133.4924239  43.6733889 109.7612315 133.3770905
  44.6001008 108.8983212 134.2068309  44.8900230 106.2343533 130.0825599
  45.4863802 106.0099555 129.3682562  44.9475202 105.4928278 130.6851046
  44.4625259 103.6882968 117.9175790  44.7150779 103.1664489 117.1559253
  43.5249818 103.5249114 118.0202473  49.5068541 102.6918746 125.7250533
  50.2931631 102.2738170 125.3740950  49.7707246 103.5964839 125.8932181
  49.6778619 108.1291597 120.4239190  49.0424452 108.2026223 121.1360094
  49.3476025 108.7185196 119.7458269  54.9076968 102.6293980 126.6283511
  55.6402140 102.0593196 126.8621341  54.1516324 102.2415580 127.0690017
  44.1821547 105.5911074 120.1200165  44.0657805 104.9155977 120.7881249
  44.2923807 105.1043448 119.3032318  46.5253088 105.0521221 123.8246854
  46.1611295 104.5251842 124.5359775  47.3820204 104.6619690 123.6513339
  52.4302389  96.3415554 131.0878120  52.0985714  97.2110965 130.8639335
  51.8348002  96.0251838 131.7672150  46.1658575 100.0811121 118.8208202
  46.3332978 100.9491357 119.1878673  45.9755744 100.2438403 117.8969492
  48.9233908 108.5428100 130.4874033  48.6234631 109.4453139 130.3789840
  48.5784968 108.2760283 131.3395186  42.3746390 104.9941897 126.5210737
  41.4496886 104.8618111 126.7288429  42.6230803 105.7736116 127.0180680
  52.3231052 101.0610640 128.1671470  51.4147930 100.9926048 127.8730231
  52.2718648 101.5382585 128.9953295  46.1447796 102.5368778 119.8054869
  46.0247421 102.9825829 120.6440349  45.4500384 102.8854096 119.2468407
  39.7355201 104.6375170 127.3554526  39.8647582 104.8909649 128.2693938
  39.0552652 105.2302878 127.0359181  43.9054688 115.3072420 123.4545000
  43.8278718 116.2580245 123.5333481  43.3016332 114.9618293 124.1119927
  46.3971918 102.4800286 136.1106367  45.6205252 103.0394206 136.1009232
  47.0362481 102.9657068 136.6321237  54.1892699  99.2627078 129.9449344
  53.5467079  99.5559611 129.2989139  53.6847627  99.1479999 130.7502541
  51.8432862 103.0090252 120.6335203  52.7550718 103.2417638 120.4582901
  51.3342509 103.5927296 120.0710282  44.6518290 105.2885739 135.6724334
  45.3932975 105.8270783 135.3959158  43.9455276 105.9152028 135.8295886
  50.1273630 107.4314879 134.2696496  50.5356986 106.9897290 133.5251128
  49.4050891 106.8567507 134.5230689  46.4804700 102.3687486 131.6430053
  47.3265895 102.7926900 131.7864702  46.4203338 101.7121110 132.3368616
  50.4502445 107.9916070 128.0248785  49.8211307 108.1561784 127.3224853
  50.0628107 108.4057680 128.7959749  54.3291676 108.9270508 125.3793148
  53.6442715 109.3069409 124.8290182  54.4135526 109.5365834 126.1125096
  49.6304145 100.0291854 133.3011226  49.3865077 100.7833915 132.7645502
  49.9064076 100.4077202 134.1358473  51.5842608 106.5730467 131.9788492
  51.7959503 107.2162227 131.3022873  51.5372356 105.7392783 131.5110422
  49.1868837  99.1848287 128.8825064  48.3253316  99.4829541 129.1741802
  49.2131272  99.4018686 127.9506097  46.0030406 107.7290478 125.2898870
  46.4668752 108.0078181 124.5003492  45.7387205 106.8273923 125.1071960
  42.8954487 107.2761960 128.2278633  43.4655845 107.7049228 127.5896118
  43.4862599 106.9944544 128.9262819  44.9399292 103.8513630 122.0988435
  45.6423336 104.3034674 122.5662361  44.6079921 103.2097449 122.7268328
  43.3879654 102.4425387 136.4739644  42.7578315 103.1241668 136.7075041
  43.2815742 102.3308469 135.5292783  38.6824626 102.1097183 127.4005568
  37.8923680 102.3654712 126.9245679  39.1735874 102.9245521 127.5057609
  52.6988436 109.4502422 130.1510849  53.5205880 109.0482610 129.8693531
  52.6950839 109.3470656 131.1026965  40.6339372 102.4741762 124.3589045
  39.8370535 102.5860457 124.8772541  40.4064964 102.8128415 123.4929936
  46.4645039 108.9986466 132.3071560  46.5289472 109.4606873 133.1429732
  45.7555963 108.3683830 132.4353870  36.9662329 102.3627674 129.8320559
  37.2170368 103.2474683 130.0978135  37.5021878 102.1832275 129.0595651
  60.7894429 105.7941171 126.4995821  60.0358137 105.2248569 126.3439825
  60.9241970 105.7603835 127.4466455  46.1793057 110.6654573 122.1750540
  46.0438732 111.5106109 122.6035388  46.7202870 110.8673851 121.4116474
  42.6660397  96.7446153 138.8364895  42.2727342  96.1912351 139.5112540
  43.4826537  97.0556731 139.2271413  39.6322454 108.1830011 122.7478465
  40.1446975 108.9773261 122.8984030  40.2845167 107.4856302 122.6812067
  41.4417339 111.2995767 124.8301218  41.6183968 112.2213732 124.6422202
  42.2374173 110.9854187 125.2595598  45.5828358  98.1604032 136.4285152
  46.3238071  98.7611185 136.3489614  45.8146281  97.4181670 135.8703194
  40.7269696 103.3460399 134.7063382  40.6123211 102.4445656 135.0070480
  39.8714213 103.5924096 134.3548198  47.8061533 111.2878140 136.3050882
  47.3625388 110.5014518 135.9871787  48.4678747 111.4757290 135.6394773
  42.5648655 112.8173941 130.8311561  43.1156080 112.6891005 130.0588555
  41.7260131 113.1168830 130.4806453  49.9042772 111.5680939 134.3332283
  49.8861247 112.3889821 133.8412553  50.8262692 111.4435015 134.5582425
  46.3615826 109.0825069 135.1755792  46.8944162 108.3213357 134.9455100
  45.8329907 108.7898721 135.9179946  49.5285521  94.1885135 130.7049434
  49.1849790  95.0786777 130.6288544  49.8964483  93.9986793 129.8419019
  37.5971371 106.5118665 123.5238036  38.4346593 106.9215674 123.3071743
  37.7749639 105.5718108 123.4938230  49.4935803 104.1793746 119.2121869
  48.9782427 104.9498351 119.4510256  49.2213112 103.5058882 119.8354930
  47.0782914  99.0243447 124.2707107  46.2224511  98.6350297 124.0912746
  47.4909866  99.1035408 123.4106893  48.6082061  96.5589790 128.6698667
  48.1046857  96.5219925 127.8566472  48.9012668  97.4682533 128.7295323
  44.8524947  96.6428520 127.6764849  45.7177944  96.4471328 127.3170738
  44.9202456  96.4138872 128.6034205  54.4670078 106.9326101 121.1475042
  53.6899520 106.5937260 120.7030204  55.1461558 106.9378724 120.4730007
  49.2822107 102.0520838 121.0381650  48.9772242 102.3666987 121.8891793
  50.2352549 102.1302258 121.0808983  47.7268538 108.2111061 122.6874604
  47.1989900 107.4763821 122.3747841  47.2256041 108.9885738 122.4414572
  52.7061384 106.4060082 127.8041650  52.0485059 107.0959343 127.8921779
  53.5101784 106.7956514 128.1475636  42.4587266  98.8730728 125.0481215
  43.0331018  98.6505909 124.3154408  43.0458248  98.9419422 125.8009817
  51.5166843 104.7604455 125.8545592  52.0298725 105.3934446 126.3567302
  52.1668067 104.1605650 125.4888952  42.7856853 100.9035189 119.0677101
  41.9494165 101.2409875 119.3886375  42.6461623 100.7684169 118.1304238
  44.7609934  95.7471977 123.7756285  44.1074346  95.4320994 123.1512900
  44.7190408  95.1247717 124.5016108  45.8721139 106.0291272 115.6909577
  44.9648200 105.7980525 115.8900726  46.3692171 105.2328891 115.8783558
  48.7789217 114.7388779 118.6106263  48.1050916 115.0420476 119.2191221
  49.1655039 115.5417859 118.2611720  47.9947674 102.2353910 128.1003932
  47.0770235 102.4568857 127.9425620  48.4107818 102.3100221 127.2415640
  48.7782722 103.6345326 123.2306613  49.5254541 104.1466723 122.9213735
  49.0474311 103.3129379 124.0911006  47.0509372 106.1303867 120.2133567
  46.1420591 105.8462899 120.3106037  47.0804456 106.5502945 119.3536874
  52.2828639 109.7410456 123.9824735  51.8290967 108.9001366 124.0389925
  51.6522606 110.3771854 124.3199515  51.2261559 100.6702442 125.2125402
  50.4884316 100.1579828 125.5435645  51.4788333 100.2302824 124.4008679
  50.7261579 111.5786953 124.9174553  51.0184553 112.1392010 124.1986918
  51.2360199 111.8715514 125.6727712  51.3273186  93.4478694 125.8067171
  51.6332063  92.5876058 125.5193086  52.0525791  94.0396314 125.6066165
  37.6197542 103.8509381 124.1948769  37.4221942 103.2578741 123.4699836
  37.0644206 103.5461591 124.9124708  45.5994266 103.7432487 126.3143362
  45.6542876 102.7906324 126.2385839  44.7885468 103.8991926 126.7984661
  46.7485460 107.6712610 117.5521646  46.3104890 106.9548469 117.0927283
  47.4895901 107.8988725 116.9906737  43.5386626 102.3609547 124.0733741
  42.7254492 102.6603717 124.4798933  44.0345620 101.9665236 124.7908223
  45.6895204 112.3567304 126.0068006  45.6471383 112.5828150 125.0776538
  46.6057903 112.1230678 126.1553807  49.1360838 102.8251371 132.9048635
  49.4910225 103.0522845 133.7643101  49.7832969 103.1569748 132.2825890
  54.8658575 105.9469807 123.6097964  54.7276473 106.1371403 122.6819153
  54.5094793 106.7089190 124.0666015  43.0300701  99.9327902 129.6894976
  43.6700080  99.7916662 128.9917939  42.1978231  99.6462416 129.3133578
  54.8927954 108.0146334 128.6209236  55.3264461 107.9221623 129.4692290
  55.6059535 107.9903835 127.9829252  43.8061005 109.2330333 125.8029969
  44.6001603 108.7380653 125.6012544  43.0952697 108.7048196 125.4397674
  48.6255849 111.6148428 130.1542336  48.6792871 112.1839365 130.9220052
  47.7570630 111.7850313 129.7896373  40.1143768 103.3773415 121.8789721
  39.1841356 103.3157870 122.0959683  40.2101240 102.8549367 121.0826363
  40.0329317  99.9028227 124.4667963  40.2936134 100.8173561 124.3577123
  40.8546489  99.4352670 124.6164576  41.5054242 101.3165985 131.6366787
  42.1777296 101.1083347 130.9879436  40.6784029 101.1188071 131.1972020
  55.7543504 108.0570035 131.1542121  55.9479394 108.9615845 131.4001396
  55.6544122 107.5977454 131.9880706  47.4079814  97.9427926 133.6532448
  46.7607730  98.6417875 133.5596925  48.1780830  98.3764069 134.0208697
  50.8158612 108.2076778 136.7283002  50.6644119 107.9787329 135.8113085
  50.8063292 109.1647379 136.7414347  47.5843949 105.7808690 131.7129268
  48.5136009 105.9319850 131.5398235  47.1634979 105.8692711 130.8577915
  46.3832281 109.8059355 129.4827806  46.2443366 109.4378139 130.3553744
  45.5946877 110.3206994 129.3111763  46.9780433 114.9068451 120.8253342
  47.1532188 114.4356495 121.6398965  46.2913221 115.5334218 121.0534603
  47.9337496 109.1840958 126.8716643  47.5987328 109.1441728 127.7674293
  47.4341441 108.5185673 126.3987054  41.9081740 104.5908588 132.3969225
  41.7701538 103.8588826 132.9980764  42.8186663 104.5017488 132.1153412
  50.8696687 106.5296992 117.1453703  50.2525858 105.8043820 117.0486756
  50.4013176 107.2906352 116.8020777  44.5364040 104.3028547 131.8852904
  45.2463659 103.6621739 131.8439523  44.4933349 104.5541442 132.8079085
  52.5250819 111.2395900 134.8059483  52.4663365 110.5555120 134.1390067
  52.9270337 111.9814890 134.3540109  43.2492974 101.2893765 133.7048544
  42.7130331 100.8384503 134.3570140  42.6609683 101.4239674 132.9619008
  41.5441518 118.0557814 127.5993202  41.7838116 118.6876338 128.2772221
  40.7010714 117.7045854 127.8858562  42.6595233 100.7482416 116.2675007
  41.7824700 100.6271217 115.9037254  43.1352986  99.9568494 116.0153896
  52.5268226 109.2035484 133.0373463  51.6395005 108.8661406 133.1599862
  53.0966777 108.4718515 133.2742229  34.1797373 105.5359576 126.3616515
  34.8668413 105.2221306 125.7737530  34.0245502 106.4400941 126.0883766
  38.9832096 100.4249772 130.7901538  38.8990284  99.8175442 130.0551948
  38.1614802 100.9158791 130.7911035  46.0569380 113.8636937 130.0034706
  45.9839551 114.6691908 130.5154011  45.6146773 114.0628902 129.1782728
  45.8459159 113.1008707 123.5137528  45.0626681 113.6430387 123.6075752
  46.5451905 113.6182686 123.9131769  49.1555809  98.9103336 126.1571733
  49.6524509  98.1573298 125.8372804  48.3842791  98.9467653 125.5914943
  57.0085567 104.6143702 127.7990025  56.9975443 105.4968417 127.4283958
  56.1402946 104.2615252 127.6044562  48.5168063 113.7623771 132.1592865
  49.2296035 114.3971235 132.0868766  48.0258092 113.8587637 131.3432867
  50.2385590 107.6675023 123.7310157  49.3041869 107.7876486 123.5614861
  50.4162259 106.7647490 123.4670167  45.7390778 101.0520719 125.8843418
  45.3688566 100.4991759 126.5724323  46.2349871 100.4478852 125.3318418
  53.6258142 103.5092343 124.2660191  54.0918594 104.3420334 124.1920493
  54.0765642 103.0437324 124.9705449  43.5679977 111.5118214 132.9798436
  44.2689436 112.1454697 133.1327830  43.0975092 111.8532946 132.2194075
  51.6934373 109.8536164 121.2646343  51.9694217 109.7392758 122.1740217
  50.8238871 109.4553649 121.2258516  51.5974804  95.8772930 128.3051092
  50.6837884  96.1077156 128.4733299  52.0267906  95.9611374 129.1565125
  51.3681263 104.0662821 130.8050986  50.7152713 104.3138729 130.1503439
  51.7461643 103.2526960 130.4713463  48.3288437 114.1022515 124.9079156
  48.5110831 113.2844171 125.3706909  49.1521423 114.3190207 124.4704046
  48.6630602 113.0290700 122.1694205  49.1918369 112.5183154 121.5564367
  48.9258822 112.7133230 123.0339738  47.4168836 104.8082633 137.2917023
  46.7409473 104.7076762 137.9619399  48.2396470 104.6521846 137.7553021
  39.1647695 111.0454569 129.9129539  39.7501132 110.2998257 130.0457443
  38.9672533 111.3558526 130.7966202  42.0186350 114.0805816 124.9291981
  41.3496725 114.5651944 124.4456021  41.8799220 114.3275037 125.8435359
  33.7565350 103.6160169 128.6333982  33.7949449 103.0823760 129.4271100
  33.2505642 103.0895375 128.0144959  46.1591619 116.1149560 131.5274639
  46.7109927 116.2781181 132.2923725  46.4997812 116.7053998 130.8554664
  41.1356112  98.4624710 132.1296524  41.1997438  99.3239541 131.7173922
  41.0723232  97.8498711 131.3968882  40.6108384 100.5347842 135.7769558
  41.2380423 100.1524920 136.3907083  39.7536303 100.3162044 136.1425251
  51.0102493 110.9410817 137.3823294  51.5542397 111.5540776 136.8878249
  50.4289338 111.4990396 137.8990307  37.3873927 102.3424271 121.7087913
  37.6827368 101.4334950 121.6554967  36.4861963 102.3212011 121.3868915
  49.2960006 114.0631536 128.5138321  49.1711145 113.2621275 128.0049267
  49.9539097 114.5577729 128.0252291  40.9168174 100.4180268 127.6915462
  40.1954760 101.0316236 127.5522935  41.7061430 100.9538033 127.6132108
  51.3594914 111.8640556 130.1417872  50.4125250 111.7445907 130.0696198
  51.7077687 110.9763054 130.2244133  43.7194488  97.7534695 133.9656113
  44.2428890  97.9996991 134.7282423  43.5006821  98.5854729 133.5459251
  39.1161769 100.0238369 121.8327238  38.7874475  99.1435748 121.6502344
  39.4701139  99.9686038 122.7203627  48.3641348 111.6593272 126.3422224
  48.2166310 110.7309979 126.5229794  49.1894841 111.6813363 125.8579299
  42.2303592 100.3111339 122.2002716  42.5699664 100.8397260 121.4781324
  42.6775712 100.6491745 122.9761282  51.9675469 112.4821831 127.4287097
  52.8922017 112.2764692 127.2911548  51.7990773 112.2338232 128.3376438
  44.9247033  98.6948390 131.6505784  44.5843853  97.8956203 132.0526464
  44.2186039  98.9950100 131.0782617  45.5763505  95.7797702 130.1033107
  46.3989574  95.3058180 129.9811997  45.8201568  96.5588186 130.6031793
  44.2171739  98.8085960 120.3996009  44.9380102  99.1867213 119.8959726
  43.5937043  99.5274837 120.5030987  48.3602862  99.5131109 121.3354341
  48.5766476 100.3955747 121.0343169  47.8796929  99.1217323 120.6059983
  43.1002083 102.4716823 127.9125086  42.9546664 102.7857126 128.8049367
  42.6227287 103.0901723 127.3595984  44.9598466  99.4619371 127.9605975
  44.9460035  98.5660464 127.6238273  45.6770894  99.4690034 128.5944261
  46.8124597  99.8956711 130.0059103  46.5542375 100.8173782 130.0043433
  46.2809637  99.4987145 130.6959567  51.7570786 113.0007498 122.7849188
  51.9307663 112.4353920 122.0323040  52.2499677 113.8008393 122.6028678
  37.5747745 105.0122167 130.8512747  37.0301214 105.7881975 130.9833021
  38.4527095 105.3592972 130.6931868  44.3635362  98.3433751 123.2293545
  44.4851273  97.4150397 123.4284433  44.0737405  98.3572437 122.3171861
  47.2326553  96.0288661 126.3660265  47.2548249  96.0927994 125.4112245
  47.6494612  95.1893170 126.5600771  57.6110177 105.7643921 124.4039488
  58.0541323 105.0151246 124.0058611  56.7336687 105.7554057 124.0213220
  52.7445958 112.3174262 119.8846086  53.4396863 112.9380955 120.1033401
  53.0869108 111.4669614 120.1598464  38.3613767 104.1392063 133.7442904
  37.6195503 104.2874699 134.3307534  38.0406512 104.4000329 132.8809653
  54.6437381 109.7673968 121.4133417  55.1688705 110.1061241 120.6882737
  54.5559734 108.8320983 121.2296552  46.3057430 113.6808042 133.5423294
  46.6144556 113.4357188 134.4145993  47.1032912 113.8854680 133.0542164
  46.3278042 115.8345951 125.7728670  45.8883032 115.3422330 126.4661527
  47.0786159 115.2918919 125.5320745  38.8070381 112.0257492 125.7753298
  39.6328401 111.7261264 125.3951942  38.4564433 111.2565115 126.2243087
  43.7751914 111.3783960 127.8450972  43.1531923 110.7154665 127.5453200
  44.4456781 111.4045092 127.1624620  37.0078986 109.9443819 126.7342232
  36.1710894 109.5165993 126.5526233  36.9802632 110.1376262 127.6713023
  43.8476442  99.8565748 137.4383478  43.8964597 100.7327871 137.0561247
  44.3898956  99.3143141 136.8655121  54.3331287 110.4006872 136.7184615
  53.5426831 110.3831010 136.1789114  54.0964642 110.9395165 137.4733652
  54.4529162 107.2499338 134.0317344  54.5027167 107.0849345 134.9732866
  54.3443086 106.3826597 133.6415224  43.3365421 109.9287884 121.3209432
  43.4853541 110.6123348 120.6676105  44.1431865 109.9092974 121.8358888
  51.7432925 103.2330266 135.3476650  52.6442788 103.0936731 135.0560648
  51.8180899 103.3984721 136.2874828  46.0775730 100.6097121 134.1929837
  45.2079040 100.9030687 133.9212425  46.3135210 101.1937566 134.9137100
  55.9547359 109.6696279 134.2759365  55.6632168 110.0326260 135.1122826
  55.3419491 108.9563288 134.0972697  57.1543042 107.2349159 126.7961935
  57.9889933 107.6738963 126.9599496  57.2902170 106.7587812 125.9770181
  54.2034547 104.7928894 132.7439423  54.6788669 104.9856540 131.9358274
  53.2800113 104.8488080 132.4982807  41.0918054 105.9553061 122.3270501
  40.8464096 105.0515391 122.5250711  41.2613969 105.9570212 121.3849979
  48.7814764  96.8276738 131.7095257  49.2996708  97.5637765 131.3841745
  48.4269897  97.1340731 132.5442016  40.3613702 101.6881419 119.8256663
  39.6682947 101.7625774 119.1696699  40.1165454 100.9241762 120.3478180
  49.0327358  93.2477020 127.2296154  49.3129112  92.5800209 127.8556580
  49.8177965  93.4406116 126.7170817  46.8360827 112.4236014 118.7921180
  46.2634794 113.0426201 118.3391652  47.4093620 112.9735376 119.3261102
  52.9036216 101.6694654 130.9767729  53.8553639 101.7692752 130.9979953
  52.7339667 100.8772923 131.4865813  50.9250596  98.7550237 131.1627130
  50.3300528  99.0355250 130.4673618  50.6400293  99.2444138 131.9343871
  50.0558086 112.7073164 119.9229762  50.9888760 112.6418726 120.1262638
  49.9681299 113.5429431 119.4644295  52.6846103 112.0239035 116.8833710
  52.6059735 111.6898898 117.7769468  53.5055770 112.5160802 116.8825182
  55.3824294 104.8900774 130.0910028  55.3500614 103.9516775 130.2769712
  55.9924918 104.9684811 129.3575853  47.2207625 103.7596827 116.1337232
  48.1666730 103.6303035 116.2025650  46.8421870 103.0211489 116.6106660
  55.5318783 101.6811817 130.1368311  55.0157831 100.8970274 129.9498240
  56.4158731 101.3530534 130.3014831  53.1929510  95.4252833 126.0964124
  52.9954331  95.1167921 126.9807456  53.8029215  96.1514472 126.2262054
  61.2000844 105.9516781 129.2316065  61.9304233 105.6902069 129.7923768
  60.5907790 105.2145503 129.2718133  59.2816141 104.0924643 129.8290516
  58.5549305 103.9580608 129.2207008  58.8663428 104.4001472 130.6347234
  47.1046318 107.8114573 137.5937889  48.0249327 107.9893172 137.7877936
  47.0695901 106.8670618 137.4417589  45.4050542 101.6846803 116.0692118
  44.4981998 101.3879916 116.1454831  45.6826523 101.3876621 115.2026404
  36.3228483 103.0053167 126.5191164  36.0031267 102.1518475 126.2265538
  35.7761911 103.2201745 127.2749131  40.1008390 105.7215608 130.2360670
  40.3194400 106.6532715 130.2548704  40.5134164 105.3623582 131.0215474
  47.0212608  96.2283693 122.2236359  46.2113336  95.8830778 122.5991605
  47.7097025  95.9191237 122.8123970  48.9503156  95.3061740 123.8460655
  49.5034195  95.7257193 124.5050679  49.1873243  94.3797488 123.8883611
  44.9736256 101.2948813 139.6263419  44.8732982 102.2443170 139.5575510
  44.7557798 100.9667052 138.7539489  44.1749327  98.5433738 116.2104097
  45.0368491  98.8688637 116.4699914  44.3599671  97.7565234 115.6977163
  36.1916743 106.6256078 128.4884286  35.4980214 106.2110031 127.9754240
  36.9389734 106.6676615 127.8917704  52.3281963  97.4162265 123.3539320
  51.7480632  98.0747069 122.9717372  52.0617896  96.5939609 122.9426737
  50.7785530  96.8167323 125.5560640  51.2785308  96.9283857 124.7474959
  51.4221138  96.5128375 126.1961449  44.8367526 104.7245952 138.4428481
  44.3534607 105.5246312 138.6492370  44.9228465 104.7353897 137.4895925
  38.1053485 106.5574332 126.3650300  38.0824173 106.6562019 125.4132184
  38.4154122 107.4039483 126.6867467  40.7640863 108.6150487 130.4796915
  41.7184117 108.5834429 130.4126846  40.5653387 108.1541111 131.2947141
  41.3540245 107.1851603 133.0467713  42.1733134 107.6795682 133.0702550
  41.6277053 106.2683571 133.0185280  51.1106841  99.5762355 122.4095668
  50.2232696  99.8612006 122.1915863  51.5260830  99.4156119 121.5622945
  54.4621378  99.6008876 126.1250007  55.2381768 100.0905329 126.3974624
  53.7369512 100.0266930 126.5821877  56.8993936 100.3136495 127.1823948
  57.4938427 100.0732231 126.4717256  56.9720520  99.5943626 127.8097484
  39.1191092 114.1570106 127.4967113  38.9845560 113.3970507 126.9305111
  38.7023154 114.8811006 127.0295902  50.2550055 109.3407030 116.5043688
  50.9585905 109.5457032 117.1201344  49.5312704 109.9083792 116.7692772
  51.0847865 105.0916891 122.6245958  51.0283067 105.5485443 121.7853591
  51.6376208 104.3307576 122.4468801  54.8952671 100.8806623 123.4496078
  54.6389605 100.4803259 124.2804285  54.2705539 101.5950417 123.3246217
  59.2065009 103.6202696 125.9567369  58.6464567 103.6895886 126.7298931
  58.6008512 103.4443681 125.2366865  42.2760218 115.0539423 127.7085555
  42.1592602 115.9984856 127.6064246  41.4552664 114.7512985 128.0971355
  52.1636752 109.7789559 118.5542148  52.9982356 109.3470758 118.3719623
  52.0021095 109.6071573 119.4819043  51.8182644 106.2821672 119.9198487
  51.7631448 106.1165944 118.9786931  51.1928700 106.9897705 120.0760677
  36.6075159 101.5189737 133.7459910  37.2534023 101.0088691 134.2347135
  36.3992311 102.2558418 134.3203335  49.1328552 108.5870584 139.2452050
  50.0019711 108.7611237 138.8838685  48.6535303 109.4065001 139.1227779
  45.1278770  95.7829781 119.4983806  45.1157440  96.7271621 119.6552077
  46.0202192  95.5999927 119.2043267  43.3014732 115.7067685 130.9241484
  44.2041979 115.7391296 131.2407979  43.0752102 114.7768136 130.9387820
  45.0568334 114.4598672 127.5851562  44.1063965 114.4600533 127.4715935
  45.3600820 113.7131406 127.0687597  48.9430889  92.3772558 123.7529743
  48.1763285  91.8231045 123.8986425  49.3541594  92.4494427 124.6143894
  40.9472650  98.6657354 137.8434924  41.8104112  98.3094159 138.0538248
  40.3738061  98.3271249 138.5310328  60.7921027 120.2959210 128.6497325
  61.4299437 120.1765958 127.9460665  60.6741870 121.2440054 128.7085277
  57.6010734 120.2486638 128.5858849  57.2629245 120.1327703 127.6979384
  58.4700502 119.8477803 128.5659856  53.4597549 122.1022115 124.5755740
  52.8962414 122.0112052 123.8072028  53.3449944 121.2822019 125.0558233
  58.0830517 121.4021490 134.5445055  58.0719157 121.0074288 133.6725559
  58.2451156 120.6687563 135.1378826  51.0061981 123.5973306 127.4139961
  51.7983273 123.2564131 126.9986260  51.2458631 123.7068281 128.3342114
  59.0397108 125.7693082 119.8870205  58.3885088 126.3547163 119.5004219
  59.8341471 126.2999277 119.9465243  52.9652735 122.8582220 120.2857340
  53.7383611 122.3111207 120.1470215  53.3178134 123.7226469 120.4971801
  54.8037778 124.1858602 133.4924239  54.5127644 125.0904233 133.3770905
  55.4394762 124.2275130 134.2068309  55.7293985 121.5635450 130.0825599
  56.3257557 121.3391473 129.3682562  55.7868956 120.8220196 130.6851046
  55.3019013 119.0174886 117.9175790  55.5544534 118.4956407 117.1559253
  54.3643572 118.8541031 118.0202473  60.3462296 118.0210664 125.7250533
  61.1325385 117.6030087 125.3740950  60.6101000 118.9256756 125.8932181
  60.5172373 123.4583514 120.4239190  59.8818206 123.5318141 121.1360094
  60.1869780 124.0477113 119.7458269  65.7470723 117.9585897 126.6283511
  66.4795895 117.3885114 126.8621341  64.9910079 117.5707498 127.0690017
  55.0215302 120.9202992 120.1200165  54.9051560 120.2447895 120.7881249
  55.1317562 120.4335366 119.3032318  57.3646843 120.3813139 123.8246854
  57.0005050 119.8543760 124.5359775  58.2213959 119.9911608 123.6513339
  63.2696143 111.6707471 131.0878120  62.9379468 112.5402882 130.8639335
  62.6741757 111.3543755 131.7672150  57.0052330 115.4103039 118.8208202
  57.1726732 116.2783275 119.1878673  56.8149499 115.5730320 117.8969492
  59.7627663 123.8720017 130.4874033  59.4628386 124.7745056 130.3789840
  59.4178722 123.6052201 131.3395186  53.2140144 120.3233814 126.5210737
  52.2890641 120.1910028 126.7288429  53.4624558 121.1028034 127.0180680
  63.1624807 116.3902558 128.1671470  62.2541684 116.3217966 127.8730231
  63.1112402 116.8674503 128.9953295  56.9841551 117.8660696 119.8054869
  56.8641176 118.3117747 120.6440349  56.2894139 118.2146014 119.2468407
  50.5748955 119.9667088 127.3554526  50.7041337 120.2201567 128.2693938
  49.8946407 120.5594796 127.0359181  54.7448443 130.6364338 123.4545000
  54.6672472 131.5872163 123.5333481  54.1410086 130.2910210 124.1119927
  57.2365672 117.8092203 136.1106367  56.4599006 118.3686123 136.1009232
  57.8756235 118.2948986 136.6321237  65.0286453 114.5918996 129.9449344
  64.3860833 114.8851529 129.2989139  64.5241382 114.4771916 130.7502541
  62.6826617 118.3382169 120.6335203  63.5944473 118.5709556 120.4582901
  62.1736264 118.9219213 120.0710282  55.4912045 120.6177657 135.6724334
  56.2326729 121.1562701 135.3959158  54.7849030 121.2443945 135.8295886
  60.9667384 122.7606797 134.2696496  61.3750740 122.3189208 133.5251128
  60.2444646 122.1859425 134.5230689  57.3198454 117.6979404 131.6430053
  58.1659650 118.1218817 131.7864702  57.2597092 117.0413028 132.3368616
  61.2896199 123.3207988 128.0248785  60.6605061 123.4853702 127.3224853
  60.9021861 123.7349597 128.7959749  65.1685431 124.2562425 125.3793148
  64.4836469 124.6361327 124.8290182  65.2529280 124.8657752 126.1125096
  60.4697900 115.3583772 133.3011226  60.2258832 116.1125833 132.7645502
  60.7457830 115.7369120 134.1358473  62.4236363 121.9022385 131.9788492
  62.6353258 122.5454144 131.3022873  62.3766111 121.0684701 131.5110422
  60.0262591 114.5140205 128.8825064  59.1647071 114.8121459 129.1741802
  60.0525026 114.7310604 127.9506097  56.8424161 123.0582396 125.2898870
  57.3062506 123.3370099 124.5003492  56.5780959 122.1565840 125.1071960
  53.7348242 122.6053877 128.2278633  54.3049599 123.0341146 127.5896118
  54.3256354 122.3236462 128.9262819  55.7793047 119.1805548 122.0988435
  56.4817090 119.6326592 122.5662361  55.4473675 118.5389367 122.7268328
  54.2273408 117.7717305 136.4739644  53.5972069 118.4533586 136.7075041
  54.1209496 117.6600386 135.5292783  49.5218381 117.4389101 127.4005568
  48.7317435 117.6946629 126.9245679  50.0129628 118.2537439 127.5057609
  63.5382190 124.7794340 130.1510849  64.3599634 124.3774527 129.8693531
  63.5344593 124.6762574 131.1026965  51.4733126 117.8033680 124.3589045
  50.6764290 117.9152374 124.8772541  51.2458718 118.1420332 123.4929936
  57.3038794 124.3278383 132.3071560  57.3683226 124.7898790 133.1429732
  56.5949718 123.6975748 132.4353870  47.8056084 117.6919591 129.8320559
  48.0564122 118.5766601 130.0978135  48.3415632 117.5124193 129.0595651
  71.6288184 121.1233088 126.4995821  70.8751892 120.5540486 126.3439825
  71.7635725 121.0895753 127.4466455  57.0186812 125.9946491 122.1750540
  56.8832486 126.8398026 122.6035388  57.5596624 126.1965768 121.4116474
  53.5054151 112.0738071 138.8364895  53.1121097 111.5204269 139.5112540
  54.3220292 112.3848649 139.2271413  50.4716209 123.5121929 122.7478465
  50.9840730 124.3065179 122.8984030  51.1238922 122.8148219 122.6812067
  52.2811094 126.6287685 124.8301218  52.4577722 127.5505650 124.6422202
  53.0767927 126.3146104 125.2595598  56.4222112 113.4895950 136.4285152
  57.1631826 114.0903103 136.3489614  56.6540035 112.7473587 135.8703194
  51.5663450 118.6752317 134.7063382  51.4516965 117.7737574 135.0070480
  50.7107968 118.9216014 134.3548198  58.6455288 126.6170057 136.3050882
  58.2019142 125.8306436 135.9871787  59.3072502 126.8049208 135.6394773
  53.4042409 128.1465859 130.8311561  53.9549834 128.0182922 130.0588555
  52.5653885 128.4460748 130.4806453  60.7436526 126.8972857 134.3332283
  60.7255001 127.7181738 133.8412553  61.6656446 126.7726932 134.5582425
  57.2009580 124.4116987 135.1755792  57.7337917 123.6505275 134.9455100
  56.6723661 124.1190638 135.9179946  60.3679275 109.5177053 130.7049434
  60.0243545 110.4078694 130.6288544  60.7358238 109.3278710 129.8419019
  48.4365126 121.8410583 123.5238036  49.2740348 122.2507591 123.3071743
  48.6143393 120.9010025 123.4938230  60.3329558 119.5085664 119.2121869
  59.8176181 120.2790268 119.4510256  60.0606866 118.8350800 119.8354930
  57.9176669 114.3535364 124.2707107  57.0618265 113.9642215 124.0912746
  58.3303621 114.4327325 123.4106893  59.4475816 111.8881708 128.6698667
  58.9440611 111.8511843 127.8566472  59.7406422 112.7974450 128.7295323
  55.6918701 111.9720437 127.6764849  56.5571698 111.7763246 127.3170738
  55.7596210 111.7430789 128.6034205  65.3063832 122.2618018 121.1475042
  64.5293275 121.9229178 120.7030204  65.9855313 122.2670642 120.4730007
  60.1215861 117.3812756 121.0381650  59.8165997 117.6958905 121.8891793
  61.0746303 117.4594176 121.0808983  58.5662293 123.5402979 122.6874604
  58.0383654 122.8055739 122.3747841  58.0649796 124.3177655 122.4414572
  63.5455139 121.7352000 127.8041650  62.8878813 122.4251261 127.8921779
  64.3495538 122.1248432 128.1475636  53.2981020 114.2022645 125.0481215
  53.8724772 113.9797827 124.3154408  53.8852003 114.2711340 125.8009817
  62.3560598 120.0896372 125.8545592  62.8692479 120.7226364 126.3567302
  63.0061822 119.4897568 125.4888952  53.6250608 116.2327106 119.0677101
  52.7887920 116.5701793 119.3886375  53.4855377 116.0976086 118.1304238
  55.6003688 111.0763894 123.7756285  54.9468101 110.7612911 123.1512900
  55.5584162 110.4539635 124.5016108  56.7114893 121.3583189 115.6909577
  55.8041955 121.1272443 115.8900726  57.2085925 120.5620809 115.8783558
  59.6182972 130.0680697 118.6106263  58.9444671 130.3712393 119.2191221
  60.0048794 130.8709777 118.2611720  58.8341429 117.5645828 128.1003932
  57.9163990 117.7860775 127.9425620  59.2501572 117.6392138 127.2415640
  59.6176476 118.9637244 123.2306613  60.3648295 119.4758641 122.9213735
  59.8868066 118.6421296 124.0911006  57.8903126 121.4595784 120.2133567
  56.9814346 121.1754817 120.3106037  57.9198210 121.8794863 119.3536874
  63.1222394 125.0702374 123.9824735  62.6684721 124.2293284 124.0389925
  62.4916361 125.7063772 124.3199515  62.0655313 115.9994360 125.2125402
  61.3278070 115.4871746 125.5435645  62.3182087 115.5594741 124.4008679
  61.5655333 126.9078870 124.9174553  61.8578308 127.4683928 124.1986918
  62.0753954 127.2007431 125.6727712  62.1666941 108.7770612 125.8067171
  62.4725818 107.9167975 125.5193086  62.8919546 109.3688232 125.6066165
  48.4591297 119.1801298 124.1948769  48.2615697 118.5870659 123.4699836
  47.9037961 118.8753509 124.9124708  56.4388021 119.0724405 126.3143362
  56.4936630 118.1198241 126.2385839  55.6279223 119.2283844 126.7984661
  57.5879214 123.0004528 117.5521646  57.1498644 122.2840387 117.0927283
  58.3289655 123.2280643 116.9906737  54.3780380 117.6901465 124.0733741
  53.5648246 117.9895635 124.4798933  54.8739375 117.2957153 124.7908223
  56.5288958 127.6859222 126.0068006  56.4865137 127.9120068 125.0776538
  57.4451657 127.4522596 126.1553807  59.9754592 118.1543289 132.9048635
  60.3303980 118.3814762 133.7643101  60.6226723 118.4861666 132.2825890
  65.7052329 121.2761725 123.6097964  65.5670228 121.4663321 122.6819153
  65.3488548 122.0381108 124.0666015  53.8694455 115.2619820 129.6894976
  54.5093835 115.1208579 128.9917939  53.0371986 114.9754334 129.3133578
  65.7321709 123.3438252 128.6209236  66.1658215 123.2513541 129.4692290
  66.4453289 123.3195752 127.9829252  54.6454759 124.5622251 125.8029969
  55.4395358 124.0672571 125.6012544  53.9346452 124.0340114 125.4397674
  59.4649604 126.9440346 130.1542336  59.5186626 127.5131282 130.9220052
  58.5964385 127.1142231 129.7896373  50.9537523 118.7065332 121.8789721
  50.0235111 118.6449788 122.0959683  51.0494995 118.1841285 121.0826363
  50.8723072 115.2320145 124.4667963  51.1329889 116.1465478 124.3577123
  51.6940244 114.7644588 124.6164576  52.3447997 116.6457902 131.6366787
  53.0171050 116.4375264 130.9879436  51.5177784 116.4479988 131.1972020
  66.5937258 123.3861953 131.1542121  66.7873148 124.2907763 131.4001396
  66.4937876 122.9269372 131.9880706  58.2473569 113.2719843 133.6532448
  57.6001484 113.9709793 133.5596925  59.0174584 113.7055987 134.0208697
  61.6552367 123.5368695 136.7283002  61.5037873 123.3079247 135.8113085
  61.6457046 124.4939297 136.7414347  58.4237703 121.1100608 131.7129268
  59.3529763 121.2611768 131.5398235  58.0028733 121.1984629 130.8577915
  57.2226035 125.1351273 129.4827806  57.0837121 124.7670057 130.3553744
  56.4340631 125.6498912 129.3111763  57.8174187 130.2360369 120.8253342
  57.9925943 129.7648412 121.6398965  57.1306975 130.8626135 121.0534603
  58.7731250 124.5132875 126.8716643  58.4381083 124.4733645 127.7674293
  58.2735196 123.8477591 126.3987054  52.7475494 119.9200505 132.3969225
  52.6095292 119.1880744 132.9980764  53.6580418 119.8309405 132.1153412
  61.7090442 121.8588910 117.1453703  61.0919613 121.1335738 117.0486756
  61.2406930 122.6198270 116.8020777  55.3757795 119.6320465 131.8852904
  56.0857413 118.9913657 131.8439523  55.3327103 119.8833359 132.8079085
  63.3644574 126.5687818 134.8059483  63.3057120 125.8847038 134.1390067
  63.7664092 127.3106808 134.3540109  54.0886729 116.6185682 133.7048544
  53.5524086 116.1676421 134.3570140  53.5003437 116.7531591 132.9619008
  52.3835272 133.3849732 127.5993202  52.6231871 134.0168256 128.2772221
  51.5404469 133.0337772 127.8858562  53.4988988 116.0774334 116.2675007
  52.6218454 115.9563135 115.9037254  53.9746741 115.2860412 116.0153896
  63.3661981 124.5327402 133.0373463  62.4788760 124.1953324 133.1599862
  63.9360532 123.8010433 133.2742229  45.0191128 120.8651494 126.3616515
  45.7062168 120.5513224 125.7737530  44.8639257 121.7692858 126.0883766
  49.8225850 115.7541690 130.7901538  49.7384039 115.1467360 130.0551948
  49.0008557 116.2450708 130.7911035  56.8963134 129.1928854 130.0034706
  56.8233306 129.9983826 130.5154011  56.4540527 129.3920820 129.1782728
  56.6852914 128.4300624 123.5137528  55.9020436 128.9722304 123.6075752
  57.3845659 128.9474604 123.9131769  59.9949564 114.2395254 126.1571733
  60.4918264 113.4865216 125.8372804  59.2236545 114.2759570 125.5914943
  67.8479321 119.9435619 127.7990025  67.8369198 120.8260335 127.4283958
  66.9796701 119.5907170 127.6044562  59.3561818 129.0915688 132.1592865
  60.0689790 129.7263153 132.0868766  58.8651846 129.1879554 131.3432867
  61.0779345 122.9966941 123.7310157  60.1435623 123.1168403 123.5614861
  61.2556013 122.0939408 123.4670167  56.5784533 116.3812637 125.8843418
  56.2082320 115.8283677 126.5724323  57.0743625 115.7770770 125.3318418
  64.4651896 118.8384260 124.2660191  64.9312348 119.6712252 124.1920493
  64.9159397 118.3729242 124.9705449  54.4073731 126.8410132 132.9798436
  55.1083191 127.4746615 133.1327830  53.9368846 127.1824863 132.2194075
  62.5328127 125.1828081 121.2646343  62.8087971 125.0684676 122.1740217
  61.6632626 124.7845566 121.2258516  62.4368559 111.2064847 128.3051092
  61.5231639 111.4369074 128.4733299  62.8661660 111.2903291 129.1565125
  62.2075017 119.3954739 130.8050986  61.5546467 119.6430647 130.1503439
  62.5855397 118.5818877 130.4713463  59.1682191 129.4314432 124.9079156
  59.3504586 128.6136088 125.3706909  59.9915177 129.6482125 124.4704046
  59.5024357 128.3582617 122.1694205  60.0312123 127.8475072 121.5564367
  59.7652576 128.0425148 123.0339738  58.2562590 120.1374550 137.2917023
  57.5803227 120.0368680 137.9619399  59.0790224 119.9813764 137.7553021
  50.0041449 126.3746487 129.9129539  50.5894886 125.6290175 130.0457443
  49.8066288 126.6850443 130.7966202  52.8580105 129.4097734 124.9291981
  52.1890480 129.8943862 124.4456021  52.7192974 129.6566955 125.8435359
  44.5959104 118.9452087 128.6333982  44.6343204 118.4115678 129.4271100
  44.0899397 118.4187292 128.0144959  56.9985373 131.4441478 131.5274639
  57.5503681 131.6073099 132.2923725  57.3391567 132.0345915 130.8554664
  51.9749866 113.7916627 132.1296524  52.0391193 114.6531458 131.7173922
  51.9116987 113.1790629 131.3968882  51.4502139 115.8639760 135.7769558
  52.0774178 115.4816837 136.3907083  50.5930058 115.6453962 136.1425251
  61.8496247 126.2702735 137.3823294  62.3936151 126.8832693 136.8878249
  61.2683092 126.8282314 137.8990307  48.2267682 117.6716189 121.7087913
  48.5221123 116.7626868 121.6554967  47.3255717 117.6503929 121.3868915
  60.1353760 129.3923453 128.5138321  60.0104900 128.5913193 128.0049267
  60.7932852 129.8869647 128.0252291  51.7561929 115.7472186 127.6915462
  51.0348514 116.3608153 127.5522935  52.5455184 116.2829951 127.6132108
  62.1988669 127.1932473 130.1417872  61.2519004 127.0737824 130.0696198
  62.5471442 126.3054971 130.2244133  54.5588242 113.0826612 133.9656113
  55.0822644 113.3288909 134.7282423  54.3400575 113.9146647 133.5459251
  49.9555523 115.3530287 121.8327238  49.6268229 114.4727666 121.6502344
  50.3094894 115.2977955 122.7203627  59.2035102 126.9885189 126.3422224
  59.0560065 126.0601897 126.5229794  60.0288596 127.0105280 125.8579299
  53.0697346 115.6403257 122.2002716  53.4093419 116.1689178 121.4781324
  53.5169467 115.9783663 122.9761282  62.8069224 127.8113748 127.4287097
  63.7315771 127.6056610 127.2911548  62.6384527 127.5630149 128.3376438
  55.7640787 114.0240307 131.6505784  55.4237608 113.2248120 132.0526464
  55.0579794 114.3242018 131.0782617  56.4157259 111.1089620 130.1033107
  57.2383328 110.6350098 129.9811997  56.6595323 111.8880103 130.6031793
  55.0565494 114.1377878 120.3996009  55.7773856 114.5159131 119.8959726
  54.4330798 114.8566755 120.5030987  59.1996616 114.8423027 121.3354341
  59.4160231 115.7247665 121.0343169  58.7190684 114.4509241 120.6059983
  53.9395838 117.8008740 127.9125086  53.7940419 118.1149043 128.8049367
  53.4621041 118.4193641 127.3595984  55.7992221 114.7911288 127.9605975
  55.7853789 113.8952382 127.6238273  56.5164649 114.7981952 128.5944261
  57.6518351 115.2248629 130.0059103  57.3936129 116.1465699 130.0043433
  57.1203392 114.8279063 130.6959567  62.5964540 128.3299416 122.7849188
  62.7701418 127.7645838 122.0323040  63.0893431 129.1300311 122.6028678
  48.4141500 120.3414085 130.8512747  47.8694968 121.1173893 130.9833021
  49.2920850 120.6884889 130.6931868  55.2029117 113.6725669 123.2293545
  55.3245028 112.7442315 123.4284433  54.9131159 113.6864355 122.3171861
  58.0720307 111.3580579 126.3660265  58.0942004 111.4219912 125.4112245
  58.4888366 110.5185088 126.5600771  68.4503931 121.0935839 124.4039488
  68.8935077 120.3443164 124.0058611  67.5730442 121.0845975 124.0213220
  63.5839713 127.6466180 119.8846086  64.2790617 128.2672873 120.1033401
  63.9262863 126.7961531 120.1598464  49.2007522 119.4683981 133.7442904
  48.4589258 119.6166616 134.3307534  48.8800266 119.7292247 132.8809653
  65.4831136 125.0965886 121.4133417  66.0082460 125.4353158 120.6882737
  65.3953488 124.1612901 121.2296552  57.1451184 129.0099959 133.5423294
  57.4538311 128.7649106 134.4145993  57.9426667 129.2146598 133.0542164
  57.1671797 131.1637869 125.7728670  56.7276787 130.6714248 126.4661527
  57.9179913 130.6210837 125.5320745  49.6464136 127.3549410 125.7753298
  50.4722155 127.0553182 125.3951942  49.2958188 126.5857032 126.2243087
  54.6145669 126.7075878 127.8450972  53.9925678 126.0446583 127.5453200
  55.2850536 126.7337010 127.1624620  47.8472741 125.2735736 126.7342232
  47.0104649 124.8457911 126.5526233  47.8196386 125.4668180 127.6713023
  54.6870196 115.1857666 137.4383478  54.7358352 116.0619789 137.0561247
  55.2292710 114.6435059 136.8655121  65.1725042 125.7298789 136.7184615
  64.3820586 125.7122928 136.1789114  64.9358396 126.2687083 137.4733652
  65.2922917 122.5791256 134.0317344  65.3420922 122.4141263 134.9732866
  65.1836840 121.7118515 133.6415224  54.1759176 125.2579801 121.3209432
  54.3247296 125.9415266 120.6676105  54.9825619 125.2384891 121.8358888
  62.5826679 118.5622184 135.3476650  63.4836542 118.4228648 135.0560648
  62.6574654 118.7276638 136.2874828  56.9169485 115.9389038 134.1929837
  56.0472794 116.2322604 133.9212425  57.1528965 116.5229483 134.9137100
  66.7941114 124.9988197 134.2759365  66.5025922 125.3618178 135.1122826
  66.1813245 124.2855205 134.0972697  67.9936796 122.5641077 126.7961935
  68.8283687 123.0030881 126.9599496  68.1295925 122.0879730 125.9770181
  65.0428302 120.1220812 132.7439423  65.5182424 120.3148458 131.9358274
  64.1193867 120.1779998 132.4982807  51.9311809 121.2844979 122.3270501
  51.6857851 120.3807309 122.5250711  52.1007723 121.2862129 121.3849979
  59.6208518 112.1568655 131.7095257  60.1390462 112.8929682 131.3841745
  59.2663651 112.4632649 132.5442016  51.2007456 117.0173337 119.8256663
  50.5076701 117.0917692 119.1696699  50.9559208 116.2533680 120.3478180
  59.8721113 108.5768938 127.2296154  60.1522866 107.9092127 127.8556580
  60.6571720 108.7698033 126.7170817  57.6754581 127.7527932 118.7921180
  57.1028548 128.3718119 118.3391652  58.2487375 128.3027293 119.3261102
  63.7429971 116.9986572 130.9767729  64.6947394 117.0984670 130.9979953
  63.5733421 116.2064840 131.4865813  61.7644350 114.0842155 131.1627130
  61.1694283 114.3647168 130.4673618  61.4794047 114.5736056 131.9343871
  60.8951841 128.0365082 119.9229762  61.8282514 127.9710644 120.1262638
  60.8075054 128.8721349 119.4644295  63.5239858 127.3530952 116.8833710
  63.4453489 127.0190816 117.7769468  64.3449524 127.8452720 116.8825182
  66.2218049 120.2192692 130.0910028  66.1894369 119.2808692 130.2769712
  66.8318672 120.2976728 129.3575853  58.0601380 119.0888745 116.1337232
  59.0060484 118.9594953 116.2025650  57.6815625 118.3503406 116.6106660
  66.3712537 117.0103735 130.1368311  65.8551586 116.2262192 129.9498240
  67.2552486 116.6822452 130.3014831  64.0323264 110.7544751 126.0964124
  63.8348085 110.4459839 126.9807456  64.6422970 111.4806389 126.2262054
  72.0394599 121.2808698 129.2316065  72.7697987 121.0193987 129.7923768
  71.4301544 120.5437420 129.2718133  70.1209896 119.4216561 129.8290516
  69.3943059 119.2872526 129.2207008  69.7057183 119.7293390 130.6347234
  57.9440072 123.1406491 137.5937889  58.8643082 123.3185090 137.7877936
  57.9089655 122.1962536 137.4417589  56.2444297 117.0138721 116.0692118
  55.3375752 116.7171834 116.1454831  56.5220278 116.7168539 115.2026404
  47.1622237 118.3345084 126.5191164  46.8425021 117.4810393 126.2265538
  46.6155665 118.5493662 127.2749131  50.9402145 121.0507525 130.2360670
  51.1588154 121.9824633 130.2548704  51.3527919 120.6915500 131.0215474
  57.8606362 111.5575611 122.2236359  57.0507091 111.2122696 122.5991605
  58.5490779 111.2483154 122.8123970  59.7896911 110.6353657 123.8460655
  60.3427949 111.0549111 124.5050679  60.0266997 109.7089406 123.8883611
  55.8130010 116.6240731 139.6263419  55.7126737 117.5735088 139.5575510
  55.5951552 116.2958970 138.7539489  55.0143081 113.8725656 116.2104097
  55.8762245 114.1980554 116.4699914  55.1993426 113.0857152 115.6977163
  47.0310497 121.9547996 128.4884286  46.3373969 121.5401949 127.9754240
  47.7783488 121.9968532 127.8917704  63.1675718 112.7454183 123.3539320
  62.5874387 113.4038987 122.9717372  62.9011651 111.9231527 122.9426737
  61.6179284 112.1459240 125.5560640  62.1179063 112.2575775 124.7474959
  62.2614892 111.8420293 126.1961449  55.6761280 120.0537870 138.4428481
  55.1928362 120.8538230 138.6492370  55.7622219 120.0645815 137.4895925
  48.9447240 121.8866250 126.3650300  48.9217928 121.9853937 125.4132184
  49.2547876 122.7331400 126.6867467  51.6034618 123.9442405 130.4796915
  52.5577871 123.9126347 130.4126846  51.4047141 123.4833028 131.2947141
  52.1934000 122.5143521 133.0467713  53.0126889 123.0087599 133.0702550
  52.4670807 121.5975489 133.0185280  61.9500596 114.9054273 122.4095668
  61.0626451 115.1903924 122.1915863  62.3654585 114.7448036 121.5622945
  65.3015132 114.9300794 126.1250007  66.0775522 115.4197246 126.3974624
  64.5763266 115.3558848 126.5821877  67.7387691 115.6428413 127.1823948
  68.3332181 115.4024149 126.4717256  67.8114274 114.9235544 127.8097484
  49.9584846 129.4862024 127.4967113  49.8239314 128.7262425 126.9305111
  49.5416909 130.2102924 127.0295902  61.0943809 124.6698948 116.5043688
  61.7979659 124.8748950 117.1201344  60.3706458 125.2375710 116.7692772
  61.9241620 120.4208809 122.6245958  61.8676821 120.8777360 121.7853591
  62.4769962 119.6599493 122.4468801  65.7346426 116.2098541 123.4496078
  65.4783360 115.8095176 124.2804285  65.1099294 116.9242335 123.3246217
  70.0458763 118.9494614 125.9567369  69.4858321 119.0187803 126.7298931
  69.4402267 118.7735599 125.2366865  53.1153972 130.3831341 127.7085555
  52.9986356 131.3276774 127.6064246  52.2946418 130.0804903 128.0971355
  63.0030507 125.1081477 118.5542148  63.8376111 124.6762675 118.3719623
  62.8414850 124.9363491 119.4819043  62.6576399 121.6113590 119.9198487
  62.6025203 121.4457862 118.9786931  62.0322454 122.3189623 120.0760677
  47.4468914 116.8481655 133.7459910  48.0927778 116.3380608 134.2347135
  47.2386065 117.5850336 134.3203335  59.9722306 123.9162502 139.2452050
  60.8413466 124.0903154 138.8838685  59.4929058 124.7356919 139.1227779
  55.9672524 111.1121699 119.4983806  55.9551194 112.0563539 119.6552077
  56.8595946 110.9291845 119.2043267  54.1408486 131.0359603 130.9241484
  55.0435733 131.0683213 131.2407979  53.9145856 130.1060054 130.9387820
  55.8962088 129.7890590 127.5851562  54.9457719 129.7892451 127.4715935
  56.1994575 129.0423324 127.0687597  59.7824644 107.7064476 123.7529743
  59.0157040 107.1522962 123.8986425  60.1935349 107.7786345 124.6143894
  51.7866405 113.9949272 137.8434924  52.6497866 113.6386076 138.0538248
  51.2131816 113.6563166 138.5310328  71.6314782 135.6251128 128.6497325
  72.2693192 135.5057875 127.9460665  71.5135625 136.5731972 128.7085277
  68.4404488 135.5778556 128.5858849  68.1023000 135.4619621 127.6979384
  69.3094256 135.1769721 128.5659856  64.2991304 137.4314032 124.5755740
  63.7356169 137.3403969 123.8072028  64.1843699 136.6113937 125.0558233
  61.8455736 138.9265224 127.4139961  62.6377028 138.5856049 126.9986260
  62.0852386 139.0360199 128.3342114  69.8790863 141.0985000 119.8870205
  69.2278842 141.6839081 119.5004219  70.6735225 141.6291195 119.9465243
  63.8046490 138.1874137 120.2857340  64.5777366 137.6403124 120.1470215
  64.1571889 139.0518387 120.4971801  66.5687739 136.8927368 130.0825599
  67.1651311 136.6683391 129.3682562  66.6262711 136.1512114 130.6851046
  66.1412768 134.3466803 117.9175790  66.3938288 133.8248325 117.1559253
  65.2037327 134.1832949 118.0202473  71.1856050 133.3502582 125.7250533
  71.9719140 132.9322005 125.3740950  71.4494755 134.2548674 125.8932181
  71.3566128 138.7875432 120.4239190  70.7211961 138.8610059 121.1360094
  71.0263534 139.3769031 119.7458269  76.5864477 133.2877815 126.6283511
  77.3189649 132.7177032 126.8621341  75.8303833 132.8999415 127.0690017
  65.8609056 136.2494909 120.1200165  65.7445314 135.5739813 120.7881249
  65.9711316 135.7627283 119.3032318  68.2040597 135.7105056 123.8246854
  67.8398804 135.1835677 124.5359775  69.0607713 135.3203526 123.6513339
  74.1089898 126.9999389 131.0878120  73.7773223 127.8694800 130.8639335
  73.5135511 126.6835673 131.7672150  67.8446084 130.7394956 118.8208202
  68.0120487 131.6075193 119.1878673  67.6543253 130.9022238 117.8969492
  64.0533899 135.6525732 126.5210737  63.1284395 135.5201946 126.7288429
  64.3018312 136.4319951 127.0180680  74.0018561 131.7194475 128.1671470
  73.0935438 131.6509884 127.8730231  73.9506157 132.1966420 128.9953295
  67.8235305 133.1952614 119.8054869  67.7034930 133.6409664 120.6440349
  67.1287893 133.5437931 119.2468407  61.4142710 135.2959005 127.3554526
  61.5435091 135.5493484 128.2693938  60.7340161 135.8886713 127.0359181
  65.5842197 145.9656255 123.4545000  65.5066227 146.9164081 123.5333481
  64.9803841 145.6202128 124.1119927  75.8680208 129.9210914 129.9449344
  75.2254588 130.2143447 129.2989139  75.3635136 129.8063834 130.7502541
  73.5220371 133.6674087 120.6335203  74.4338227 133.9001474 120.4582901
  73.0130018 134.2511131 120.0710282  68.1592209 133.0271321 131.6430053
  69.0053404 133.4510735 131.7864702  68.0990847 132.3704946 132.3368616
  70.8656346 129.8432123 128.8825064  70.0040825 130.1413376 129.1741802
  70.8918781 130.0602522 127.9506097  67.6817915 138.3874313 125.2898870
  68.1456261 138.6662016 124.5003492  67.4174713 137.4857758 125.1071960
  64.5741996 137.9345795 128.2278633  65.1443354 138.3633063 127.5896118
  65.1650108 137.6528380 128.9262819  66.6186801 134.5097466 122.0988435
  67.3210845 134.9618509 122.5662361  66.2867430 133.8681285 122.7268328
  60.3612135 132.7681018 127.4005568  59.5711189 133.0238547 126.9245679
  60.8523383 133.5829356 127.5057609  62.3126881 133.1325598 124.3589045
  61.5158044 133.2444292 124.8772541  62.0852473 133.4712250 123.4929936
  58.6449838 133.0211509 129.8320559  58.8957877 133.9058519 130.0978135
  59.1809387 132.8416110 129.0595651  67.8580566 141.3238408 122.1750540
  67.7226241 142.1689944 122.6035388  68.3990379 141.5257686 121.4116474
  61.3109963 138.8413846 122.7478465  61.8234484 139.6357097 122.8984030
  61.9632676 138.1440137 122.6812067  63.1204848 141.9579603 124.8301218
  63.2971476 142.8797567 124.6422202  63.9161682 141.6438022 125.2595598
  62.4057205 134.0044235 134.7063382  62.2910720 133.1029492 135.0070480
  61.5501722 134.2507931 134.3548198  71.2073030 124.8468970 130.7049434
  70.8637299 125.7370612 130.6288544  71.5751992 124.6570628 129.8419019
  59.2758880 137.1702501 123.5238036  60.1134102 137.5799509 123.3071743
  59.4537148 136.2301943 123.4938230  71.1723312 134.8377581 119.2121869
  70.6569936 135.6082186 119.4510256  70.9000621 134.1642718 119.8354930
  68.7570423 129.6827282 124.2707107  67.9012020 129.2934133 124.0912746
  69.1697375 129.7619243 123.4106893  70.2869570 127.2173625 128.6698667
  69.7834366 127.1803761 127.8566472  70.5800177 128.1266368 128.7295323
  66.5312456 127.3012355 127.6764849  67.3965453 127.1055164 127.3170738
  66.5989965 127.0722707 128.6034205  76.1457586 137.5909936 121.1475042
  75.3687029 137.2521096 120.7030204  76.8249067 137.5962559 120.4730007
  70.9609616 132.7104673 121.0381650  70.6559751 133.0250823 121.8891793
  71.9140058 132.7886093 121.0808983  69.4056047 138.8694897 122.6874604
  68.8777409 138.1347656 122.3747841  68.9043550 139.6469573 122.4414572
  64.1374775 129.5314563 125.0481215  64.7118527 129.3089745 124.3154408
  64.7245757 129.6003258 125.8009817  73.1954352 135.4188290 125.8545592
  73.7086234 136.0518282 126.3567302  73.8455576 134.8189485 125.4888952
  64.4644362 131.5619024 119.0677101  63.6281674 131.8993711 119.3886375
  64.3249132 131.4268004 118.1304238  66.4397443 126.4055812 123.7756285
  65.7861855 126.0904829 123.1512900  66.3977917 125.7831552 124.5016108
  67.5508648 136.6875107 115.6909577  66.6435709 136.4564361 115.8900726
  68.0479680 135.8912726 115.8783558  70.4576726 145.3972614 118.6106263
  69.7838425 145.7004311 119.2191221  70.8442548 146.2001695 118.2611720
  69.6735183 132.8937746 128.1003932  68.7557744 133.1152693 127.9425620
  70.0895327 132.9684056 127.2415640  70.4570231 134.2929161 123.2306613
  71.2042050 134.8050558 122.9213735  70.7261820 133.9713214 124.0911006
  68.7296881 136.7887702 120.2133567  67.8208100 136.5046735 120.3106037
  68.7591965 137.2086780 119.3536874  73.9616148 140.3994291 123.9824735
  73.5078476 139.5585201 124.0389925  73.3310115 141.0355690 124.3199515
  72.9049068 131.3286277 125.2125402  72.1671825 130.8163664 125.5435645
  73.1575842 130.8886659 124.4008679  72.4049088 142.2370788 124.9174553
  72.6972062 142.7975845 124.1986918  72.9147708 142.5299349 125.6727712
  73.0060695 124.1062529 125.8067171  73.3119572 123.2459893 125.5193086
  73.7313300 124.6980150 125.6066165  59.2985051 134.5093216 124.1948769
  59.1009451 133.9162577 123.4699836  58.7431715 134.2045426 124.9124708
  67.2781775 134.4016323 126.3143362  67.3330385 133.4490159 126.2385839
  66.4672977 134.5575762 126.7984661  68.4272969 138.3296446 117.5521646
  67.9892399 137.6132305 117.0927283  69.1683410 138.5572560 116.9906737
  65.2174135 133.0193382 124.0733741  64.4042000 133.3187553 124.4798933
  65.7133129 132.6249071 124.7908223  67.3682713 143.0151139 126.0068006
  67.3258892 143.2411986 125.0776538  68.2845412 142.7814514 126.1553807
  76.5446084 136.6053643 123.6097964  76.4063982 136.7955239 122.6819153
  76.1882302 137.3673025 124.0666015  64.7088210 130.5911738 129.6894976
  65.3487589 130.4500497 128.9917939  63.8765740 130.3046251 129.3133578
  65.4848514 139.8914168 125.8029969  66.2789112 139.3964488 125.6012544
  64.7740206 139.3632031 125.4397674  61.7931277 134.0357250 121.8789721
  60.8628865 133.9741705 122.0959683  61.8888749 133.5133203 121.0826363
  61.7116826 130.5612063 124.4667963  61.9723643 131.4757396 124.3577123
  62.5333998 130.0936505 124.6164576  63.1841751 131.9749820 131.6366787
  63.8564805 131.7667182 130.9879436  62.3571538 131.7771906 131.1972020
  69.0867323 128.6011761 133.6532448  68.4395239 129.3001711 133.5596925
  69.8568339 129.0347905 134.0208697  68.6567942 145.5652287 120.8253342
  68.8319697 145.0940330 121.6398965  67.9700730 146.1918053 121.0534603
  69.6125005 139.8424793 126.8716643  69.2774837 139.8025563 127.7674293
  69.1128950 139.1769509 126.3987054  63.5869249 135.2492423 132.3969225
  63.4489047 134.5172662 132.9980764  64.4974172 135.1601323 132.1153412
  72.5484196 137.1880827 117.1453703  71.9313367 136.4627655 117.0486756
  72.0800685 137.9490188 116.8020777  64.9280483 131.9477600 133.7048544
  64.3917840 131.4968339 134.3570140  64.3397192 132.0823509 132.9619008
  64.3382742 131.4066252 116.2675007  63.4612209 131.2855052 115.9037254
  64.8140495 130.6152330 116.0153896  55.8584882 136.1943411 126.3616515
  56.5455922 135.8805141 125.7737530  55.7033011 137.0984776 126.0883766
  60.6619605 131.0833608 130.7901538  60.5777793 130.4759277 130.0551948
  59.8402311 131.5742626 130.7911035  67.5246668 143.7592542 123.5137528
  66.7414190 144.3014222 123.6075752  68.2239414 144.2766522 123.9131769
  70.8343318 129.5687171 126.1571733  71.3312018 128.8157134 125.8372804
  70.0630300 129.6051488 125.5914943  71.9173099 138.3258859 123.7310157
  70.9829378 138.4460321 123.5614861  72.0949768 137.4231325 123.4670167
  67.4178287 131.7104554 125.8843418  67.0476075 131.1575595 126.5724323
  67.9137380 131.1062688 125.3318418  75.3045651 134.1676178 124.2660191
  75.7706103 135.0004169 124.1920493  75.7553151 133.7021159 124.9705449
  73.3721882 140.5119999 121.2646343  73.6481726 140.3976594 122.1740217
  72.5026380 140.1137484 121.2258516  73.2762313 126.5356765 128.3051092
  72.3625393 126.7660992 128.4733299  73.7055415 126.6195209 129.1565125
  70.0075946 144.7606350 124.9079156  70.1898340 143.9428006 125.3706909
  70.8308932 144.9774042 124.4704046  70.3418111 143.6874535 122.1694205
  70.8705878 143.1766990 121.5564367  70.6046331 143.3717065 123.0339738
  60.8435204 141.7038404 129.9129539  61.4288641 140.9582092 130.0457443
  60.6460042 142.0142361 130.7966202  63.6973859 144.7389652 124.9291981
  63.0284234 145.2235779 124.4456021  63.5586729 144.9858872 125.8435359
  55.4352859 134.2744005 128.6333982  55.4736958 133.7407595 129.4271100
  54.9293151 133.7479210 128.0144959  62.8143621 129.1208545 132.1296524
  62.8784947 129.9823376 131.7173922  62.7510741 128.5082547 131.3968882
  62.2895893 131.1931678 135.7769558  62.9167932 130.8108755 136.3907083
  61.4323812 130.9745880 136.1425251  59.0661436 133.0008107 121.7087913
  59.3614877 132.0918785 121.6554967  58.1649472 132.9795846 121.3868915
  62.5955683 131.0764103 127.6915462  61.8742269 131.6900071 127.5522935
  63.3848939 131.6121868 127.6132108  65.3981997 128.4118530 133.9656113
  65.9216398 128.6580826 134.7282423  65.1794330 129.2438565 133.5459251
  60.7949278 130.6822204 121.8327238  60.4661984 129.8019583 121.6502344
  61.1488648 130.6269873 122.7203627  70.0428857 142.3177107 126.3422224
  69.8953819 141.3893815 126.5229794  70.8682350 142.3397198 125.8579299
  63.9091101 130.9695174 122.2002716  64.2487173 131.4981095 121.4781324
  64.3563221 131.3075580 122.9761282  66.6034542 129.3532225 131.6505784
  66.2631362 128.5540038 132.0526464  65.8973548 129.6533936 131.0782617
  67.2551014 126.4381537 130.1033107  68.0777083 125.9642016 129.9811997
  67.4989077 127.2172021 130.6031793  65.8959248 129.4669796 120.3996009
  66.6167611 129.8451049 119.8959726  65.2724552 130.1858673 120.5030987
  70.0390371 130.1714945 121.3354341  70.2553985 131.0539583 121.0343169
  69.5584438 129.7801158 120.6059983  64.7789592 133.1300658 127.9125086
  64.6334173 133.4440961 128.8049367  64.3014796 133.7485558 127.3595984
  66.6385975 130.1203206 127.9605975  66.6247544 129.2244299 127.6238273
  67.3558403 130.1273870 128.5944261  68.4912106 130.5540546 130.0059103
  68.2329884 131.4757617 130.0043433  67.9597146 130.1570981 130.6959567
  73.4358295 143.6591333 122.7849188  73.6095172 143.0937756 122.0323040
  73.9287186 144.4592228 122.6028678  59.2535254 135.6706002 130.8512747
  58.7088723 136.4465810 130.9833021  60.1314604 136.0176807 130.6931868
  66.0422871 129.0017586 123.2293545  66.1638782 128.0734232 123.4284433
  65.7524913 129.0156272 122.3171861  68.9114062 126.6872497 126.3660265
  68.9335758 126.7511830 125.4112245  69.3282121 125.8477005 126.5600771
  79.2897686 136.4227756 124.4039488  79.7328832 135.6735081 124.0058611
  78.4124196 136.4137893 124.0213220  74.4233467 142.9758098 119.8846086
  75.1184372 143.5964790 120.1033401  74.7656617 142.1253449 120.1598464
  60.0401276 134.7975899 133.7442904  59.2983012 134.9458534 134.3307534
  59.7194021 135.0584164 132.8809653  76.3224890 140.4257803 121.4133417
  76.8476214 140.7645076 120.6882737  76.2347243 139.4904819 121.2296552
  60.4857890 142.6841327 125.7753298  61.3115910 142.3845099 125.3951942
  60.1351942 141.9148950 126.2243087  65.4539423 142.0367796 127.8450972
  64.8319432 141.3738501 127.5453200  66.1244290 142.0628928 127.1624620
  58.6866495 140.6027654 126.7342232  57.8498403 140.1749828 126.5526233
  58.6590140 140.7960097 127.6713023  65.0152930 140.5871719 121.3209432
  65.1641050 141.2707183 120.6676105  65.8219374 140.5676809 121.8358888
  62.7705563 136.6136897 122.3270501  62.5251605 135.7099227 122.5250711
  62.9401478 136.6154047 121.3849979  70.4602273 127.4860573 131.7095257
  70.9784217 128.2221600 131.3841745  70.1057406 127.7924566 132.5442016
  62.0401211 132.3465254 119.8256663  61.3470456 132.4209609 119.1696699
  61.7952962 131.5825598 120.3478180  70.7114867 123.9060856 127.2296154
  70.9916621 123.2384045 127.8556580  71.4965474 124.0989951 126.7170817
  68.5148336 143.0819849 118.7921180  67.9422303 143.7010037 118.3391652
  69.0881129 143.6319211 119.3261102  72.6038105 129.4134073 131.1627130
  72.0088037 129.6939085 130.4673618  72.3187802 129.9027974 131.9343871
  71.7345595 143.3657000 119.9229762  72.6676269 143.3002561 120.1262638
  71.6468808 144.2013266 119.4644295  74.3633612 142.6822870 116.8833710
  74.2847244 142.3482734 117.7769468  75.1843279 143.1744638 116.8825182
  68.8995134 134.4180662 116.1337232  69.8454239 134.2886870 116.2025650
  68.5209379 133.6795324 116.6106660  74.8717019 126.0836668 126.0964124
  74.6741840 125.7751756 126.9807456  75.4816724 126.8098307 126.2262054
  67.0838051 132.3430639 116.0692118  66.1769507 132.0463751 116.1454831
  67.3614032 132.0460457 115.2026404  58.0015992 133.6637002 126.5191164
  57.6818776 132.8102310 126.2265538  57.4549420 133.8785580 127.2749131
  61.7795899 136.3799443 130.2360670  61.9981909 137.3116551 130.2548704
  62.1921673 136.0207417 131.0215474  68.7000117 126.8867528 122.2236359
  67.8900845 126.5414613 122.5991605  69.3884534 126.5775072 122.8123970
  70.6290665 125.9645575 123.8460655  71.1821704 126.3841029 124.5050679
  70.8660752 125.0381323 123.8883611  65.8536836 129.2017574 116.2104097
  66.7156000 129.5272472 116.4699914  66.0387180 128.4149070 115.6977163
  57.8704252 137.2839913 128.4884286  57.1767723 136.8693866 127.9754240
  58.6177243 137.3260450 127.8917704  74.0069472 128.0746100 123.3539320
  73.4268141 128.7330904 122.9717372  73.7405405 127.2523445 122.9426737
  72.4573039 127.4751158 125.5560640  72.9572817 127.5867692 124.7474959
  73.1008647 127.1712211 126.1961449  59.7840994 137.2158167 126.3650300
  59.7611682 137.3145855 125.4132184  60.0941631 138.0623318 126.6867467
  62.4428372 139.2734322 130.4796915  63.3971626 139.2418265 130.4126846
  62.2440896 138.8124946 131.2947141  72.7894350 130.2346191 122.4095668
  71.9020205 130.5195841 122.1915863  73.2048339 130.0739954 121.5622945
  76.1408887 130.2592712 126.1250007  76.9169277 130.7489164 126.3974624
  75.4157021 130.6850766 126.5821877  78.5781445 130.9720331 127.1823948
  79.1725936 130.7316067 126.4717256  78.6508029 130.2527461 127.8097484
  60.7978601 144.8153942 127.4967113  60.6633069 144.0554343 126.9305111
  60.3810663 145.5394842 127.0295902  71.9337564 139.9990865 116.5043688
  72.6373414 140.2040868 117.1201344  71.2100213 140.5667627 116.7692772
  72.7635374 135.7500727 122.6245958  72.7070576 136.2069278 121.7853591
  73.3163717 134.9891411 122.4468801  76.5740180 131.5390458 123.4496078
  76.3177114 131.1387094 124.2804285  75.9493048 132.2534252 123.3246217
  80.8852518 134.2786532 125.9567369  80.3252076 134.3479721 126.7298931
  80.2796021 134.1027516 125.2366865  73.8424261 140.4373395 118.5542148
  74.6769865 140.0054593 118.3719623  73.6808604 140.2655408 119.4819043
  73.4970153 136.9405508 119.9198487  73.4418957 136.7749779 118.9786931
  72.8716209 137.6481541 120.0760677  58.2862668 132.1773572 133.7459910
  58.9321532 131.6672526 134.2347135  58.0779820 132.9142254 134.3203335
  66.8066279 126.4413617 119.4983806  66.7944949 127.3855457 119.6552077
  67.6989701 126.2583762 119.2043267  70.6218398 123.0356393 123.7529743
  69.8550794 122.4814880 123.8986425  71.0329103 123.1078262 124.6143894
  76.9806522 149.6758721 117.9175790  77.2332043 149.1540242 117.1559253
  76.0431081 149.5124867 118.0202473  78.6839839 146.0686874 118.8208202
  78.8514241 146.9367110 119.1878673  78.4937008 146.2314156 117.8969492
  75.3038117 146.8910942 119.0677101  74.4675429 147.2285628 119.3886375
  75.1642886 146.7559922 118.1304238  77.2791197 141.7347730 123.7756285
  76.6255610 141.4196747 123.1512900  77.2371671 141.1123470 124.5016108
  78.3902402 152.0167025 115.6909577  77.4829464 151.7856278 115.8900726
  78.8873434 151.2204644 115.8783558  75.1776497 146.7358169 116.2675007
  74.3005963 146.6146970 115.9037254  75.6534250 145.9444248 116.0153896
  69.9055191 148.3300024 121.7087913  70.2008632 147.4210703 121.6554967
  69.0043226 148.3087764 121.3868915  71.6343032 146.0114122 121.8327238
  71.3055738 145.1311501 121.6502344  71.9882403 145.9561791 122.7203627
  76.7353003 144.7961714 120.3996009  77.4561365 145.1742966 119.8959726
  76.1118307 145.5150590 120.5030987  72.8794965 147.6757172 119.8256663
  72.1864210 147.7501527 119.1696699  72.6346717 146.9117516 120.3478180
  79.7388889 149.7472580 116.1337232  80.6847993 149.6178788 116.2025650
  79.3603134 149.0087242 116.6106660  77.9231806 147.6722556 116.0692118
  77.0163261 147.3755669 116.1454831  78.2007787 147.3752374 115.2026404
  79.5393871 142.2159446 122.2236359  78.7294600 141.8706531 122.5991605
  80.2278288 141.9066990 122.8123970  76.6930590 144.5309491 116.2104097
  77.5549754 144.8564390 116.4699914  76.8780935 143.7440987 115.6977163
  77.6460033 141.7705535 119.4983806  77.6338703 142.7147374 119.6552077
  78.5383455 141.5875680 119.2043267   4.8428337  26.1295617 106.6115512
   4.1916317  26.7149697 106.2249526   5.6372700  26.6601812 106.6710549
  11.1095061  22.6220553 107.8720349  10.3324504  22.2831712 107.4275511
  11.7886542  22.6273176 107.1975314   2.5146122  21.7185724 102.4154883
   1.6073184  21.4874977 102.6146032   3.0117154  20.9223343 102.6028865
   5.4214201  30.4283231 105.3351570   4.7475900  30.7314928 105.9436527
   5.8080023  31.2312311 104.9857027   3.3910443  23.3607062 104.2766952
   2.9529873  22.6442921 103.8172590   4.1320884  23.5883177 103.7152044
   3.6205416  30.5962903 107.5498649   3.7957172  30.1250946 108.3644272
   2.9338204  31.2228669 107.7779910   7.5121671  22.2191444 103.8699010
   6.8950841  21.4938272 103.7732062   7.0438159  22.9800804 103.5266084
   8.3359356  25.5430616 107.9891650   8.6119200  25.4287210 108.8985524
   7.4663855  25.1448101 107.9503823   5.3055585  28.7185152 108.8939512
   5.8343352  28.2077606 108.2809674   5.5683805  28.4027682 109.7585045
   8.3995769  28.6901950 109.5094495   8.5732647  28.1248372 108.7568347
   8.8924660  29.4902845 109.3273985   9.3870941  28.0068714 106.6091393
  10.0821846  28.6275407 106.8278708   9.7294092  27.1564066 106.8843771
  11.2862365  25.4568420 108.1378724  11.8113689  25.7955693 107.4128044
  11.1984717  24.5215435 107.9541858   3.4785810  28.1130466 105.5166486
   2.9059777  28.7320653 105.0636958   4.0518604  28.6629828 106.0506408
   6.6983070  28.3967616 106.6475069   7.6313743  28.3313178 106.8507944
   6.6106283  29.2323883 106.1889601   9.3271086  27.7133486 103.6079016
   9.2484718  27.3793350 104.5014774  10.1480753  28.2055254 103.6070489
   6.8975038  25.0301482 103.2288995   7.6010888  25.2351484 103.8446650
   6.1737687  25.5978244 103.4938078   8.8061736  25.4684011 105.2787455
   9.6407340  25.0365210 105.0964929   8.6446078  25.2966025 106.2064349
   8.4607628  21.9716124 106.6443794   8.4056432  21.8060396 105.7032238
   7.8353683  22.6792157 106.8005984  17.4346011  35.9853662 115.3742631
  18.0724421  35.8660410 114.6705972  17.3166854  36.9334506 115.4330584
  14.2435717  35.9381090 115.3104156  13.9054228  35.8222155 114.4224691
  15.1125485  35.5372255 115.2905162  10.1022533  37.7916567 111.3001047
   9.5387398  37.7006504 110.5317335   9.9874928  36.9716471 111.7803540
   7.6486965  39.2867758 114.1385268   8.4408256  38.9458583 113.7231567
   7.8883615  39.3962733 115.0587421  15.6822091  41.4587534 106.6115512
  15.0310071  42.0441615 106.2249526  16.4766454  41.9893729 106.6710549
   9.6077719  38.5476672 107.0102646  10.3808595  38.0005659 106.8715522
   9.9603117  39.4120921 107.2217108  12.3718968  37.2529902 116.8070905
  12.9682540  37.0285925 116.0927868  12.4293939  36.5114648 117.4096353
  11.9443996  34.7069338 104.6421096  12.1969517  34.1850859 103.8804559
  11.0068555  34.5435483 104.7447780  16.9887279  33.7105116 112.4495839
  17.7750368  33.2924539 112.0986256  17.2525983  34.6151208 112.6177488
  17.1597356  39.1477966 107.1484496  16.5243189  39.2212593 107.8605401
  16.8294763  39.7371565 106.4703576  22.3895706  33.6480349 113.3528818
  23.1220878  33.0779566 113.5866647  21.6335062  33.2601950 113.7935324
  11.6640285  36.6097444 106.8445471  11.5476543  35.9342347 107.5126556
  11.7742545  36.1229818 106.0277624  14.0071826  36.0707591 110.5492160
  13.6430033  35.5438212 111.2605082  14.8638942  35.6806060 110.3758646
  13.6477313  31.0997490 105.5453509  13.8151715  31.9677727 105.9123980
  13.4574482  31.2624772 104.6214798  16.4052646  39.5614469 117.2119339
  16.1053369  40.4639508 117.1035147  16.0603706  39.2946653 118.0640492
   9.8565128  36.0128266 113.2456044   8.9315624  35.8804480 113.4533736
  10.1049541  36.7922485 113.7425986  19.8049790  32.0797010 114.8916777
  18.8966667  32.0112418 114.5975538  19.7537386  32.5568954 115.7198602
  13.6266534  33.5555148 106.5300176  13.5066159  34.0012199 107.3685656
  12.9319122  33.9040466 105.9713714   7.2173939  35.6561540 114.0799833
   7.3466320  35.9096019 114.9939245   6.5371390  36.2489248 113.7604488
  11.3873426  46.3258790 110.1790307  11.3097456  47.2766615 110.2578788
  10.7835070  45.9804662 110.8365233  19.3251600  34.0276621 107.3580510
  20.2369456  34.2604008 107.1828207  18.8161247  34.6113665 106.7955588
  17.9321182  39.0102440 114.7494091  17.3030045  39.1748154 114.0470159
  17.5446844  39.4244049 115.5205055  21.8110414  39.9456877 112.1038455
  21.1261452  40.3255779 111.5535488  21.8954264  40.5552204 112.8370403
  19.0661346  37.5916836 118.7033799  19.2778241  38.2348596 118.0268180
  19.0191094  36.7579153 118.2355729  13.4849144  38.7476848 112.0144176
  13.9487490  39.0264551 111.2248799  13.2205942  37.8460292 111.8317267
  10.3773225  38.2948329 114.9523940  10.9474582  38.7235598 114.3141424
  10.9681337  38.0130914 115.6508125  12.4218030  34.8700000 108.8233742
  13.1242074  35.3221044 109.2907668  12.0898659  34.2283819 109.4513635
  20.1807174  40.4688792 116.8756156  21.0024618  40.0668979 116.5938838
  20.1769577  40.3657026 117.8272272   8.1158110  33.4928132 111.0834352
   7.3189273  33.6046826 111.6017847   7.8883702  33.8314784 110.2175242
  13.9463777  40.0172835 119.0316866  14.0108210  40.4793242 119.8675038
  13.2374701  39.3870200 119.1599176  28.2713167  36.8127540 113.2241127
  27.5176875  36.2434938 113.0685132  28.4060708  36.7790205 114.1711762
  13.6611795  41.6840943 108.8995847  13.5257470  42.5292478 109.3280695
  14.2021607  41.8860220 108.1361781   7.1141192  39.2016381 109.4723772
   7.6265713  39.9959631 109.6229337   7.7663905  38.5042671 109.4057373
   8.9236077  42.3182137 111.5546525   9.1002705  43.2400102 111.3667509
   9.7192910  42.0040556 111.9840905  10.0467392  43.8360311 117.5556867
  10.5974818  43.7077374 116.7833861   9.2078868  44.1355200 117.2051760
  17.3861509  42.5867309 121.0577590  17.3679985  43.4076190 120.5657859
  18.3081429  42.4621384 121.2827731   5.0790109  37.5305035 110.2483342
   5.9165331  37.9402043 110.0317050   5.2568377  36.5904477 110.2183536
  16.9754541  35.1980116 105.9367175  16.4601165  35.9684720 106.1755563
  16.7031850  34.5245252 106.5600237  14.5601652  30.0429816 110.9952414
  13.7043249  29.6536667 110.8158052  14.9728604  30.1221777 110.1352199
  21.9488815  37.9512470 107.8720349  21.1718258  37.6123630 107.4275511
  22.6280296  37.9565093 107.1975314  16.7640844  33.0707208 107.7626956
  16.4590980  33.3853357 108.6137100  17.7171286  33.1488628 107.8054289
  15.2087276  39.2297431 109.4119910  14.6808638  38.4950191 109.0993148
  14.7074779  40.0072107 109.1659879  20.1880122  37.4246452 114.5286957
  19.5303797  38.1145713 114.6167085  20.9920521  37.8142883 114.8720943
   9.9406004  29.8917097 111.7726522  10.5149756  29.6692279 111.0399715
  10.5276986  29.9605792 112.5255123  18.9985581  35.7790824 112.5790899
  19.5117463  36.4120816 113.0812608  19.6486805  35.1792020 112.2134259
  10.2675591  31.9221558 105.7922407   9.4312903  32.2596245 106.1131682
  10.1280361  31.7870538 104.8549544  12.2428672  26.7658346 110.5001591
  11.5893084  26.4507363 109.8758206  12.2009146  26.1434087 111.2261414
  13.3539876  37.0477641 102.4154883  12.4466938  36.8166895 102.6146032
  13.8510908  36.2515261 102.6028865  16.2607955  45.7575148 105.3351570
  15.5869654  46.0606845 105.9436527  16.6473777  46.5604229 104.9857027
  15.4766412  33.2540280 114.8249239  14.5588973  33.4755227 114.6670927
  15.8926555  33.3286590 113.9660946  16.2601460  34.6531695 109.9551919
  17.0073279  35.1653093 109.6459041  16.5293049  34.3315748 110.8156313
  14.5328110  37.1490236 106.9378874  13.6239329  36.8649269 107.0351343
  14.5623194  37.5689315 106.0782180  19.7647377  40.7596826 110.7070041
  19.3109704  39.9187736 110.7635232  19.1341344  41.3958224 111.0444821
  18.7080297  31.6888812 111.9370709  17.9703054  31.1766198 112.2680951
  18.9607070  31.2489193 111.1253985  18.2080316  42.5973322 111.6419859
  18.5003291  43.1578379 110.9232225  18.7178937  42.8901883 112.3973018
  18.8091924  24.4665064 112.5312478  19.1150801  23.6062427 112.2438393
  19.5344529  25.0582684 112.3311472   5.1016280  34.8695750 110.9194076
   4.9040680  34.2765111 110.1945142   4.5462944  34.5647960 111.6370015
  13.0813004  34.7618857 113.0388669  13.1361614  33.8092693 112.9631146
  12.2704206  34.9178296 113.5229967  14.2304198  38.6898980 104.2766952
  13.7923628  37.9734839 103.8172590  14.9714638  38.9175095 103.7152044
  11.0205364  33.3795916 110.7979048  10.2073229  33.6790087 111.2044240
  11.5164358  32.9851605 111.5153530  13.1713942  43.3753673 112.7313313
  13.1290120  43.6014520 111.8021845  14.0876641  43.1417048 112.8799114
  22.3477312  36.9656177 110.3343271  22.2095211  37.1557773 109.4064460
  21.9913531  37.7275560 110.7911322  22.3746692  39.0332704 115.3454542
  22.8083199  38.9407993 116.1937596  23.0878273  39.0090204 114.7074558
  11.2879742  40.2516702 112.5275275  12.0820341  39.7567023 112.3257850
  10.5771435  39.7234566 112.1642981  16.1074587  42.6334798 116.8787643
  16.1611609  43.2025734 117.6465359  15.2389368  42.8036683 116.5141680
   7.5962506  34.3959784 108.6035028   6.6660094  34.3344240 108.8204990
   7.6919978  33.8735737 107.8071669   7.5148055  30.9214597 111.1913270
   7.7754872  31.8359930 111.0822430   8.3365227  30.4539040 111.3409882
  23.2362242  39.0756405 117.8787428  23.4298132  39.9802215 118.1246703
  23.1362860  38.6163824 118.7126013  15.0662687  36.7995060 118.4374575
  15.9954747  36.9506220 118.2643542  14.6453717  36.8879081 117.5823221
  13.8651018  40.8245724 116.2073112  13.7262104  40.4564509 117.0799050
  13.0765615  41.3393364 116.0357070  14.4599170  45.9254821 107.5498649
  14.6350926  45.4542864 108.3644272  13.7731958  46.5520587 107.7779910
  15.4156234  40.2027327 113.5961950  15.0806066  40.1628097 114.4919600
  14.9160179  39.5372043 113.1232360  18.3515425  37.5483361 103.8699010
  17.7344596  36.8230190 103.7732062  17.8831914  38.3092722 103.5266084
  20.0069557  42.2582270 121.5304790  19.9482103  41.5741490 120.8635373
  20.4089075  43.0001260 121.0785416   9.0260256  49.0744184 114.3238509
   9.2656854  49.7062708 115.0017528   8.1829452  48.7232224 114.6103868
  10.1413971  31.7668786 102.9920314   9.2643437  31.6457587 102.6282561
  10.6171724  30.9754864 102.7399203  20.0086964  40.2221854 119.7618770
  19.1213743  39.8847776 119.8845169  20.5785515  39.4904885 119.9987535
  13.5388118  44.8823306 116.7280013  13.4658289  45.6878278 117.2399318
  13.0965511  45.0815272 115.9028034  13.3277897  44.1195076 110.2382835
  12.5445419  44.6616756 110.3321059  14.0270642  44.6369056 110.6377076
  16.6374547  29.9289706 112.8817040  17.1343247  29.1759668 112.5618110
  15.8661529  29.9654022 112.3160249  24.4904305  35.6330071 114.5235331
  24.4794181  36.5154787 114.1529265  23.6221684  35.2801622 114.3289868
  15.9986801  44.7810140 118.8838172  16.7114773  45.4157605 118.8114073
  15.5076830  44.8774006 118.0678173  17.7204328  38.6861393 110.4555463
  16.7860607  38.8062855 110.2860168  17.8980996  37.7833860 110.1915473
  13.2209516  32.0707089 112.6088725  12.8507304  31.5178129 113.2969630
  13.7168608  31.4665222 112.0563725  21.1076879  34.5278712 110.9905497
  21.5737332  35.3606704 110.9165800  21.5584380  34.0623694 111.6950756
  11.0498715  42.5304584 119.7043742  11.7508174  43.1641067 119.8573137
  10.5793830  42.8719315 118.9439382  19.1753110  40.8722533 107.9891650
  19.4512954  40.7579128 108.8985524  18.3057609  40.4740018 107.9503823
  18.8500001  35.0849191 117.5296293  18.1971451  35.3325098 116.8748746
  19.2280380  34.2713329 117.1958770  15.8107174  45.1208884 111.6324463
  15.9929569  44.3030540 112.0952215  16.6340160  45.3376576 111.1949353
  16.1449340  44.0477069 108.8939512  16.6737106  43.5369524 108.2809674
  16.4077560  43.7319600 109.7585045   6.6466433  42.0640939 116.6374845
   7.2319869  41.3184627 116.7702749   6.4491271  42.3744895 117.5211509
   9.5005088  45.0992186 111.6537288   8.8315463  45.5838314 111.1701328
   9.3617958  45.3461406 112.5680666  13.6410356  47.1335930 118.2519946
  14.1928664  47.2967551 119.0169031  13.9816550  47.7240367 117.5799971
   4.8692665  33.3610641 108.4333220   5.1646106  32.4521319 108.3800273
   3.9680701  33.3398380 108.1114222  16.7778744  45.0817905 115.2383628
  16.6529883  44.2807645 114.7294574  17.4357835  45.5764098 114.7497598
  18.8413652  42.8826925 116.8663178  17.8943988  42.7632276 116.7941505
  19.1896425  41.9949423 116.9489440   6.5980507  31.0424739 108.5572545
   6.2693213  30.1622118 108.3747651   6.9519877  30.9872407 109.4448934
  15.8460085  42.6779641 113.0667530  15.6985048  41.7496349 113.2475100
  16.6713579  42.6999732 112.5824606   9.7122330  31.3297708 108.9248023
  10.0518402  31.8583630 108.2026631  10.1594450  31.6678115 109.7006589
  19.4494207  43.5008200 114.1532403  20.3740755  43.2951061 114.0156854
  19.2809511  43.2524601 115.0621745  11.6990477  29.8272330 107.1241315
  12.4198839  30.2053583 106.6205032  11.0755781  30.5461207 107.2276293
  15.8421600  30.5317479 108.0599648  16.0585214  31.4142117 107.7588476
  15.3615667  30.1403692 107.3305290  19.2389523  44.0193868 109.5094495
  19.4126401  43.4540290 108.7568347  19.7318415  44.8194762 109.3273985
  11.8454100  29.3620121 109.9538852  11.9670011  28.4336767 110.1529739
  11.5556142  29.3758806 109.0417167  25.0928915  36.7830291 111.1284794
  25.5360061  36.0337616 110.7303918  24.2155425  36.7740427 110.7458526
  20.2264696  43.3360632 106.6091393  20.9215601  43.9567325 106.8278708
  20.5687846  42.4855983 106.8843771  22.1256119  40.7860337 108.1378724
  22.6507443  41.1247610 107.4128044  22.0378472  39.8507353 107.9541858
  13.7876168  44.6994411 120.2668600  14.0963294  44.4543558 121.1391300
  14.5851650  44.9041050 119.7787471  13.8096780  46.8532321 112.4973977
  13.3701770  46.3608699 113.1906834  14.5604897  46.3105288 112.2566052
   6.2889119  43.0443862 112.4998605   7.1147139  42.7447634 112.1197248
   5.9383171  42.2751484 112.9488394  11.2570652  42.3970330 114.5696279
  10.6350661  41.7341035 114.2698506  11.9275519  42.4231462 113.8869926
   4.4897724  40.9630188 113.4587539   3.6529632  40.5352362 113.2771540
   4.4621369  41.1562631 114.3958330  21.8150025  41.4193241 123.4429922
  21.0245569  41.4017380 122.9034421  21.5783380  41.9581535 124.1978958
  21.9347900  38.2685708 120.7562650  21.9845905  38.1035715 121.6978173
  21.8261824  37.4012967 120.3660531  10.8184159  40.9474253 108.0454739
  10.9672279  41.6309718 107.3921412  11.6250602  40.9279343 108.5604195
  23.4366097  40.6882649 121.0004672  23.1450905  41.0512630 121.8368133
  22.8238228  39.9749657 120.8218004  24.6361779  38.2535529 113.5207242
  25.4708671  38.6925333 113.6844802  24.7720908  37.7774182 112.7015488
  21.6853285  35.8115264 119.4684730  22.1607407  36.0042910 118.6603581
  20.7618851  35.8674449 119.2228113   8.5736792  36.9739431 109.0515808
   8.3282834  36.0701761 109.2496018   8.7432706  36.9756581 108.1095286
   7.8432439  32.7067788 106.5501969   7.1501684  32.7812143 105.8942005
   7.5984191  31.9428132 107.0723486  14.3179564  43.4422384 105.5166486
  13.7453532  44.0612571 105.0636958  14.8912358  43.9921745 106.0506408
  17.5376824  43.7259534 106.6475069  18.4707497  43.6605095 106.8507944
  17.4500037  44.5615801 106.1889601  20.1664841  43.0425404 103.6079016
  20.0878472  42.7085268 104.5014774  20.9874508  43.5347172 103.6070489
  22.8643032  35.9087143 116.8155335  22.8319352  34.9703144 117.0015019
  23.4743656  35.9871180 116.0821160  14.7026363  34.7783196 102.8582539
  15.6485468  34.6489405 102.9270957  14.3240608  34.0397858 103.3351967
  23.0137521  32.6998187 116.8613618  22.4976569  31.9156643 116.6743547
  23.8977469  32.3716903 117.0260138  20.6748247  26.4439202 112.8209431
  20.4773069  26.1354291 113.7052763  21.2847953  27.1700841 112.9507361
  28.6819582  36.9703150 115.9561372  29.4122970  36.7088438 116.5169075
  28.0726527  36.2331872 115.9963440  26.7634879  35.1111013 116.5535823
  26.0368043  34.9766978 115.9452315  26.3482166  35.4187841 117.3592541
  12.8869280  32.7033173 102.7937424  11.9800735  32.4066286 102.8700138
  13.1645261  32.4062991 101.9271710  14.5031346  27.2470063 108.9481665
  13.6932074  26.9017147 109.3236912  15.1915763  26.9377606 109.5369277
  16.4321894  26.3248109 110.5705962  16.9852933  26.7443563 111.2295985
  16.6691980  25.3983857 110.6128918  11.6568065  29.5620108 102.9349403
  12.5187229  29.8875006 103.1945221  11.8418409  28.7751604 102.4222469
  19.8100701  28.4348634 110.0784626  19.2299370  29.0933439 109.6962679
  19.5436634  27.6125979 109.6672044  18.2604268  27.8353692 112.2805947
  18.7604046  27.9470227 111.4720266  18.9039875  27.5314745 112.9206755
   5.5872223  37.5760701 113.0895607   5.5642911  37.6748389 112.1377490
   5.8972859  38.4225852 113.4112773  18.5925579  30.5948725 109.1340975
  17.7051434  30.8798375 108.9161169  19.0079568  30.4342488 108.2868252
  21.9440115  30.6195246 112.8495314  22.7200505  31.1091698 113.1219931
  21.2188249  31.0453300 113.3067183  24.3812674  31.3322865 113.9069255
  24.9757165  31.0918601 113.1962563  24.4539258  30.6129996 114.5342791
   6.6009830  45.1756476 114.2212419   6.4664298  44.4156877 113.6550417
   6.1841892  45.8997376 113.7541208  17.7368793  40.3593400 103.2288995
  18.4404643  40.5643402 103.8446650  17.0131441  40.9270161 103.4938078
  18.5666603  36.1103261 109.3491265  18.5101804  36.5671812 108.5098897
  19.1194945  35.3493945 109.1714108  22.3771409  31.8992993 110.1741384
  22.1208343  31.4989628 111.0049592  21.7524277  32.6136787 110.0491523
  26.6883747  34.6389066 112.6812676  26.1283305  34.7082255 113.4544238
  26.0827250  34.4630051 111.9612172   9.7578956  46.0725793 114.4330862
   9.6411340  47.0171225 114.3309552   8.9371402  45.7699355 114.8216661
  19.6455490  40.7975929 105.2787455  20.4801094  40.3657127 105.0964929
  19.4839833  40.6257942 106.2064349  19.3001382  37.3008042 106.6443794
  19.2450186  37.1352313 105.7032238  18.6747438  38.0084075 106.8005984
  12.6097508  26.8016151 106.2229112  12.5976178  27.7457991 106.3797383
  13.5020930  26.6186296 105.9288574  10.7833470  46.7254055 117.6486790
  11.6860716  46.7577665 117.9653285  10.5570840  45.7954506 117.6633126
  12.5387072  45.4785041 114.3096869  11.5882703  45.4786903 114.1961241
  12.8419558  44.7317776 113.7932904  16.4249627  23.3958928 110.4775049
  15.6582023  22.8417414 110.6231732  16.8360332  23.4680796 111.3389201
  28.2739765  51.3145580 115.3742631  28.9118175  51.1952327 114.6705972
  28.1560608  52.2626424 115.4330584  25.0829471  51.2673008 115.3104156
  24.7447983  51.1514073 114.4224691  25.9519240  50.8664173 115.2905162
  20.9416287  53.1208484 111.3001047  20.3781152  53.0298421 110.5317335
  20.8268682  52.3008389 111.7803540  25.5649254  52.4207860 121.2690362
  25.5537895  52.0260658 120.3970865  25.7269894  51.6873932 121.8624133
  18.4880719  54.6159676 114.1385268  19.2802011  54.2750501 113.7231567
  18.7277369  54.7254651 115.0587421  26.5215846  56.7879452 106.6115512
  25.8703826  57.3733532 106.2249526  27.3160209  57.3185647 106.6710549
  20.4471473  53.8768589 107.0102646  21.2202349  53.3297576 106.8715522
  20.7996872  54.7412839 107.2217108  22.2856516  55.2044971 120.2169546
  21.9946382  56.1090602 120.1016212  22.9213500  55.2461499 120.9313615
  23.2112722  52.5821820 116.8070905  23.8076295  52.3577842 116.0927868
  23.2687694  51.8406565 117.4096353  22.7837751  50.0361255 104.6421096
  23.0363272  49.5142777 103.8804559  21.8462310  49.8727401 104.7447780
  27.8281034  49.0397034 112.4495839  28.6144123  48.6216457 112.0986256
  28.0919738  49.9443126 112.6177488  27.9991111  54.4769884 107.1484496
  27.3636944  54.5504511 107.8605401  27.6688517  55.0663483 106.4703576
  33.2289461  48.9772267 113.3528818  33.9614633  48.4071484 113.5866647
  32.4728816  48.5893867 113.7935324  22.5034040  51.9389361 106.8445471
  22.3870298  51.2634265 107.5126556  22.6136299  51.4521735 106.0277624
  24.8465580  51.3999508 110.5492160  24.4823788  50.8730129 111.2605082
  25.7032696  51.0097977 110.3758646  30.7514881  42.6893841 117.8123427
  30.4198206  43.5589252 117.5884642  30.1560495  42.3730125 118.4917457
  24.4871067  46.4289408 105.5453509  24.6545470  47.2969644 105.9123980
  24.2968237  46.5916690 104.6214798  27.2446401  54.8906387 117.2119339
  26.9447124  55.7931426 117.1035147  26.8997460  54.6238570 118.0640492
  20.6958882  51.3420184 113.2456044  19.7709379  51.2096398 113.4533736
  20.9443295  52.1214403 113.7425986  30.6443544  47.4088927 114.8916777
  29.7360422  47.3404336 114.5975538  30.5931140  47.8860872 115.7198602
  24.4660288  48.8847066 106.5300176  24.3459914  49.3304116 107.3685656
  23.7712877  49.2332383 105.9713714  18.0567693  50.9853457 114.0799833
  18.1860074  51.2387936 114.9939245  17.3765144  51.5781165 113.7604488
  22.2267180  61.6550707 110.1790307  22.1491210  62.6058532 110.2578788
  21.6228824  61.3096580 110.8365233  24.7184410  48.8278573 122.8351674
  23.9417744  49.3872493 122.8254539  25.3574973  49.3135356 123.3566544
  32.5105191  45.6105366 116.6694651  31.8679571  45.9037899 116.0234445
  32.0060119  45.4958286 117.4747847  30.1645355  49.3568539 107.3580510
  31.0763211  49.5895926 107.1828207  29.6555002  49.9405583 106.7955588
  22.9730783  51.6364026 122.3969641  23.7145467  52.1749070 122.1204465
  22.2667768  52.2630315 122.5541193  28.4486122  53.7793167 120.9941802
  28.8569478  53.3375577 120.2496435  27.7263384  53.2045794 121.2475995
  24.8017192  48.7165773 118.3675359  25.6478387  49.1405187 118.5110008
  24.7415830  48.0599398 119.0613922  28.7714937  54.3394357 114.7494091
  28.1423799  54.5040071 114.0470159  28.3840599  54.7535967 115.5205055
  32.6504169  55.2748795 112.1038455  31.9655207  55.6547696 111.5535488
  32.7348018  55.8844122 112.8370403  27.9516638  46.3770142 120.0256533
  27.7077569  47.1312202 119.4890809  28.2276568  46.7555489 120.8603780
  29.9055100  52.9208754 118.7033799  30.1171996  53.5640514 118.0268180
  29.8584849  52.0871071 118.2355729  27.5081329  45.5326575 115.6070371
  26.6465808  45.8307828 115.8987108  27.5343764  45.7496974 114.6751403
  24.3242899  54.0768765 112.0144176  24.7881244  54.3556468 111.2248799
  24.0599697  53.1752210 111.8317267  21.2166980  53.6240247 114.9523940
  21.7868337  54.0527515 114.3141424  21.8075092  53.3422832 115.6508125
  23.2611785  50.1991918 108.8233742  23.9635828  50.6512961 109.2907668
  22.9292413  49.5575737 109.4513635  21.7092146  48.7903674 123.1984951
  21.0790807  49.4719955 123.4320348  21.6028234  48.6786756 122.2538089
  17.0037119  48.4575470 114.1250875  16.2136173  48.7132999 113.6490986
  17.4948366  49.2723808 114.2302916  31.0200928  55.7980710 116.8756156
  31.8418372  55.3960897 116.5938838  31.0163331  55.6948944 117.8272272
  18.9551864  48.8220050 111.0834352  18.1583027  48.9338744 111.6017847
  18.7277456  49.1606702 110.2175242  24.7857532  55.3464753 119.0316866
  24.8501964  55.8085160 119.8675038  24.0768456  54.7162118 119.1599176
  15.2874822  48.7105961 116.5565866  15.5382860  49.5952971 116.8223442
  15.8234370  48.5310562 115.7840958  39.1106921  52.1419458 113.2241127
  38.3570630  51.5726856 113.0685132  39.2454463  52.1082122 114.1711762
  24.5005549  57.0132860 108.8995847  24.3651224  57.8584396 109.3280695
  25.0415362  57.2152138 108.1361781  17.9534947  54.5308298 109.4723772
  18.4659467  55.3251549 109.6229337  18.6057660  53.8334589 109.4057373
  19.7629831  57.6474055 111.5546525  19.9396460  58.5692019 111.3667509
  20.5586665  57.3332474 111.9840905  23.9040850  44.5082319 123.1530459
  24.6450563  45.1089472 123.0734921  24.1358773  43.7659957 122.5948501
  19.0482188  49.6938686 121.4308688  18.9335703  48.7923944 121.7315787
  18.1926706  49.9402383 121.0793505  26.1274026  57.6356427 123.0296189
  25.6837880  56.8492805 122.7117093  26.7891239  57.8235577 122.3640080
  20.8861147  59.1652228 117.5556867  21.4368572  59.0369292 116.7833861
  20.0472623  59.4647117 117.2051760  28.2255264  57.9159227 121.0577590
  28.2073739  58.7368108 120.5657859  29.1475184  57.7913302 121.2827731
  24.6828318  55.4303356 121.9001098  25.2156655  54.6691644 121.6700406
  24.1542399  55.1377008 122.6425253  27.8498013  40.5363422 117.4294740
  27.5062282  41.4265064 117.3533851  28.2176976  40.3465080 116.5664325
  15.9183864  52.8596953 110.2483342  16.7559086  53.2693961 110.0317050
  16.0962131  51.9196395 110.2183536  27.8148296  50.5272033 105.9367175
  27.2994919  51.2976638 106.1755563  27.5425604  49.8537169 106.5600237
  25.3995407  45.3721734 110.9952414  24.5437003  44.9828584 110.8158052
  25.8122358  45.4513695 110.1352199  26.9294553  42.9068077 115.3943973
  26.4259349  42.8698212 114.5811779  27.2225160  43.8160820 115.4540630
  23.1737439  42.9906807 114.4010155  24.0390436  42.7949616 114.0416045
  23.2414948  42.7617159 115.3279512  32.7882570  53.2804388 107.8720349
  32.0112013  52.9415547 107.4275511  33.4674051  53.2857011 107.1975314
  27.6034599  48.3999125 107.7626956  27.2984734  48.7145275 108.6137100
  28.5565041  48.4780545 107.8054289  26.0481031  54.5589349 109.4119910
  25.5202392  53.8242108 109.0993148  25.5468533  55.3364025 109.1659879
  31.0273877  52.7538369 114.5286957  30.3697551  53.4437631 114.6167085
  31.8314276  53.1434801 114.8720943  20.7799758  45.2209015 111.7726522
  21.3543510  44.9984196 111.0399715  21.3670741  45.2897709 112.5255123
  29.8379335  51.1082742 112.5790899  30.3511217  51.7412734 113.0812608
  30.4880559  50.5083937 112.2134259  21.1069345  47.2513476 105.7922407
  20.2706658  47.5888163 106.1131682  20.9674115  47.1162456 104.8549544
  23.0822426  42.0950264 110.5001591  22.4286838  41.7799281 109.8758206
  23.0402900  41.4726004 111.2261414  24.1933631  52.3769559 102.4154883
  23.2860693  52.1458812 102.6146032  24.6904663  51.5807178 102.6028865
  27.1001710  61.0867066 105.3351570  26.4263408  61.3898763 105.9436527
  27.4867532  61.8896146 104.9857027  26.3160166  48.5832197 114.8249239
  25.3982728  48.8047144 114.6670927  26.7320310  48.6578508 113.9660946
  27.0995214  49.9823613 109.9551919  27.8467033  50.4945010 109.6459041
  27.3686804  49.6607666 110.8156313  25.3721864  52.4782154 106.9378874
  24.4633084  52.1941187 107.0351343  25.4016948  52.8981232 106.0782180
  30.6041132  56.0888743 110.7070041  30.1503459  55.2479653 110.7635232
  29.9735098  56.7250142 111.0444821  29.5474051  47.0180729 111.9370709
  28.8096808  46.5058116 112.2680951  29.8000825  46.5781111 111.1253985
  29.0474071  57.9265240 111.6419859  29.3397045  58.4870297 110.9232225
  29.5572692  58.2193801 112.3973018  29.6485679  39.7956981 112.5312478
  29.9544555  38.9354345 112.2438393  30.3738283  40.3874602 112.3311472
  15.9410035  50.1987668 110.9194076  15.7434434  49.6057029 110.1945142
  15.3856699  49.8939878 111.6370015  23.9206758  50.0910774 113.0388669
  23.9755368  49.1384611 112.9631146  23.1097960  50.2470214 113.5229967
  25.0697952  54.0190897 104.2766952  24.6317382  53.3026756 103.8172590
  25.8108393  54.2467012 103.7152044  21.8599118  48.7087834 110.7979048
  21.0466984  49.0082005 111.2044240  22.3558112  48.3143523 111.5153530
  24.0107696  58.7045591 112.7313313  23.9683875  58.9306437 111.8021845
  24.9270395  58.4708966 112.8799114  27.4573330  49.1729659 119.6293942
  27.8122718  49.4001132 120.4888407  28.1045461  49.5048035 119.0071197
  33.1871067  52.2948095 110.3343271  33.0488965  52.4849691 109.4064460
  32.8307286  53.0567477 110.7911322  21.3513193  46.2806190 116.4140283
  21.9912572  46.1394949 115.7163246  20.5190724  45.9940703 116.0378885
  33.2140446  54.3624622 115.3454542  33.6476953  54.2699911 116.1937596
  33.9272027  54.3382122 114.7074558  22.1273497  55.5808620 112.5275275
  22.9214095  55.0858940 112.3257850  21.4165189  55.0526483 112.1642981
  26.9468341  57.9626716 116.8787643  27.0005364  58.5317652 117.6465359
  26.0783123  58.1328601 116.5141680  18.4356260  49.7251702 108.6035028
  17.5053848  49.6636157 108.8204990  18.5313732  49.2027655 107.8071669
  18.3541809  46.2506515 111.1913270  18.6148627  47.1651848 111.0822430
  19.1758982  45.7830957 111.3409882  19.8266735  47.6644272 118.3612094
  20.4989788  47.4561634 117.7124743  18.9996521  47.4666358 117.9217326
  34.0755996  54.4048322 117.8787428  34.2691886  55.3094133 118.1246703
  33.9756614  53.9455741 118.7126013  25.7292307  44.2906213 120.3777755
  25.0820222  44.9896162 120.2842231  26.4993322  44.7242357 120.7454003
  29.1371105  54.5555065 123.4528308  28.9856611  54.3265617 122.5358392
  29.1275784  55.5125666 123.4659653  25.9056441  52.1286978 118.4374575
  26.8348501  52.2798137 118.2643542  25.4847471  52.2170998 117.5823221
  24.7044773  56.1537642 116.2073112  24.5655859  55.7856426 117.0799050
  23.9159369  56.6685282 116.0357070  25.2992925  61.2546739 107.5498649
  25.4744681  60.7834782 108.3644272  24.6125713  61.8812505 107.7779910
  26.2549988  55.5319245 113.5961950  25.9199821  55.4920015 114.4919600
  25.7553934  54.8663961 113.1232360  20.2294232  50.9386875 119.1214531
  20.0914030  50.2067114 119.7226070  21.1399155  50.8495775 118.8398719
  29.1909180  52.8775279 103.8699010  28.5738350  52.1522107 103.7732062
  28.7225668  53.6384639 103.5266084  22.8576533  50.6506834 118.6098211
  23.5676151  50.0100026 118.5684829  22.8145841  50.9019729 119.5324392
  30.8463311  57.5874187 121.5304790  30.7875858  56.9033408 120.8635373
  31.2482830  58.3293177 121.0785416  21.5705467  47.6372052 120.4293850
  21.0342824  47.1862790 121.0815447  20.9822175  47.7717961 119.6864315
  19.8654010  64.4036101 114.3238509  20.1050608  65.0354625 115.0017528
  19.0223207  64.0524141 114.6103868  20.9807726  47.0960703 102.9920314
  20.1037192  46.9749504 102.6282561  21.4565479  46.3046782 102.7399203
  30.8480719  55.5513771 119.7618770  29.9607497  55.2139693 119.8845169
  31.4179270  54.8196803 119.9987535  12.5009866  51.8837863 113.0861821
  13.1880906  51.5699593 112.4982836  12.3457994  52.7879228 112.8129073
  17.3044588  46.7728060 117.5146845  17.2202777  46.1653729 116.7797255
  16.4827294  47.2637078 117.5156341  24.3781872  60.2115224 116.7280013
  24.3052044  61.0170195 117.2399318  23.9359265  60.4107190 115.9028034
  24.1671652  59.4486994 110.2382835  23.3839174  59.9908674 110.3321059
  24.8664397  59.9660973 110.6377076  27.4768302  45.2581623 112.8817040
  27.9737001  44.5051586 112.5618110  26.7055283  45.2945940 112.3160249
  35.3298059  50.9621989 114.5235331  35.3187935  51.8446704 114.1529265
  34.4615439  50.6093540 114.3289868  26.8380556  60.1102058 118.8838172
  27.5508528  60.7449523 118.8114073  26.3470584  60.2065924 118.0678173
  28.5598082  54.0153310 110.4555463  27.6254361  54.1354773 110.2860168
  28.7374751  53.1125777 110.1915473  24.0603271  47.3999006 112.6088725
  23.6901058  46.8470047 113.2969630  24.5562363  46.7957140 112.0563725
  31.9470634  49.8570630 110.9905497  32.4131086  50.6898621 110.9165800
  32.3978134  49.3915611 111.6950756  21.8892469  57.8596501 119.7043742
  22.5901929  58.4932984 119.8573137  21.4187584  58.2011233 118.9439382
  30.0146865  56.2014451 107.9891650  30.2906709  56.0871046 108.8985524
  29.1451364  55.8031936 107.9503823  29.9187297  42.2251217 115.0296399
  29.0050376  42.4555444 115.1978606  30.3480398  42.3089661 115.8810431
  29.6893755  50.4141109 117.5296293  29.0365205  50.6617016 116.8748746
  30.0674135  49.6005247 117.1958770  26.6500929  60.4500802 111.6324463
  26.8323323  59.6322458 112.0952215  27.4733915  60.6668494 111.1949353
  26.9843094  59.3768987 108.8939512  27.5130861  58.8661442 108.2809674
  27.2471314  59.0611517 109.7585045  25.7381328  51.1560920 124.0162330
  25.0621965  51.0555049 124.6864705  26.5608962  51.0000134 124.4798327
  17.4860187  57.3932856 116.6374845  18.0713624  56.6476544 116.7702749
  17.2885026  57.7036813 117.5211509  20.3398842  60.4284104 111.6537288
  19.6709218  60.9130231 111.1701328  20.2011712  60.6753324 112.5680666
  12.0777842  49.9638457 115.3579288  12.1161941  49.4302047 116.1516406
  11.5718135  49.4373662 114.7390265  24.4804111  62.4627847 118.2519946
  25.0322419  62.6259469 119.0169031  24.8210304  63.0532285 117.5799971
  19.4568604  44.8102997 118.8541831  19.5209931  45.6717828 118.4419228
  19.3935724  44.1976999 118.1214189  18.9320877  46.8826130 122.5014865
  19.5592916  46.5003207 123.1152389  18.0748796  46.6640332 122.8670557
  29.3314985  57.2889105 124.1068600  29.8754889  57.9019063 123.6123555
  28.7501830  57.8468683 124.6235613  15.7086419  48.6902559 108.4333220
  16.0039861  47.7813237 108.3800273  14.8074455  48.6690298 108.1114222
  27.6172498  60.4109823 115.2383628  27.4923638  59.6099563 114.7294574
  28.2751589  60.9056016 114.7497598  19.2380666  46.7658555 114.4160768
  18.5167252  47.3794523 114.2768242  20.0273922  47.3016320 114.3377414
  29.6807407  58.2118843 116.8663178  28.7337742  58.0924194 116.7941505
  30.0290180  57.3241341 116.9489440  22.0406980  44.1012982 120.6901420
  22.5641382  44.3475278 121.4527729  21.8219313  44.9333017 120.2704557
  17.4374261  46.3716656 108.5572545  17.1086967  45.4914035 108.3747651
  17.7913632  46.3164325 109.4448934  26.6853840  58.0071559 113.0667530
  26.5378802  57.0788266 113.2475100  27.5107333  58.0291650 112.5824606
  20.5516084  46.6589626 108.9248023  20.8912157  47.1875547 108.2026631
  20.9988205  46.9970032 109.7006589  30.2887962  58.8300118 114.1532403
  31.2134509  58.6242979 114.0156854  30.1203265  58.5816519 115.0621745
  23.2459525  45.0426677 118.3751091  22.9056345  44.2434490 118.7771770
  22.5398531  45.3428388 117.8027924  23.8975997  42.1275989 116.8278414
  24.7202066  41.6536467 116.7057304  24.1414060  42.9066473 117.3277100
  22.5384231  45.1564248 107.1241315  23.2592594  45.5345501 106.6205032
  21.9149535  45.8753125 107.2276293  26.6815354  45.8609397 108.0599648
  26.8978969  46.7434035 107.7588476  26.2009421  45.4695610 107.3305290
  21.4214576  48.8195110 114.6370392  21.2759156  49.1335413 115.5294674
  20.9439779  49.4380010 114.0841291  23.2810958  45.8097658 114.6851282
  23.2672527  44.9138751 114.3483580  23.9983387  45.8168322 115.3189568
  25.1337089  46.2434998 116.7304409  24.8754867  47.1652069 116.7288740
  24.6022130  45.8465433 117.4204873  30.0783278  59.3485785 109.5094495
  30.2520155  58.7832208 108.7568347  30.5712169  60.1486680 109.3273985
  15.8960238  51.3600454 117.5758053  15.3513706  52.1360262 117.7078328
  16.7739588  51.7071259 117.4177175  22.6847854  44.6912038 109.9538852
  22.8063766  43.7628684 110.1529739  22.3949897  44.7050724 109.0417167
  25.5539045  42.3766949 113.0905572  25.5760742  42.4406282 112.1357551
  25.9707104  41.5371457 113.2846078  35.9322669  52.1122208 111.1284794
  36.3753815  51.3629533 110.7303918  35.0549179  52.1032345 110.7458526
  31.0658450  58.6652550 106.6091393  31.7609355  59.2859242 106.8278708
  31.4081601  57.8147901 106.8843771  16.6826260  50.4870351 120.4688210
  15.9407996  50.6352986 121.0552841  16.3619004  50.7478616 119.6054960
  32.9649874  56.1152255 108.1378724  33.4901198  56.4539528 107.4128044
  32.8772226  55.1799270 107.9541858  24.6269922  60.0286329 120.2668600
  24.9357049  59.7835476 121.1391300  25.4245404  60.2332967 119.7787471
  24.6490534  62.1824238 112.4973977  24.2095525  61.6900617 113.1906834
  25.3998651  61.6397206 112.2566052  17.1282873  58.3735779 112.4998605
  17.9540893  58.0739551 112.1197248  16.7776925  57.6043402 112.9488394
  22.0964406  57.7262248 114.5696279  21.4744416  57.0632953 114.2698506
  22.7669273  57.7523379 113.8869926  15.3291478  56.2922106 113.4587539
  14.4923387  55.8644280 113.2771540  15.3015124  56.4854549 114.3958330
  22.1688934  46.2044036 124.1628785  22.2177089  47.0806158 123.7806554
  22.7111448  45.6621429 123.5900428  32.6543780  56.7485159 123.4429922
  31.8639323  56.7309298 122.9034421  32.4177134  57.2873453 124.1978958
  32.7741655  53.5977625 120.7562650  32.8239660  53.4327633 121.6978173
  32.6655578  52.7304884 120.3660531  21.6577913  56.2766171 108.0454739
  21.8066034  56.9601635 107.3921412  22.4644357  56.2571261 108.5604195
  30.0645417  49.5808553 122.0721957  30.9655280  49.4415018 121.7805955
  30.1393392  49.7463008 123.0120134  24.3988222  46.9575408 120.9175143
  23.5291532  47.2508974 120.6457732  24.6347703  47.5415853 121.6382407
  34.2759852  56.0174567 121.0004672  33.9844660  56.3804547 121.8368133
  33.6631983  55.3041575 120.8218004  35.4755534  53.5827446 113.5207242
  36.3102425  54.0217251 113.6844802  35.6114663  53.1066100 112.7015488
  32.5247040  51.1407181 119.4684730  33.0001161  51.3334828 118.6603581
  31.6012605  51.1966367 119.2228113  19.4130546  52.3031349 109.0515808
  19.1676588  51.3993679 109.2496018  19.5826461  52.3048499 108.1095286
  27.1027256  43.1755025 118.4340564  27.6209200  43.9116052 118.1087052
  26.7482389  43.4819018 119.2687323  18.6826194  48.0359706 106.5501969
  17.9895439  48.1104061 105.8942005  18.4377946  47.2720050 107.0723486
  27.3539850  39.5955307 113.9541460  27.6341604  38.9278496 114.5801887
  28.1390457  39.7884403 113.4416124  25.1573319  58.7714301 105.5166486
  24.5847286  59.3904488 105.0636958  25.7306113  59.3213663 106.0506408
  31.2248709  48.0172941 117.7013035  32.1766132  48.1171039 117.7225259
  31.0552159  47.2251210 118.2111120  29.2463088  45.1028525 117.8872436
  28.6513020  45.3833537 117.1918925  28.9612785  45.5922426 118.6589177
  28.3770579  59.0551451 106.6475069  29.3101252  58.9897013 106.8507944
  28.2893792  59.8907718 106.1889601  31.0058595  58.3717322 103.6079016
  30.9272227  58.0377185 104.5014774  31.8268262  58.8639090 103.6070489
  33.7036787  51.2379061 116.8155335  33.6713107  50.2995062 117.0015019
  34.3137410  51.3163098 116.0821160  25.5420117  50.1075114 102.8582539
  26.4879222  49.9781322 102.9270957  25.1634362  49.3689776 103.3351967
  33.8531275  48.0290105 116.8613618  33.3370324  47.2448561 116.6743547
  34.7371224  47.7008821 117.0260138  31.5142002  41.7731120 112.8209431
  31.3166823  41.4646208 113.7052763  32.1241708  42.4992759 112.9507361
  39.5213336  52.2995068 115.9561372  40.2516725  52.0380356 116.5169075
  38.9120282  51.5623790 115.9963440  37.6028634  50.4402931 116.5535823
  36.8761797  50.3058895 115.9452315  37.1875920  50.7479759 117.3592541
  25.4258810  54.1592860 124.3183196  26.3461819  54.3371459 124.5123242
  25.3908393  53.2148906 124.1662895  23.7263035  48.0325090 102.7937424
  22.8194490  47.7358203 102.8700138  24.0039016  47.7354909 101.9271710
  14.6440975  49.3531454 113.2436471  14.3243759  48.4996762 112.9510845
  14.0974403  49.5680032 113.9994438  18.4220882  52.0693895 116.9605977
  18.6406892  53.0011003 116.9794011  18.8346656  51.7101869 117.7460781
  25.3425100  42.5761980 108.9481665  24.5325829  42.2309065 109.3236912
  26.0309517  42.2669524 109.5369277  27.2715649  41.6540027 110.5705962
  27.8246687  42.0735480 111.2295985  27.5085735  40.7275775 110.6128918
  23.2948748  47.6427101 126.3508726  23.1945475  48.5921458 126.2820817
  23.0770290  47.3145340 125.4784796  22.4961819  44.8912026 102.9349403
  23.3580983  45.2166924 103.1945221  22.6812163  44.1043522 102.4222469
  14.5129235  52.9734365 115.2129592  13.8192706  52.5588318 114.6999547
  15.2602226  53.0154902 114.6163011  30.6494456  43.7640552 110.0784626
  30.0693125  44.4225356 109.6962679  30.3830388  42.9417897 109.6672044
  29.0998022  43.1645610 112.2805947  29.5997800  43.2762144 111.4720266
  29.7433630  42.8606663 112.9206755  23.1580018  51.0724239 125.1673788
  22.6747100  51.8724600 125.3737677  23.2440957  51.0832184 124.2141232
  16.4265977  52.9052619 113.0895607  16.4036666  53.0040306 112.1377490
  16.7366614  53.7517770 113.4112773  19.0853355  54.9628774 117.2042221
  20.0396609  54.9312717 117.1372153  18.8865879  54.5019398 118.0192447
  19.6752737  53.5329890 119.7713019  20.4945626  54.0273969 119.7947856
  19.9489545  52.6161858 119.7430587  29.4319334  45.9240643 109.1340975
  28.5445189  46.2090293 108.9161169  29.8473323  45.7634406 108.2868252
  32.7833870  45.9487164 112.8495314  33.5594260  46.4383616 113.1219931
  32.0582004  46.3745218 113.3067183  35.2206428  46.6614783 113.9069255
  35.8150919  46.4210519 113.1962563  35.2933012  45.9421913 114.5342791
  17.4403584  60.5048394 114.2212419  17.3058052  59.7448795 113.6550417
  17.0235646  61.2289294 113.7541208  28.5762547  55.6885317 103.2288995
  29.2798397  55.8935320 103.8446650  27.8525196  56.2562079 103.4938078
  29.4060357  51.4395178 109.3491265  29.3495559  51.8963730 108.5098897
  29.9588700  50.6785863 109.1714108  33.2165163  47.2284910 110.1741384
  32.9602098  46.8281546 111.0049592  32.5918031  47.9428704 110.0491523
  37.5277501  49.9680984 112.6812676  36.9677059  50.0374173 113.4544238
  36.9221005  49.7921968 111.9612172  20.5972710  61.4017711 114.4330862
  20.4805094  62.3463143 114.3309552  19.7765156  61.0991272 114.8216661
  30.4849245  56.1267846 105.2787455  31.3194848  55.6949045 105.0964929
  30.3233587  55.9549860 106.2064349  30.1395137  52.6299960 106.6443794
  30.0843941  52.4644231 105.7032238  29.5141192  53.3375993 106.8005984
  14.9287652  47.8668024 120.4705216  15.5746515  47.3566978 120.9592441
  14.7204803  48.6036706 121.0448641  27.4541044  54.9348872 125.9697357
  28.3232204  55.1089524 125.6083992  26.9747795  55.7543288 125.8473086
  23.4491262  42.1308069 106.2229112  23.4369932  43.0749909 106.3797383
  24.3414684  41.9478214 105.9288574  21.6227224  62.0545973 117.6486790
  22.5254471  62.0869583 117.9653285  21.3964594  61.1246424 117.6633126
  23.3780826  60.8076959 114.3096869  22.4276457  60.8078821 114.1961241
  23.6813312  60.0609694 113.7932904  27.2643382  38.7250845 110.4775049
  26.4975777  38.1709332 110.6231732  27.6754087  38.7972714 111.3389201
  39.1133520  66.6437498 115.3742631  39.7511930  66.5244245 114.6705972
  38.9954363  67.5918341 115.4330584  35.9223226  66.5964926 115.3104156
  35.5841737  66.4805990 114.4224691  36.7912994  66.1956091 115.2905162
  31.7810042  68.4500402 111.3001047  31.2174907  68.3590339 110.5317335
  31.6662437  67.6300306 111.7803540  36.4043009  67.7499777 121.2690362
  36.3931650  67.3552576 120.3970865  36.5663648  67.0165850 121.8624133
  29.3274474  69.9451594 114.1385268  30.1195765  69.6042418 113.7231567
  29.5671124  70.0546569 115.0587421  37.3609600  72.1171370 106.6115512
  36.7097580  72.7025450 106.2249526  38.1553963  72.6477565 106.6710549
  31.2865227  69.2060507 107.0102646  32.0596103  68.6589494 106.8715522
  31.6390626  70.0704756 107.2217108  33.1250270  70.5336889 120.2169546
  32.8340136  71.4382520 120.1016212  33.7607254  70.5753417 120.9313615
  34.0506477  67.9113738 116.8070905  34.6470049  67.6869760 116.0927868
  34.1081448  67.1698483 117.4096353  33.6231505  65.3653173 104.6421096
  33.8757026  64.8434694 103.8804559  32.6856064  65.2019318 104.7447780
  38.6674788  64.3688951 112.4495839  39.4537877  63.9508375 112.0986256
  38.9313492  65.2735044 112.6177488  38.8384865  69.8061802 107.1484496
  38.2030698  69.8796428 107.8605401  38.5082272  70.3955401 106.4703576
  44.0683215  64.3064185 113.3528818  44.8008387  63.7363401 113.5866647
  43.3122571  63.9185785 113.7935324  33.3427794  67.2681279 106.8445471
  33.2264052  66.5926182 107.5126556  33.4530054  66.7813653 106.0277624
  35.6859335  66.7291426 110.5492160  35.3217542  66.2022047 111.2605082
  36.5426451  66.3389895 110.3758646  41.5908636  58.0185759 117.8123427
  41.2591960  58.8881170 117.5884642  40.9954249  57.7022043 118.4917457
  35.3264822  61.7581326 105.5453509  35.4939224  62.6261562 105.9123980
  35.1361991  61.9208607 104.6214798  38.0840155  70.2198305 117.2119339
  37.7840878  71.1223343 117.1035147  37.7391215  69.9530488 118.0640492
  31.5352637  66.6712102 113.2456044  30.6103133  66.5388316 113.4533736
  31.7837050  67.4506321 113.7425986  41.4837299  62.7380845 114.8916777
  40.5754176  62.6696253 114.5975538  41.4324895  63.2152790 115.7198602
  35.3054043  64.2138983 106.5300176  35.1853668  64.6596034 107.3685656
  34.6106631  64.5624301 105.9713714  28.8961448  66.3145375 114.0799833
  29.0253829  66.5679854 114.9939245  28.2158899  66.9073083 113.7604488
  33.0660935  76.9842625 110.1790307  32.9884965  77.9350450 110.2578788
  32.4622579  76.6388498 110.8365233  35.5578165  64.1570490 122.8351674
  34.7811499  64.7164411 122.8254539  36.1968728  64.6427273 123.3566544
  43.3498945  60.9397283 116.6694651  42.7073326  61.2329816 116.0234445
  42.8453874  60.8250204 117.4747847  33.8124537  66.9655944 122.3969641
  34.5539221  67.5040988 122.1204465  33.1061522  67.5922233 122.5541193
  39.2879877  69.1085084 120.9941802  39.6963233  68.6667495 120.2496435
  38.5657138  68.5337712 121.2475995  35.6410947  64.0457691 118.3675359
  36.4872142  64.4697105 118.5110008  35.5809584  63.3891315 119.0613922
  39.6108691  69.6686275 114.7494091  38.9817554  69.8331989 114.0470159
  39.2234353  70.0827884 115.5205055  43.4897923  70.6040713 112.1038455
  42.8048961  70.9839614 111.5535488  43.5741773  71.2136039 112.8370403
  38.7910392  61.7062059 120.0256533  38.5471324  62.4604120 119.4890809
  39.0670323  62.0847407 120.8603780  40.7448855  68.2500672 118.7033799
  40.9565750  68.8932432 118.0268180  40.6978603  67.4162988 118.2355729
  38.3475084  60.8618492 115.6070371  37.4859563  61.1599746 115.8987108
  38.3737518  61.0788891 114.6751403  35.1636653  69.4060683 112.0144176
  35.6274999  69.6848386 111.2248799  34.8993451  68.5044128 111.8317267
  32.0560734  68.9532165 114.9523940  32.6262091  69.3819433 114.3141424
  32.6468846  68.6714749 115.6508125  34.1005539  65.5283835 108.8233742
  34.8029583  65.9804879 109.2907668  33.7686168  64.8867654 109.4513635
  32.5485901  64.1195592 123.1984951  31.9184561  64.8011873 123.4320348
  32.4421989  64.0078674 122.2538089  27.8430873  63.7867388 114.1250875
  27.0529927  64.0424917 113.6490986  28.3342121  64.6015726 114.2302916
  41.8594683  71.1272627 116.8756156  42.6812126  70.7252814 116.5938838
  41.8557086  71.0240861 117.8272272  29.7945619  64.1511967 111.0834352
  28.9976782  64.2630662 111.6017847  29.5671211  64.4898619 110.2175242
  35.6251286  70.6756670 119.0316866  35.6895719  71.1377078 119.8675038
  34.9162210  70.0454035 119.1599176  26.1268576  64.0397878 116.5565866
  26.3776615  64.9244888 116.8223442  26.6628125  63.8602480 115.7840958
  49.9500676  67.4711376 113.2241127  49.1964384  66.9018774 113.0685132
  50.0848217  67.4374040 114.1711762  35.3399304  72.3424778 108.8995847
  35.2044979  73.1876314 109.3280695  35.8809116  72.5444056 108.1361781
  31.8266643  58.4216358 125.5610202  31.4333589  57.8682556 126.2357846
  32.6432784  58.7326936 125.9516719  28.7928701  69.8600216 109.4723772
  29.3053222  70.6543466 109.6229337  29.4451414  69.1626506 109.4057373
  30.6023586  72.9765972 111.5546525  30.7790214  73.8983937 111.3667509
  31.3980419  72.6624391 111.9840905  34.7434604  59.8374237 123.1530459
  35.4844318  60.4381390 123.0734921  34.9752527  59.0951875 122.5948501
  29.8875942  65.0230604 121.4308688  29.7729458  64.1215861 121.7315787
  29.0320460  65.2694301 121.0793505  36.9667780  72.9648344 123.0296189
  36.5231634  72.1784723 122.7117093  37.6284994  73.1527495 122.3640080
  31.7254901  74.4944146 117.5556867  32.2762327  74.3661209 116.7833861
  30.8866377  74.7939035 117.2051760  39.0649018  73.2451144 121.0577590
  39.0467494  74.0660025 120.5657859  39.9868938  73.1205220 121.2827731
  35.5222072  70.7595274 121.9001098  36.0550409  69.9983562 121.6700406
  34.9936154  70.4668926 122.6425253  38.6891767  55.8655340 117.4294740
  38.3456037  56.7556982 117.3533851  39.0570730  55.6756997 116.5664325
  26.7577618  68.1888870 110.2483342  27.5952840  68.5985879 110.0317050
  26.9355886  67.2488312 110.2183536  36.2389161  60.7013652 110.9952414
  35.3830758  60.3120502 110.8158052  36.6516113  60.7805613 110.1352199
  37.7688308  58.2359995 115.3943973  37.2653103  58.1990130 114.5811779
  38.0618915  59.1452738 115.4540630  34.0131194  58.3198725 114.4010155
  34.8784190  58.1241533 114.0416045  34.0808703  58.0909076 115.3279512
  43.6276324  68.6096306 107.8720349  42.8505767  68.2707465 107.4275511
  44.3067805  68.6148929 107.1975314  38.4428353  63.7291043 107.7626956
  38.1378489  64.0437192 108.6137100  39.3958795  63.8072463 107.8054289
  36.8874785  69.8881266 109.4119910  36.3596147  69.1534026 109.0993148
  36.3862288  70.6655943 109.1659879  41.8667631  68.0830287 114.5286957
  41.2091306  68.7729548 114.6167085  42.6708030  68.4726719 114.8720943
  31.6193513  60.5500933 111.7726522  32.1937265  60.3276114 111.0399715
  32.2064495  60.6189627 112.5255123  40.6773090  66.4374660 112.5790899
  41.1904972  67.0704651 113.0812608  41.3274314  65.8375855 112.2134259
  31.9463100  62.5805394 105.7922407  31.1100412  62.9180080 106.1131682
  31.8067870  62.4454373 104.8549544  33.9216180  57.4242182 110.5001591
  33.2680593  57.1091199 109.8758206  33.8796655  56.8017922 111.2261414
  35.0327385  67.7061477 102.4154883  34.1254447  67.4750730 102.6146032
  35.5298417  66.9099096 102.6028865  37.9395464  76.4158984 105.3351570
  37.2657163  76.7190681 105.9436527  38.3261286  77.2188064 104.9857027
  37.1553921  63.9124115 114.8249239  36.2376482  64.1339062 114.6670927
  37.5714064  63.9870426 113.9660946  37.9388969  65.3115531 109.9551919
  38.6860788  65.8236928 109.6459041  38.2080558  64.9899584 110.8156313
  36.2115619  67.8074072 106.9378874  35.3026838  67.5233104 107.0351343
  36.2410703  68.2273150 106.0782180  41.4434886  71.4180661 110.7070041
  40.9897213  70.5771571 110.7635232  40.8128853  72.0542059 111.0444821
  40.3867806  62.3472647 111.9370709  39.6490563  61.8350033 112.2680951
  40.6394579  61.9073029 111.1253985  39.8867825  73.2557158 111.6419859
  40.1790800  73.8162215 110.9232225  40.3966446  73.5485719 112.3973018
  40.4879433  55.1248899 112.5312478  40.7938310  54.2646262 112.2438393
  41.2132038  55.7166519 112.3311472  26.7803789  65.5279586 110.9194076
  26.5828189  64.9348946 110.1945142  26.2250453  65.2231796 111.6370015
  34.7600513  65.4202692 113.0388669  34.8149123  64.4676529 112.9631146
  33.9491715  65.5762131 113.5229967  35.9091707  69.3482815 104.2766952
  35.4711137  68.6318674 103.8172590  36.6502147  69.5758930 103.7152044
  32.6992873  64.0379752 110.7979048  31.8860738  64.3373922 111.2044240
  33.1951867  63.6435441 111.5153530  34.8501451  74.0337509 112.7313313
  34.8077629  74.2598355 111.8021845  35.7664149  73.8000883 112.8799114
  38.2967084  64.5021576 119.6293942  38.6516472  64.7293049 120.4888407
  38.9439216  64.8339953 119.0071197  44.0264821  67.6240012 110.3343271
  43.8882720  67.8141608 109.4064460  43.6701040  68.3859395 110.7911322
  32.1906948  61.6098107 116.4140283  32.8306327  61.4686866 115.7163246
  31.3584478  61.3232621 116.0378885  44.0534201  69.6916539 115.3454542
  44.4870708  69.5991828 116.1937596  44.7665782  69.6674040 114.7074558
  32.9667251  70.9100538 112.5275275  33.7607850  70.4150858 112.3257850
  32.2558944  70.3818401 112.1642981  37.7862096  73.2918633 116.8787643
  37.8399118  73.8609570 117.6465359  36.9176877  73.4620518 116.5141680
  29.2750015  65.0543620 108.6035028  28.3447603  64.9928075 108.8204990
  29.3707487  64.5319572 107.8071669  29.1935564  61.5798432 111.1913270
  29.4542381  62.4943766 111.0822430  30.0152736  61.1122875 111.3409882
  30.6660489  62.9936190 118.3612094  31.3383543  62.7853552 117.7124743
  29.8390276  62.7958276 117.9217326  44.9149751  69.7340240 117.8787428
  45.1085641  70.6386050 118.1246703  44.8150369  69.2747659 118.7126013
  36.5686061  59.6198130 120.3777755  35.9213976  60.3188080 120.2842231
  37.3387077  60.0534274 120.7454003  39.9764859  69.8846983 123.4528308
  39.8250366  69.6557534 122.5358392  39.9669539  70.8417584 123.4659653
  36.7450196  67.4578895 118.4374575  37.6742256  67.6090055 118.2643542
  36.3241226  67.5462916 117.5823221  35.5438527  71.4829560 116.2073112
  35.4049613  71.1148344 117.0799050  34.7553124  71.9977199 116.0357070
  36.1386679  76.5838656 107.5498649  36.3138435  76.1126699 108.3644272
  35.4519467  77.2104422 107.7779910  37.0943743  70.8611162 113.5961950
  36.7593575  70.8211932 114.4919600  36.5947688  70.1955878 113.1232360
  31.0687987  66.2678793 119.1214531  30.9307784  65.5359031 119.7226070
  31.9792910  66.1787693 118.8398719  40.0302934  68.2067197 103.8699010
  39.4132105  67.4814025 103.7732062  39.5619423  68.9676557 103.5266084
  33.6970287  65.9798752 118.6098211  34.4069906  65.3391944 118.5684829
  33.6539595  66.2311647 119.5324392  41.6857066  72.9166105 121.5304790
  41.6269612  72.2325325 120.8635373  42.0876584  73.6585095 121.0785416
  32.4099221  62.9663970 120.4293850  31.8736578  62.5154708 121.0815447
  31.8215930  63.1009879 119.6864315  30.7047765  79.7328019 114.3238509
  30.9444363  80.3646543 115.0017528  29.8616961  79.3816059 114.6103868
  31.8201480  62.4252621 102.9920314  30.9430946  62.3041422 102.6282561
  32.2959233  61.6338699 102.7399203  41.6874473  70.8805689 119.7618770
  40.8001252  70.5431611 119.8845169  42.2573024  70.1488720 119.9987535
  23.3403620  67.2129781 113.0861821  24.0274660  66.8991511 112.4982836
  23.1851749  68.1171145 112.8129073  28.1438342  62.1019977 117.5146845
  28.0596531  61.4945647 116.7797255  27.3221049  62.5928996 117.5156341
  35.2175627  75.5407141 116.7280013  35.1445798  76.3462113 117.2399318
  34.7753020  75.7399107 115.9028034  35.0065406  74.7778911 110.2382835
  34.2232928  75.3200592 110.3321059  35.7058151  75.2952891 110.6377076
  38.3162056  60.5873541 112.8817040  38.8130756  59.8343503 112.5618110
  37.5449038  60.6237858 112.3160249  46.1691814  66.2913906 114.5235331
  46.1581690  67.1738622 114.1529265  45.3009193  65.9385457 114.3289868
  37.6774310  75.4393975 118.8838172  38.3902282  76.0741440 118.8114073
  37.1864339  75.5357841 118.0678173  39.3991837  69.3445228 110.4555463
  38.4648116  69.4646691 110.2860168  39.5768505  68.4417695 110.1915473
  34.8997025  62.7290924 112.6088725  34.5294813  62.1761964 113.2969630
  35.3956117  62.1249057 112.0563725  42.7864388  65.1862547 110.9905497
  43.2524841  66.0190539 110.9165800  43.2371889  64.7207529 111.6950756
  32.7286224  73.1888419 119.7043742  33.4295683  73.8224902 119.8573137
  32.2581339  73.5303150 118.9439382  40.8540619  71.5306369 107.9891650
  41.1300463  71.4162963 108.8985524  39.9845118  71.1323854 107.9503823
  40.7581051  57.5543134 115.0296399  39.8444131  57.7847361 115.1978606
  41.1874153  57.6381578 115.8810431  40.5287510  65.7433026 117.5296293
  39.8758960  65.9908934 116.8748746  40.9067889  64.9297165 117.1958770
  37.4894683  75.7792720 111.6324463  37.6717078  74.9614376 112.0952215
  38.3127669  75.9960412 111.1949353  37.8236849  74.7060905 108.8939512
  38.3524615  74.1953359 108.2809674  38.0865069  74.3903435 109.7585045
  36.5775083  66.4852837 124.0162330  35.9015720  66.3846967 124.6864705
  37.4002716  66.3292051 124.4798327  28.3253942  72.7224774 116.6374845
  28.9107378  71.9768462 116.7702749  28.1278780  73.0328731 117.5211509
  31.1792597  75.7576021 111.6537288  30.5102972  76.2422149 111.1701328
  31.0405467  76.0045242 112.5680666  22.9171596  65.2930374 115.3579288
  22.9555696  64.7593965 116.1516406  22.4111889  64.7665580 114.7390265
  35.3197865  77.7919765 118.2519946  35.8716173  77.9551386 119.0169031
  35.6604059  78.3824203 117.5799971  30.2962359  60.1394915 118.8541831
  30.3603685  61.0009746 118.4419228  30.2329479  59.5268916 118.1214189
  29.7714631  62.2118047 122.5014865  30.3986670  61.8295125 123.1152389
  28.9142550  61.9932249 122.8670557  40.1708740  72.6181022 124.1068600
  40.7148644  73.2310981 123.6123555  39.5895585  73.1760601 124.6235613
  26.5480174  64.0194476 108.4333220  26.8433615  63.1105155 108.3800273
  25.6468210  63.9982216 108.1114222  38.4566253  75.7401740 115.2383628
  38.3317392  74.9391480 114.7294574  39.1145344  76.2347934 114.7497598
  30.0774421  62.0950473 114.4160768  29.3561007  62.7086441 114.2768242
  30.8667677  62.6308238 114.3377414  40.5201161  73.5410761 116.8663178
  39.5731497  73.4216112 116.7941505  40.8683934  72.6533259 116.9489440
  32.8800734  59.4304899 120.6901420  33.4035136  59.6767196 121.4527729
  32.6613068  60.2624934 120.2704557  28.2768016  61.7008574 108.5572545
  27.9480722  60.8205953 108.3747651  28.6307386  61.6456243 109.4448934
  37.5247594  73.3363477 113.0667530  37.3772557  72.4080184 113.2475100
  38.3501088  73.3583567 112.5824606  31.3909839  61.9881544 108.9248023
  31.7305911  62.5167465 108.2026631  31.8381959  62.3261950 109.7006589
  41.1281716  74.1592035 114.1532403  42.0528264  73.9534897 114.0156854
  40.9597020  73.9108437 115.0621745  34.0853280  60.3718595 118.3751091
  33.7450100  59.5726408 118.7771770  33.3792286  60.6720305 117.8027924
  34.7369751  57.4567907 116.8278414  35.5595821  56.9828385 116.7057304
  34.9807815  58.2358391 117.3277100  33.3777986  60.4856165 107.1241315
  34.0986348  60.8637418 106.6205032  32.7543290  61.2045042 107.2276293
  37.5209109  61.1901314 108.0599648  37.7372723  62.0725952 107.7588476
  37.0403176  60.7987528 107.3305290  32.2608330  64.1487028 114.6370392
  32.1152911  64.4627331 115.5294674  31.7833534  64.7671928 114.0841291
  34.1204713  61.1389576 114.6851282  34.1066282  60.2430669 114.3483580
  34.8377141  61.1460239 115.3189568  35.9730844  61.5726916 116.7304409
  35.7148622  62.4943986 116.7288740  35.4415884  61.1757350 117.4204873
  40.9177032  74.6777703 109.5094495  41.0913910  74.1124125 108.7568347
  41.4105924  75.4778598 109.3273985  26.7353992  66.6892372 117.5758053
  26.1907460  67.4652180 117.7078328  27.6133342  67.0363176 117.4177175
  33.5241609  60.0203956 109.9538852  33.6457520  59.0920602 110.1529739
  33.2343651  60.0342642 109.0417167  36.3932799  57.7058866 113.0905572
  36.4154496  57.7698199 112.1357551  36.8100858  56.8663375 113.2846078
  46.7716424  67.4414126 111.1284794  47.2147570  66.6921451 110.7303918
  45.8942934  67.4324262 110.7458526  41.9052205  73.9944467 106.6091393
  42.6003110  74.6151160 106.8278708  42.2475355  73.1439819 106.8843771
  27.5220014  65.8162268 120.4688210  26.7801750  65.9644904 121.0552841
  27.2012758  66.0770534 119.6054960  43.8043628  71.4444173 108.1378724
  44.3294952  71.7831446 107.4128044  43.7165981  70.5091188 107.9541858
  35.4663677  75.3578246 120.2668600  35.7750803  75.1127393 121.1391300
  36.2639159  75.5624885 119.7787471  35.4884289  77.5116156 112.4973977
  35.0489279  77.0192535 113.1906834  36.2392406  76.9689124 112.2566052
  27.9676628  73.7027697 112.4998605  28.7934648  73.4031469 112.1197248
  27.6170680  72.9335319 112.9488394  32.9358161  73.0554165 114.5696279
  32.3138170  72.3924870 114.2698506  33.6063028  73.0815297 113.8869926
  26.1685233  71.6214023 113.4587539  25.3317141  71.1936198 113.2771540
  26.1408878  71.8146467 114.3958330  33.0082688  61.5335953 124.1628785
  33.0570844  62.4098076 123.7806554  33.5505203  60.9913346 123.5900428
  43.4937534  72.0777076 123.4429922  42.7033078  72.0601215 122.9034421
  43.2570889  72.6165370 124.1978958  43.6135409  68.9269543 120.7562650
  43.6633414  68.7619550 121.6978173  43.5049333  68.0596802 120.3660531
  32.4971668  71.6058089 108.0454739  32.6459788  72.2893553 107.3921412
  33.3038111  71.5863179 108.5604195  40.9039172  64.9100471 122.0721957
  41.8049034  64.7706936 121.7805955  40.9787146  65.0754926 123.0120134
  35.2381977  62.2867326 120.9175143  34.3685286  62.5800892 120.6457732
  35.4741457  62.8707771 121.6382407  45.1153606  71.3466484 121.0004672
  44.8238414  71.7096465 121.8368133  44.5025737  70.6333493 120.8218004
  46.3149288  68.9119364 113.5207242  47.1496180  69.3509168 113.6844802
  46.4508417  68.4358017 112.7015488  43.3640794  66.4699099 119.4684730
  43.8394916  66.6626745 118.6603581  42.4406360  66.5258285 119.2228113
  30.2524301  67.6323266 109.0515808  30.0070343  66.7285596 109.2496018
  30.4220215  67.6340417 108.1095286  37.9421011  58.5046943 118.4340564
  38.4602955  59.2407969 118.1087052  37.5876144  58.8110936 119.2687323
  29.5219948  63.3651624 106.5501969  28.8289193  63.4395979 105.8942005
  29.2771700  62.6011967 107.0723486  38.1933605  54.9247225 113.9541460
  38.4735359  54.2570414 114.5801887  38.9784212  55.1176321 113.4416124
  35.9967073  74.1006219 105.5166486  35.4241040  74.7196406 105.0636958
  36.5699867  74.6505581 106.0506408  42.0642463  63.3464859 117.7013035
  43.0159886  63.4462957 117.7225259  41.8945914  62.5543128 118.2111120
  40.0856843  60.4320442 117.8872436  39.4906775  60.7125455 117.1918925
  39.8006539  60.9214343 118.6589177  39.2164333  74.3843369 106.6475069
  40.1495006  74.3188931 106.8507944  39.1287546  75.2199636 106.1889601
  41.8452350  73.7009239 103.6079016  41.7665981  73.3669103 104.5014774
  42.6662017  74.1931007 103.6070489  44.5430541  66.5670979 116.8155335
  44.5106861  65.6286980 117.0015019  45.1531165  66.6455015 116.0821160
  36.3813872  65.4367032 102.8582539  37.3272977  65.3073240 102.9270957
  36.0028117  64.6981694 103.3351967  44.6925030  63.3582022 116.8613618
  44.1764078  62.5740479 116.6743547  45.5764978  63.0300739 117.0260138
  42.3535756  57.1023038 112.8209431  42.1560578  56.7938126 113.7052763
  42.9635462  57.8284677 112.9507361  50.3607091  67.6286986 115.9561372
  51.0910479  67.3672274 116.5169075  49.7514036  66.8915708 115.9963440
  48.4422388  65.7694848 116.5535823  47.7155552  65.6350813 115.9452315
  48.0269675  66.0771677 117.3592541  36.2652564  69.4884778 124.3183196
  37.1855574  69.6663377 124.5123242  36.2302147  68.5440823 124.1662895
  34.5656789  63.3617008 102.7937424  33.6588244  63.0650121 102.8700138
  34.8432770  63.0646826 101.9271710  25.4834729  64.6823372 113.2436471
  25.1637514  63.8288680 112.9510845  24.9368158  64.8971950 113.9994438
  29.2614637  67.3985813 116.9605977  29.4800647  68.3302920 116.9794011
  29.6740411  67.0393787 117.7460781  36.1818855  57.9053898 108.9481665
  35.3719583  57.5600983 109.3236912  36.8703272  57.5961442 109.5369277
  38.1109403  56.9831945 110.5705962  38.6640442  57.4027398 111.2295985
  38.3479489  56.0567693 110.6128918  34.1342502  62.9719018 126.3508726
  34.0339229  63.9213375 126.2820817  33.9164044  62.6437257 125.4784796
  33.3355574  60.2203943 102.9349403  34.1974738  60.5458842 103.1945221
  33.5205918  59.4335439 102.4222469  25.3522989  68.3026283 115.2129592
  24.6586461  67.8880236 114.6999547  26.0995980  68.3446820 114.6163011
  41.4888210  59.0932470 110.0784626  40.9086879  59.7517274 109.6962679
  41.2224143  58.2709814 109.6672044  39.9391777  58.4937528 112.2805947
  40.4391555  58.6054062 111.4720266  40.5827384  58.1898580 112.9206755
  33.9973772  66.4016157 125.1673788  33.5140854  67.2016517 125.3737677
  34.0834711  66.4124102 124.2141232  27.2659732  68.2344537 113.0895607
  27.2430420  68.3332224 112.1377490  27.5760368  69.0809688 113.4112773
  29.9247110  70.2920692 117.2042221  30.8790363  70.2604634 117.1372153
  29.7259633  69.8311316 118.0192447  30.5146492  68.8621808 119.7713019
  31.3339381  69.3565887 119.7947856  30.7883300  67.9453776 119.7430587
  40.2713088  61.2532560 109.1340975  39.3838943  61.5382211 108.9161169
  40.6867077  61.0926324 108.2868252  43.6227624  61.2779081 112.8495314
  44.3988014  61.7675534 113.1219931  42.8975758  61.7037135 113.3067183
  46.0600183  61.9906700 113.9069255  46.6544674  61.7502436 113.1962563
  46.1326767  61.2713831 114.5342791  28.2797339  75.8340311 114.2212419
  28.1451807  75.0740712 113.6550417  27.8629401  76.5581211 113.7541208
  39.4156302  71.0177235 103.2288995  40.1192152  71.2227237 103.8446650
  38.6918950  71.5853997 103.4938078  40.2454112  66.7687096 109.3491265
  40.1889313  67.2255648 108.5098897  40.7982454  66.0077781 109.1714108
  44.0558918  62.5576828 110.1741384  43.7995852  62.1573464 111.0049592
  43.4311786  63.2720622 110.0491523  48.3671256  65.2972901 112.6812676
  47.8070814  65.3666091 113.4544238  47.7614759  65.1213886 111.9612172
  31.4366464  76.7309628 114.4330862  31.3198849  77.6755061 114.3309552
  30.6158911  76.4283190 114.8216661  41.3242999  71.4559764 105.2787455
  42.1588603  71.0240963 105.0964929  41.1627342  71.2841778 106.2064349
  40.9788891  67.9591877 106.6443794  40.9237695  67.7936149 105.7032238
  40.3534946  68.6667910 106.8005984  25.7681406  63.1959942 120.4705216
  26.4140270  62.6858896 120.9592441  25.5598557  63.9328623 121.0448641
  38.2934798  70.2640789 125.9697357  39.1625958  70.4381442 125.6083992
  37.8141550  71.0835206 125.8473086  34.2885017  57.4599986 106.2229112
  34.2763687  58.4041826 106.3797383  35.1808439  57.2770132 105.9288574
  32.4620979  77.3837890 117.6486790  33.3648225  77.4161501 117.9653285
  32.2358349  76.4538341 117.6633126  34.2174581  76.1368877 114.3096869
  33.2670212  76.1370738 114.1961241  34.5207067  75.3901611 113.7932904
  38.1037136  54.0542763 110.4775049  37.3369532  53.5001250 110.6231732
  38.5147841  54.1264632 111.3389201  30.1078897  60.3427559 124.5680230
  30.9710359  59.9864364 124.7783555  29.5344308  60.0041454 125.2555635
  49.9527274  81.9729415 115.3742631  50.5905684  81.8536163 114.6705972
  49.8348117  82.9210259 115.4330584  46.7616980  81.9256843 115.3104156
  46.4235492  81.8097908 114.4224691  47.6306749  81.5248008 115.2905162
  42.6203796  83.7792320 111.3001047  42.0568661  83.6882257 110.5317335
  42.5056191  82.9592224 111.7803540  47.2436763  83.0791695 121.2690362
  47.2325404  82.6844493 120.3970865  47.4057403  82.3457768 121.8624133
  40.1668228  85.2743511 114.1385268  40.9589520  84.9334336 113.7231567
  40.4064878  85.3838486 115.0587421  48.2003355  87.4463287 106.6115512
  47.5491335  88.0317368 106.2249526  48.9947718  87.9769482 106.6710549
  42.1258982  84.5352425 107.0102646  42.8989858  83.9881412 106.8715522
  42.4784381  85.3996674 107.2217108  43.9644025  85.8628807 120.2169546
  43.6733891  86.7674438 120.1016212  44.6001009  85.9045334 120.9313615
  44.8900231  83.2405655 116.8070905  45.4863804  83.0161678 116.0927868
  44.9475203  82.4990401 117.4096353  44.4625260  80.6945091 104.6421096
  44.7150780  80.1726612 103.8804559  43.5249819  80.5311236 104.7447780
  49.5068543  79.6980869 112.4495839  50.2931632  79.2800292 112.0986256
  49.7707247  80.6026961 112.6177488  49.6778620  85.1353719 107.1484496
  49.0424453  85.2088346 107.8605401  49.3476026  85.7247318 106.4703576
  54.9076970  79.6356102 113.3528818  55.6402142  79.0655319 113.5866647
  54.1516325  79.2477703 113.7935324  44.1821549  82.5973197 106.8445471
  44.0657807  81.9218100 107.5126556  44.2923808  82.1105571 106.0277624
  46.5253089  82.0583344 110.5492160  46.1611297  81.5313965 111.2605082
  47.3820205  81.6681813 110.3758646  52.4302390  73.3477676 117.8123427
  52.0985715  74.2173087 117.5884642  51.8348003  73.0313960 118.4917457
  46.1658576  77.0873243 105.5453509  46.3332979  77.9553480 105.9123980
  45.9755746  77.2500525 104.6214798  48.9233910  85.5490222 117.2119339
  48.6234633  86.4515261 117.1035147  48.5784969  85.2822406 118.0640492
  42.3746391  82.0004019 113.2456044  41.4496888  81.8680233 113.4533736
  42.6230804  82.7798238 113.7425986  52.3231053  78.0672763 114.8916777
  51.4147931  77.9988171 114.5975538  52.2718649  78.5444707 115.7198602
  46.1447797  79.5430901 106.5300176  46.0247423  79.9887952 107.3685656
  45.4500386  79.8916219 105.9713714  39.7355202  81.6437293 114.0799833
  39.8647583  81.8971772 114.9939245  39.0552653  82.2365001 113.7604488
  43.9054689  92.3134543 110.1790307  43.8278719  93.2642368 110.2578788
  43.3016333  91.9680415 110.8365233  46.3971919  79.4862408 122.8351674
  45.6205253  80.0456328 122.8254539  47.0362482  79.9719191 123.3566544
  54.1892700  76.2689201 116.6694651  53.5467080  76.5621734 116.0234445
  53.6847628  76.1542121 117.4747847  51.8432863  80.0152374 107.3580510
  52.7550720  80.2479761 107.1828207  51.3342511  80.5989418 106.7955588
  44.6518292  82.2947861 122.3969641  45.3932976  82.8332905 122.1204465
  43.9455277  82.9214150 122.5541193  50.1273631  84.4377002 120.9941802
  50.5356987  83.9959412 120.2496435  49.4050893  83.8629629 121.2475995
  46.4804701  79.3749609 118.3675359  47.3265896  79.7989022 118.5110008
  46.4203339  78.7183233 119.0613922  50.4502446  84.9978193 114.7494091
  49.8211308  85.1623907 114.0470159  50.0628108  85.4119802 115.5205055
  54.3291678  85.9332630 112.1038455  53.6442716  86.3131532 111.5535488
  54.4135527  86.5427957 112.8370403  49.6304147  77.0353977 120.0256533
  49.3865078  77.7896038 119.4890809  49.9064077  77.4139325 120.8603780
  51.5842609  83.5792589 118.7033799  51.7959505  84.2224349 118.0268180
  51.5372358  82.7454906 118.2355729  49.1868838  76.1910410 115.6070371
  48.3253317  76.4891664 115.8987108  49.2131273  76.4080809 114.6751403
  46.0030408  84.7352601 112.0144176  46.4668753  85.0140304 111.2248799
  45.7387206  83.8336045 111.8317267  42.8954489  84.2824082 114.9523940
  43.4655846  84.7111351 114.3141424  43.4862601  84.0006667 115.6508125
  44.9399294  80.8575753 108.8233742  45.6423337  81.3096797 109.2907668
  44.6079922  80.2159572 109.4513635  43.3879655  79.4487510 123.1984951
  42.7578316  80.1303791 123.4320348  43.2815743  79.3370591 122.2538089
  38.6824628  79.1159306 114.1250875  37.8923682  79.3716834 113.6490986
  39.1735875  79.9307644 114.2302916  52.6988437  86.4564545 116.8756156
  53.5205881  86.0544732 116.5938838  52.6950840  86.3532779 117.8272272
  40.6339373  79.4803885 111.0834352  39.8370536  79.5922579 111.6017847
  40.4064965  79.8190537 110.2175242  46.4645041  86.0048588 119.0316866
  46.5289473  86.4668995 119.8675038  45.7555965  85.3745953 119.1599176
  36.9662331  79.3689796 116.5565866  37.2170369  80.2536806 116.8223442
  37.5021879  79.1894398 115.7840958  60.7894430  82.8003293 113.2241127
  60.0358139  82.2310691 113.0685132  60.9241972  82.7665958 114.1711762
  46.1793058  87.6716696 108.8995847  46.0438733  88.5168231 109.3280695
  46.7202871  87.8735973 108.1361781  42.6660398  73.7508275 125.5610202
  42.2727344  73.1974474 126.2357846  43.4826538  74.0618854 125.9516719
  39.6322456  85.1892134 109.4723772  40.1446976  85.9835384 109.6229337
  40.2845169  84.4918424 109.4057373  41.4417340  88.3057890 111.5546525
  41.6183969  89.2275855 111.3667509  42.2374174  87.9916309 111.9840905
  45.5828359  75.1666155 123.1530459  46.3238072  75.7673308 123.0734921
  45.8146282  74.4243792 122.5948501  40.7269697  80.3522522 121.4308688
  40.6123212  79.4507779 121.7315787  39.8714215  80.5986219 121.0793505
  47.8061535  88.2940262 123.0296189  47.3625389  87.5076641 122.7117093
  48.4678748  88.4819413 122.3640080  42.5648656  89.8236064 117.5556867
  43.1156081  89.6953127 116.7833861  41.7260132  90.1230953 117.2051760
  49.9042773  88.5743062 121.0577590  49.8861248  89.3951943 120.5657859
  50.8262693  88.4497137 121.2827731  46.3615827  86.0887192 121.9001098
  46.8944164  85.3275480 121.6700406  45.8329908  85.7960843 122.6425253
  49.5285522  71.1947258 117.4294740  49.1849791  72.0848899 117.3533851
  49.8964485  71.0048915 116.5664325  37.5971373  83.5180788 110.2483342
  38.4346595  83.9277796 110.0317050  37.7749640  82.5780230 110.2183536
  49.4935805  81.1855869 105.9367175  48.9782428  81.9560473 106.1755563
  49.2213113  80.5121005 106.5600237  47.0782916  76.0305569 110.9952414
  46.2224512  75.6412420 110.8158052  47.4909867  76.1097530 110.1352199
  48.6082062  73.5651913 115.3943973  48.1046858  73.5282048 114.5811779
  48.9012669  74.4744655 115.4540630  44.8524948  73.6490642 114.4010155
  45.7177945  73.4533451 114.0416045  44.9202457  73.4200994 115.3279512
  54.4670079  83.9388223 107.8720349  53.6899522  83.5999383 107.4275511
  55.1461560  83.9440846 107.1975314  49.2822108  79.0582961 107.7626956
  48.9772243  79.3729110 108.6137100  50.2352550  79.1364381 107.8054289
  47.7268540  85.2173184 109.4119910  47.1989901  84.4825944 109.0993148
  47.2256042  85.9947860 109.1659879  52.7061386  83.4122205 114.5286957
  52.0485060  84.1021466 114.6167085  53.5101785  83.8018636 114.8720943
  42.4587267  75.8792850 111.7726522  43.0331019  75.6568032 111.0399715
  43.0458250  75.9481545 112.5255123  51.5166844  81.7666577 112.5790899
  52.0298726  82.3996569 113.0812608  52.1668068  81.1667773 112.2134259
  42.7856854  77.9097311 105.7922407  41.9494167  78.2471998 106.1131682
  42.6461624  77.7746291 104.8549544  44.7609935  72.7534099 110.5001591
  44.1074347  72.4383116 109.8758206  44.7190409  72.1309840 111.2261414
  45.8721140  83.0353394 102.4154883  44.9648202  82.8042648 102.6146032
  46.3692172  82.2391014 102.6028865  48.7789219  91.7450901 105.3351570
  48.1050917  92.0482598 105.9436527  49.1655041  92.5479982 104.9857027
  47.9947675  79.2416033 114.8249239  47.0770237  79.4630980 114.6670927
  48.4107819  79.3162343 113.9660946  48.7782723  80.6407448 109.9551919
  49.5254542  81.1528846 109.6459041  49.0474313  80.3191501 110.8156313
  47.0509373  83.1365989 106.9378874  46.1420593  82.8525022 107.0351343
  47.0804457  83.5565068 106.0782180  52.2828641  86.7472579 110.7070041
  51.8290968  85.9063489 110.7635232  51.6522607  87.3833977 111.0444821
  51.2261560  77.6764565 111.9370709  50.4884317  77.1641951 112.2680951
  51.4788334  77.2364946 111.1253985  50.7261580  88.5849075 111.6419859
  51.0184554  89.1454132 110.9232225  51.2360200  88.8777636 112.3973018
  51.3273188  70.4540817 112.5312478  51.6332064  69.5938180 112.2438393
  52.0525792  71.0458437 112.3311472  37.6197544  80.8571503 110.9194076
  37.4221943  80.2640864 110.1945142  37.0644208  80.5523713 111.6370015
  45.5994267  80.7494610 113.0388669  45.6542877  79.7968446 112.9631146
  44.7885469  80.9054049 113.5229967  46.7485461  84.6774733 104.2766952
  46.3104891  83.9610592 103.8172590  47.4895902  84.9050848 103.7152044
  43.5386627  79.3671670 110.7979048  42.7254493  79.6665840 111.2044240
  44.0345621  78.9727358 111.5153530  45.6895205  89.3629426 112.7313313
  45.6471384  89.5890273 111.8021845  46.6057904  89.1292801 112.8799114
  49.1360839  79.8313494 119.6293942  49.4910227  80.0584967 120.4888407
  49.7832970  80.1631871 119.0071197  54.8658576  82.9531930 110.3343271
  54.7276474  83.1433526 109.4064460  54.5094795  83.7151313 110.7911322
  43.0300702  76.9390025 116.4140283  43.6700081  76.7978784 115.7163246
  42.1978233  76.6524538 116.0378885  54.8927955  85.0208457 115.3454542
  55.3264462  84.9283746 116.1937596  55.6059536  84.9965957 114.7074558
  43.8061006  86.2392455 112.5275275  44.6001604  85.7442776 112.3257850
  43.0952698  85.7110319 112.1642981  48.6255850  88.6210551 116.8787643
  48.6792873  89.1901487 117.6465359  47.7570632  88.7912436 116.5141680
  40.1143769  80.3835537 108.6035028  39.1841357  80.3219993 108.8204990
  40.2101241  79.8611490 107.8071669  40.0329318  76.9090350 111.1913270
  40.2936136  77.8235683 111.0822430  40.8546491  76.4414793 111.3409882
  41.5054244  78.3228107 118.3612094  42.1777297  78.1145469 117.7124743
  40.6784030  78.1250193 117.9217326  55.7543505  85.0632158 117.8787428
  55.9479395  85.9677968 118.1246703  55.6544123  84.6039577 118.7126013
  47.4079816  74.9490048 120.3777755  46.7607731  75.6479998 120.2842231
  48.1780831  75.3826192 120.7454003  50.8158614  85.2138900 123.4528308
  50.6644120  84.9849452 122.5358392  50.8063293  86.1709502 123.4659653
  47.5843950  82.7870813 118.4374575  48.5136010  82.9381973 118.2643542
  47.1634980  82.8754834 117.5823221  46.3832282  86.8121477 116.2073112
  46.2443368  86.4440262 117.0799050  45.5946878  87.3269117 116.0357070
  46.9780434  91.9130574 107.5498649  47.1532190  91.4418617 108.3644272
  46.2913222  92.5396340 107.7779910  47.9337497  86.1903080 113.5961950
  47.5987330  86.1503850 114.4919600  47.4341443  85.5247796 113.1232360
  41.9081741  81.5970710 119.1214531  41.7701539  80.8650949 119.7226070
  42.8186664  81.5079610 118.8398719  50.8696689  83.5359114 103.8699010
  50.2525859  82.8105943 103.7732062  50.4013177  84.2968475 103.5266084
  44.5364042  81.3090670 118.6098211  45.2463660  80.6683862 118.5684829
  44.4933350  81.5603564 119.5324392  52.5250820  88.2458023 121.5304790
  52.4663367  87.5617243 120.8635373  52.9270339  88.9877013 121.0785416
  43.2492976  78.2955887 120.4293850  42.7130333  77.8446626 121.0815447
  42.6609684  78.4301796 119.6864315  41.5441519  95.0619937 114.3238509
  41.7838117  95.6938461 115.0017528  40.7010716  94.7107977 114.6103868
  42.6595235  77.7544539 102.9920314  41.7824701  77.6333340 102.6282561
  43.1352988  76.9630617 102.7399203  52.5268228  86.2097607 119.7618770
  51.6395006  85.8723529 119.8845169  53.0966779  85.4780638 119.9987535
  34.1797375  82.5421699 113.0861821  34.8668415  82.2283429 112.4982836
  34.0245503  83.4463063 112.8129073  38.9832097  77.4311895 117.5146845
  38.8990286  76.8237565 116.7797255  38.1614803  77.9220913 117.5156341
  46.0569381  90.8699059 116.7280013  45.9839552  91.6754031 117.2399318
  45.6146774  91.0691025 115.9028034  45.8459161  90.1070829 110.2382835
  45.0626683  90.6492509 110.3321059  46.5451906  90.6244809 110.6377076
  49.1555811  75.9165459 112.8817040  49.6524510  75.1635421 112.5618110
  48.3842792  75.9529775 112.3160249  57.0085568  81.6205824 114.5235331
  56.9975444  82.5030540 114.1529265  56.1402948  81.2677375 114.3289868
  48.5168065  90.7685893 118.8838172  49.2296037  91.4033358 118.8114073
  48.0258093  90.8649759 118.0678173  50.2385591  84.6737146 110.4555463
  49.3041870  84.7938608 110.2860168  50.4162260  83.7709613 110.1915473
  45.7390779  78.0582842 112.6088725  45.3688567  77.5053882 113.2969630
  46.2349872  77.4540975 112.0563725  53.6258143  80.5154465 110.9905497
  54.0918595  81.3482457 110.9165800  54.0765643  80.0499447 111.6950756
  43.5679978  88.5180337 119.7043742  44.2689438  89.1516820 119.8573137
  43.0975093  88.8595068 118.9439382  51.6934374  86.8598286 107.9891650
  51.9694218  86.7454881 108.8985524  50.8238873  86.4615771 107.9503823
  51.5974806  72.8835052 115.0296399  50.6837885  73.1139279 115.1978606
  52.0267907  72.9673496 115.8810431  51.3681264  81.0724944 117.5296293
  50.7152714  81.3200852 116.8748746  51.7461644  80.2589082 117.1958770
  48.3288438  91.1084637 111.6324463  48.5110832  90.2906293 112.0952215
  49.1521424  91.3252330 111.1949353  48.6630603  90.0352822 108.8939512
  49.1918370  89.5245277 108.2809674  48.9258823  89.7195353 109.7585045
  47.4168837  81.8144755 124.0162330  46.7409474  81.7138884 124.6864705
  48.2396471  81.6583969 124.4798327  39.1647696  88.0516692 116.6374845
  39.7501133  87.3060380 116.7702749  38.9672535  88.3620648 117.5211509
  42.0186351  91.0867939 111.6537288  41.3496727  91.5714067 111.1701328
  41.8799221  91.3337160 112.5680666  33.7565351  80.6222292 115.3579288
  33.7949450  80.0885883 116.1516406  33.2505644  80.0957497 114.7390265
  46.1591620  93.1211683 118.2519946  46.7109928  93.2843304 119.0169031
  46.4997813  93.7116120 117.5799971  41.1356113  75.4686832 118.8541831
  41.1997440  76.3301663 118.4419228  41.0723233  74.8560834 118.1214189
  40.6108386  77.5409965 122.5014865  41.2380425  77.1587042 123.1152389
  39.7536305  77.3224167 122.8670557  51.0102494  87.9472940 124.1068600
  51.5542398  88.5602898 123.6123555  50.4289339  88.5052519 124.6235613
  37.3873928  79.3486394 108.4333220  37.6827370  78.4397072 108.3800273
  36.4861964  79.3274133 108.1114222  49.2960007  91.0693658 115.2383628
  49.1711147  90.2683398 114.7294574  49.9539098  91.5639851 114.7497598
  40.9168175  77.4242391 114.4160768  40.1954761  78.0378358 114.2768242
  41.7061431  77.9600155 114.3377414  51.3594916  88.8702678 116.8663178
  50.4125251  88.7508029 116.7941505  51.7077689  87.9825176 116.9489440
  43.7194489  74.7596817 120.6901420  44.2428891  75.0059114 121.4527729
  43.5006822  75.5916852 120.2704557  39.1161770  77.0300492 108.5572545
  38.7874476  76.1497871 108.3747651  39.4701141  76.9748160 109.4448934
  48.3641349  88.6655394 113.0667530  48.2166311  87.7372102 113.2475100
  49.1894842  88.6875485 112.5824606  42.2303593  77.3173461 108.9248023
  42.5699666  77.8459383 108.2026631  42.6775714  77.6553868 109.7006589
  51.9675471  89.4883953 114.1532403  52.8922018  89.2826814 114.0156854
  51.7990774  89.2400354 115.0621745  44.9247034  75.7010512 118.3751091
  44.5843854  74.9018325 118.7771770  44.2186040  76.0012223 117.8027924
  45.5763506  72.7859825 116.8278414  46.3989575  72.3120303 116.7057304
  45.8201569  73.5650308 117.3277100  44.2171740  75.8148083 107.1241315
  44.9380103  76.1929336 106.6205032  43.5937044  76.5336960 107.2276293
  48.3602863  76.5193232 108.0599648  48.5766478  77.4017870 107.7588476
  47.8796930  76.1279445 107.3305290  43.1002085  79.4778945 114.6370392
  42.9546665  79.7919248 115.5294674  42.6227288  80.0963846 114.0841291
  44.9598467  76.4681493 114.6851282  44.9460036  75.5722587 114.3483580
  45.6770896  76.4752157 115.3189568  46.8124598  76.9018833 116.7304409
  46.5542376  77.8235904 116.7288740  46.2809639  76.5049268 117.4204873
  51.7570787  90.0069621 109.5094495  51.9307664  89.4416043 108.7568347
  52.2499678  90.8070515 109.3273985  37.5747747  82.0184290 117.5758053
  37.0301215  82.7944098 117.7078328  38.4527097  82.3655094 117.4177175
  44.3635363  75.3495874 109.9538852  44.4851275  74.4212520 110.1529739
  44.0737406  75.3634560 109.0417167  47.2326554  73.0350784 113.0905572
  47.2548251  73.0990117 112.1357551  47.6494613  72.1955293 113.2846078
  57.6110178  82.7706044 111.1284794  58.0541324  82.0213369 110.7303918
  56.7336688  82.7616180 110.7458526  52.7445959  89.3236385 106.6091393
  53.4396864  89.9443078 106.8278708  53.0869110  88.4731736 106.8843771
  38.3613769  81.1454186 120.4688210  37.6195505  81.2936821 121.0552841
  38.0406513  81.4062452 119.6054960  54.6437383  86.7736091 108.1378724
  55.1688707  87.1123363 107.4128044  54.5559735  85.8383106 107.9541858
  46.3057431  90.6870164 120.2668600  46.6144558  90.4419311 121.1391300
  47.1032913  90.8916803 119.7787471  46.3278043  92.8408074 112.4973977
  45.8883034  92.3484452 113.1906834  47.0786160  92.2981041 112.2566052
  38.8070382  89.0319615 112.4998605  39.6328402  88.7323387 112.1197248
  38.4564434  88.2627237 112.9488394  43.7751915  88.3846083 114.5696279
  43.1531925  87.7216788 114.2698506  44.4456782  88.4107215 113.8869926
  37.0078987  86.9505941 113.4587539  36.1710896  86.5228115 113.2771540
  36.9802633  87.1438384 114.3958330  43.8476443  76.8627871 124.1628785
  43.8964598  77.7389994 123.7806554  44.3898957  76.3205264 123.5900428
  54.3331289  87.4068994 123.4429922  53.5426832  87.3893133 122.9034421
  54.0964643  87.9457288 124.1978958  54.4529164  84.2561461 120.7562650
  54.5027169  84.0911468 121.6978173  54.3443087  83.3888720 120.3660531
  43.3365422  86.9350006 108.0454739  43.4853543  87.6185471 107.3921412
  44.1431866  86.9155096 108.5604195  51.7432926  80.2392389 122.0721957
  52.6442789  80.0998853 121.7805955  51.8180901  80.4046843 123.0120134
  46.0775731  77.6159243 120.9175143  45.2079041  77.9092809 120.6457732
  46.3135212  78.1999688 121.6382407  55.9547361  86.6758402 121.0004672
  55.6632169  87.0388383 121.8368133  55.3419492  85.9625410 120.8218004
  57.1543043  84.2411282 113.5207242  57.9889934  84.6801086 113.6844802
  57.2902172  83.7649935 112.7015488  54.2034549  81.7991017 119.4684730
  54.6788670  81.9918663 118.6603581  53.2800114  81.8550203 119.2228113
  41.0918055  82.9615184 109.0515808  40.8464097  82.0577514 109.2496018
  41.2613970  82.9632334 108.1095286  48.7814765  73.8338860 118.4340564
  49.2996709  74.5699887 118.1087052  48.4269898  74.1402854 119.2687323
  40.3613703  78.6943541 106.5501969  39.6682948  78.7687896 105.8942005
  40.1165455  77.9303885 107.0723486  49.0327359  70.2539143 113.9541460
  49.3129113  69.5862332 114.5801887  49.8177966  70.4468238 113.4416124
  46.8360828  89.4298137 105.5166486  46.2634795  90.0488324 105.0636958
  47.4093622  89.9797498 106.0506408  52.9036218  78.6756777 117.7013035
  53.8553641  78.7754874 117.7225259  52.7339668  77.8835045 118.2111120
  50.9250597  75.7612360 117.8872436  50.3300529  76.0417373 117.1918925
  50.6400294  76.2506261 118.6589177  50.0558088  89.7135287 106.6475069
  50.9888761  89.6480848 106.8507944  49.9681301  90.5491554 106.1889601
  52.6846104  89.0301157 103.6079016  52.6059736  88.6961021 104.5014774
  53.5055771  89.5222925 103.6070489  55.3824296  81.8962896 116.8155335
  55.3500616  80.9578897 117.0015019  55.9924919  81.9746933 116.0821160
  47.2207626  80.7658949 102.8582539  48.1666731  80.6365158 102.9270957
  46.8421871  80.0273611 103.3351967  55.5318784  78.6873940 116.8613618
  55.0157833  77.9032397 116.6743547  56.4158733  78.3592657 117.0260138
  53.1929511  72.4314955 112.8209431  52.9954332  72.1230044 113.7052763
  53.8029217  73.1576594 112.9507361  61.2000845  82.9578903 115.9561372
  61.9304234  82.6964191 116.5169075  60.5907791  82.2207625 115.9963440
  59.2816143  81.0986766 116.5535823  58.5549306  80.9642731 115.9452315
  58.8663429  81.4063594 117.3592541  47.1046319  84.8176696 124.3183196
  48.0249328  84.9955295 124.5123242  47.0695902  83.8732741 124.1662895
  45.4050544  78.6908926 102.7937424  44.4981999  78.3942039 102.8700138
  45.6826525  78.3938744 101.9271710  36.3228484  80.0115289 113.2436471
  36.0031268  79.1580597 112.9510845  35.7761912  80.2263867 113.9994438
  40.1008391  82.7277730 116.9605977  40.3194401  83.6594838 116.9794011
  40.5134165  82.3685705 117.7460781  47.0212609  73.2345816 108.9481665
  46.2113338  72.8892901 109.3236912  47.7097026  72.9253359 109.5369277
  48.9503158  72.3123862 110.5705962  49.5034196  72.7319316 111.2295985
  49.1873244  71.3859610 110.6128918  44.9736257  78.3010936 126.3508726
  44.8732984  79.2505293 126.2820817  44.7557799  77.9729175 125.4784796
  44.1749328  75.5495861 102.9349403  45.0368492  75.8750759 103.1945221
  44.3599672  74.7627357 102.4222469  36.1916744  83.6318201 115.2129592
  35.4980215  83.2172154 114.6999547  36.9389735  83.6738737 114.6163011
  52.3281965  74.4224387 110.0784626  51.7480634  75.0809192 109.6962679
  52.0617897  73.6001732 109.6672044  50.7785531  73.8229445 112.2805947
  51.2785309  73.9345980 111.4720266  51.4221139  73.5190498 112.9206755
  44.8367527  81.7308075 125.1673788  44.3534609  82.5308435 125.3737677
  44.9228466  81.7416020 124.2141232  38.1053486  83.5636455 113.0895607
  38.0824175  83.6624142 112.1377490  38.4154123  84.4101605 113.4112773
  40.7640864  85.6212610 117.2042221  41.7184118  85.5896552 117.1372153
  40.5653388  85.1603233 118.0192447  41.3540246  84.1913726 119.7713019
  42.1733135  84.6857804 119.7947856  41.6277054  83.2745694 119.7430587
  51.1106843  76.5824478 109.1340975  50.2232698  76.8674129 108.9161169
  51.5260832  76.4218241 108.2868252  54.4621379  76.6070999 112.8495314
  55.2381769  77.0967451 113.1219931  53.7369513  77.0329053 113.3067183
  56.8993937  77.3198618 113.9069255  57.4938428  77.0794354 113.1962563
  56.9720521  76.6005749 114.5342791  39.1191093  91.1632229 114.2212419
  38.9845561  90.4032630 113.6550417  38.7023155  91.8873129 113.7541208
  50.2550056  86.3469153 103.2288995  50.9585906  86.5519155 103.8446650
  49.5312705  86.9145914 103.4938078  51.0847866  82.0979014 109.3491265
  51.0283068  82.5547565 108.5098897  51.6376209  81.3369698 109.1714108
  54.8952672  77.8868746 110.1741384  54.6389607  77.4865381 111.0049592
  54.2705540  78.6012540 110.0491523  59.2065010  80.6264819 112.6812676
  58.6464568  80.6958008 113.4544238  58.6008514  80.4505804 111.9612172
  42.2760219  92.0601546 114.4330862  42.1592603  93.0046979 114.3309552
  41.4552665  91.7575108 114.8216661  52.1636754  86.7851682 105.2787455
  52.9982357  86.3532880 105.0964929  52.0021096  86.6133695 106.2064349
  51.8182646  83.2883795 106.6443794  51.7631450  83.1228066 105.7032238
  51.1928701  83.9959828 106.8005984  36.6075161  78.5251859 120.4705216
  37.2534024  78.0150813 120.9592441  36.3992312  79.2620541 121.0448641
  49.1328553  85.5932707 125.9697357  50.0019713  85.7673359 125.6083992
  48.6535304  86.4127124 125.8473086  45.1278771  72.7891904 106.2229112
  45.1157441  73.7333744 106.3797383  46.0202193  72.6062049 105.9288574
  43.3014733  92.7129808 117.6486790  44.2041980  92.7453418 117.9653285
  43.0752103  91.7830259 117.6633126  45.0568335  91.4660794 114.3096869
  44.1063966  91.4662656 114.1961241  45.3600821  90.7193529 113.7932904
  48.9430891  69.3834681 110.4775049  48.1763286  68.8293167 110.6231732
  49.3541596  69.4556549 111.3389201  40.9472652  75.6719477 124.5680230
  41.8104113  75.3156281 124.7783555  40.3738062  75.3333371 125.2555635
  60.7921029  97.3021333 115.3742631  61.4299439  97.1828080 114.6705972
  60.6741872  98.2502177 115.4330584  57.6010735  97.2548761 115.3104156
  57.2629246  97.1389826 114.4224691  58.4700503  96.8539926 115.2905162
  53.4597551  99.1084237 111.3001047  52.8962416  99.0174174 110.5317335
  53.3449946  98.2884142 111.7803540  58.0830518  98.4083613 121.2690362
  58.0719159  98.0136411 120.3970865  58.2451157  97.6749685 121.8624133
  51.0061983 100.6035429 114.1385268  51.7983274 100.2626254 113.7231567
  51.2458633 100.7130404 115.0587421  59.0397109 102.7755205 106.6115512
  58.3885089 103.3609285 106.2249526  59.8341472 103.3061400 106.6710549
  52.9652736  99.8644342 107.0102646  53.7383612  99.3173329 106.8715522
  53.3178135 100.7288592 107.2217108  54.8037779 101.1920724 120.2169546
  54.5127645 102.0966355 120.1016212  55.4394763 101.2337252 120.9313615
  55.7293986  98.5697573 116.8070905  56.3257558  98.3453595 116.0927868
  55.7868957  97.8282318 117.4096353  55.3019014  96.0237008 104.6421096
  55.5544535  95.5018530 103.8804559  54.3643573  95.8603154 104.7447780
  60.3462297  95.0272787 112.4495839  61.1325386  94.6092210 112.0986256
  60.6101001  95.9318879 112.6177488  60.5172374 100.4645637 107.1484496
  59.8818207 100.5380264 107.8605401  60.1869781 101.0539236 106.4703576
  65.7470724  94.9648020 113.3528818  66.4795896  94.3947237 113.5866647
  64.9910080  94.5769620 113.7935324  55.0215303  97.9265114 106.8445471
  54.9051561  97.2510018 107.5126556  55.1317563  97.4397488 106.0277624
  57.3646844  97.3875261 110.5492160  57.0005051  96.8605882 111.2605082
  58.2213960  96.9973730 110.3758646  63.2696145  88.6769594 117.8123427
  62.9379469  89.5465005 117.5884642  62.6741758  88.3605878 118.4917457
  57.0052331  92.4165161 105.5453509  57.1726733  93.2845398 105.9123980
  56.8149500  92.5792443 104.6214798  59.7627664 100.8782140 117.2119339
  59.4628387 101.7807179 117.1035147  59.4178724 100.6114323 118.0640492
  53.2140146  97.3295937 113.2456044  52.2890642  97.1972151 113.4533736
  53.4624559  98.1090156 113.7425986  63.1624808  93.3964680 114.8916777
  62.2541685  93.3280089 114.5975538  63.1112404  93.8736625 115.7198602
  56.9841552  94.8722819 106.5300176  56.8641177  95.3179869 107.3685656
  56.2894140  95.2208136 105.9713714  50.5748957  96.9729210 114.0799833
  50.7041338  97.2263689 114.9939245  49.8946408  97.5656918 113.7604488
  54.7448444 107.6426460 110.1790307  54.6672474 108.5934285 110.2578788
  54.1410088 107.2972333 110.8365233  57.2365674  94.8154326 122.8351674
  56.4599008  95.3748246 122.8254539  57.8756237  95.3011109 123.3566544
  65.0286454  91.5981119 116.6694651  64.3860835  91.8913652 116.0234445
  64.5241383  91.4834039 117.4747847  62.6826618  95.3444292 107.3580510
  63.5944474  95.5771679 107.1828207  62.1736265  95.9281336 106.7955588
  55.4912046  97.6239779 122.3969641  56.2326730  98.1624823 122.1204465
  54.7849031  98.2506068 122.5541193  60.9667386  99.7668920 120.9941802
  61.3750742  99.3251330 120.2496435  60.2444647  99.1921547 121.2475995
  57.3198456  94.7041526 118.3675359  58.1659651  95.1280940 118.5110008
  57.2597093  94.0475151 119.0613922  61.2896200 100.3270110 114.7494091
  60.6605063 100.4915824 114.0470159  60.9021862 100.7411720 115.5205055
  65.1685432 101.2624548 112.1038455  64.4836470 101.6423449 111.5535488
  65.2529281 101.8719875 112.8370403  60.4697901  92.3645895 120.0256533
  60.2258833  93.1187955 119.4890809  60.7457832  92.7431242 120.8603780
  62.4236364  98.9084507 118.7033799  62.6353259  99.5516267 118.0268180
  62.3766112  98.0746824 118.2355729  60.0262593  91.5202328 115.6070371
  59.1647072  91.8183581 115.8987108  60.0525027  91.7372727 114.6751403
  56.8424162 100.0644518 112.0144176  57.3062508 100.3432221 111.2248799
  56.5780960  99.1627963 111.8317267  53.7348243  99.6116000 114.9523940
  54.3049600 100.0403268 114.3141424  54.3256355  99.3298585 115.6508125
  55.7793048  96.1867671 108.8233742  56.4817092  96.6388714 109.2907668
  55.4473677  95.5451490 109.4513635  54.2273410  94.7779427 123.1984951
  53.5972070  95.4595708 123.4320348  54.1209498  94.6662509 122.2538089
  49.5218382  94.4451223 114.1250875  48.7317436  94.7008752 113.6490986
  50.0129630  95.2599561 114.2302916  63.5382192 101.7856463 116.8756156
  64.3599635 101.3836650 116.5938838  63.5344595 101.6824697 117.8272272
  51.4733128  94.8095803 111.0834352  50.6764291  94.9214497 111.6017847
  51.2458720  95.1482455 110.2175242  57.3038795 101.3340506 119.0316866
  57.3683228 101.7960913 119.8675038  56.5949719 100.7037871 119.1599176
  47.8056085  94.6981714 116.5565866  48.0564124  95.5828724 116.8223442
  48.3415634  94.5186315 115.7840958  71.6288185  98.1295211 113.2241127
  70.8751893  97.5602609 113.0685132  71.7635726  98.0957876 114.1711762
  57.0186813 103.0008613 108.8995847  56.8832488 103.8460149 109.3280695
  57.5596625 103.2027891 108.1361781  53.5054152  89.0800193 125.5610202
  53.1121098  88.5266392 126.2357846  54.3220293  89.3910772 125.9516719
  50.4716210 100.5184051 109.4723772  50.9840731 101.3127302 109.6229337
  51.1238923  99.8210342 109.4057373  52.2811095 103.6349808 111.5546525
  52.4577723 104.5567772 111.3667509  53.0767928 103.3208227 111.9840905
  56.4222113  90.4958072 123.1530459  57.1631827  91.0965225 123.0734921
  56.6540036  89.7535710 122.5948501  51.5663451  95.6814440 121.4308688
  51.4516967  94.7799697 121.7315787  50.7107969  95.9278136 121.0793505
  58.6455289 103.6232180 123.0296189  58.2019143 102.8368558 122.7117093
  59.3072503 103.8111330 122.3640080  53.4042410 105.1527981 117.5556867
  53.9549836 105.0245045 116.7833861  52.5653886 105.4522870 117.2051760
  60.7436527 103.9034980 121.0577590  60.7255003 104.7243861 120.5657859
  61.6656447 103.7789055 121.2827731  57.2009581 101.4179109 121.9001098
  57.7337918 100.6567397 121.6700406  56.6723663 101.1252761 122.6425253
  60.3679276  86.5239175 117.4294740  60.0243546  87.4140817 117.3533851
  60.7358239  86.3340833 116.5664325  48.4365127  98.8472706 110.2483342
  49.2740349  99.2569714 110.0317050  48.6143395  97.9072148 110.2183536
  60.3329559  96.5147786 105.9367175  59.8176183  97.2852391 106.1755563
  60.0606868  95.8412922 106.5600237  57.9176670  91.3597487 110.9952414
  57.0618266  90.9704337 110.8158052  58.3303622  91.4389448 110.1352199
  59.4475817  88.8943830 115.3943973  58.9440612  88.8573966 114.5811779
  59.7406424  89.8036573 115.4540630  55.6918703  88.9782560 114.4010155
  56.5571699  88.7825369 114.0416045  55.7596212  88.7492912 115.3279512
  65.3063833  99.2680141 107.8720349  64.5293276  98.9291300 107.4275511
  65.9855314  99.2732764 107.1975314  60.1215862  94.3874878 107.7626956
  59.8165998  94.7021028 108.6137100  61.0746304  94.4656298 107.8054289
  58.5662294 100.5465102 109.4119910  58.0383656  99.8117861 109.0993148
  58.0649797 101.3239778 109.1659879  63.5455140  98.7414122 114.5286957
  62.8878815  99.4313384 114.6167085  64.3495539  99.1310554 114.8720943
  53.2981022  91.2084768 111.7726522  53.8724774  90.9859949 111.0399715
  53.8852004  91.2773463 112.5255123  62.3560599  97.0958495 112.5790899
  62.8692481  97.7288487 113.0812608  63.0061823  96.4959690 112.2134259
  53.6250609  93.2389229 105.7922407  52.7887921  93.5763916 106.1131682
  53.4855379  93.1038209 104.8549544  55.6003689  88.0826017 110.5001591
  54.9468102  87.7675034 109.8758206  55.5584164  87.4601757 111.2261414
  56.7114894  98.3645312 102.4154883  55.8041956  98.1334565 102.6146032
  57.2085926  97.5682931 102.6028865  59.6182973 107.0742819 105.3351570
  58.9444672 107.3774516 105.9436527  60.0048795 107.8771900 104.9857027
  58.8341430  94.5707950 114.8249239  57.9163991  94.7922897 114.6670927
  59.2501573  94.6454261 113.9660946  59.6176478  95.9699366 109.9551919
  60.3648297  96.4820763 109.6459041  59.8868067  95.6483419 110.8156313
  57.8903128  98.4657907 106.9378874  56.9814347  98.1816940 107.0351343
  57.9198212  98.8856985 106.0782180  63.1222395 102.0764496 110.7070041
  62.6684722 101.2355406 110.7635232  62.4916362 102.7125895 111.0444821
  62.0655315  93.0056482 111.9370709  61.3278072  92.4933869 112.2680951
  62.3182088  92.5656864 111.1253985  61.5655334 103.9140993 111.6419859
  61.8578309 104.4746050 110.9232225  62.0753955 104.2069554 112.3973018
  62.1666942  85.7832734 112.5312478  62.4725819  84.9230098 112.2438393
  62.8919547  86.3750355 112.3311472  48.4591298  96.1863421 110.9194076
  48.2615698  95.5932782 110.1945142  47.9037962  95.8815631 111.6370015
  56.4388022  96.0786527 113.0388669  56.4936632  95.1260364 112.9631146
  55.6279224  96.2345967 113.5229967  57.5879216 100.0066651 104.2766952
  57.1498645  99.2902509 103.8172590  58.3289656 100.2342765 103.7152044
  54.3780382  94.6963587 110.7979048  53.5648247  94.9957758 111.2044240
  54.8739376  94.3019276 111.5153530  56.5288960 104.6921344 112.7313313
  56.4865138 104.9182190 111.8021845  57.4451658 104.4584719 112.8799114
  59.9754593  95.1605412 119.6293942  60.3303981  95.3876885 120.4888407
  60.6226725  95.4923788 119.0071197  65.7052330  98.2823848 110.3343271
  65.5670229  98.4725444 109.4064460  65.3488549  99.0443230 110.7911322
  53.8694456  92.2681943 116.4140283  54.5093836  92.1270702 115.7163246
  53.0371987  91.9816456 116.0378885  65.7321710 100.3500375 115.3454542
  66.1658217 100.2575664 116.1937596  66.4453291 100.3257875 114.7074558
  54.6454760 101.5684373 112.5275275  55.4395359 101.0734693 112.3257850
  53.9346453 101.0402236 112.1642981  59.4649605 103.9502469 116.8787643
  59.5186627 104.5193405 117.6465359  58.5964386 104.1204354 116.5141680
  50.9537524  95.7127455 108.6035028  50.0235112  95.6511910 108.8204990
  51.0494996  95.1903408 107.8071669  50.8723073  92.2382268 111.1913270
  51.1329890  93.1527601 111.0822430  51.6940245  91.7706710 111.3409882
  52.3447998  93.6520025 118.3612094  53.0171052  93.4437387 117.7124743
  51.5177785  93.4542111 117.9217326  66.5937260 100.3924075 117.8787428
  66.7873150 101.2969886 118.1246703  66.4937878  99.9331494 118.7126013
  58.2473570  90.2781966 120.3777755  57.6001485  90.9771915 120.2842231
  59.0174586  90.7118110 120.7454003  61.6552368 100.5430818 123.4528308
  61.5037875 100.3141370 122.5358392  61.6457048 101.5001419 123.4659653
  58.4237705  98.1162731 118.4374575  59.3529765  98.2673890 118.2643542
  58.0028735  98.2046752 117.5823221  57.2226036 102.1413395 116.2073112
  57.0837122 101.7732180 117.0799050  56.4340633 102.6561035 116.0357070
  57.8174188 107.2422492 107.5498649  57.9925944 106.7710535 108.3644272
  57.1306976 107.8688258 107.7779910  58.7731252 101.5194998 113.5961950
  58.4381084 101.4795768 114.4919600  58.2735197 100.8539714 113.1232360
  52.7475495  96.9262628 119.1214531  52.6095293  96.1942867 119.7226070
  53.6580419  96.8371528 118.8398719  61.7090443  98.8651032 103.8699010
  61.0919614  98.1397860 103.7732062  61.2406932  99.6260392 103.5266084
  55.3757796  96.6382587 118.6098211  56.0857415  95.9975779 118.5684829
  55.3327104  96.8895482 119.5324392  63.3644575 103.5749941 121.5304790
  63.3057121 102.8909161 120.8635373  63.7664093 104.3168931 121.0785416
  54.0886730  93.6247805 120.4293850  53.5524087  93.1738544 121.0815447
  53.5003439  93.7593714 119.6864315  52.3835274 110.3911854 114.3238509
  52.6231872 111.0230379 115.0017528  51.5404470 110.0399894 114.6103868
  53.4988989  93.0836456 102.9920314  52.6218455  92.9625257 102.6282561
  53.9746742  92.2922535 102.7399203  63.3661982 101.5389524 119.7618770
  62.4788761 101.2015446 119.8845169  63.9360533 100.8072556 119.9987535
  45.0191129  97.8713616 113.0861821  45.7062169  97.5575346 112.4982836
  44.8639258  98.7754981 112.8129073  49.8225851  92.7603813 117.5146845
  49.7384040  92.1529482 116.7797255  49.0008558  93.2512831 117.5156341
  56.8963136 106.1990977 116.7280013  56.8233307 107.0045948 117.2399318
  56.4540529 106.3982943 115.9028034  56.6852915 105.4362747 110.2382835
  55.9020437 105.9784427 110.3321059  57.3845660 105.9536726 110.6377076
  59.9949565  91.2457376 112.8817040  60.4918265  90.4927339 112.5618110
  59.2236547  91.2821693 112.3160249  67.8479323  96.9497742 114.5235331
  67.8369199  97.8322457 114.1529265  66.9796702  96.5969293 114.3289868
  59.3561819 106.0977811 118.8838172  60.0689791 106.7325276 118.8114073
  58.8651848 106.1941677 118.0678173  61.0779346 100.0029064 110.4555463
  60.1435625 100.1230526 110.2860168  61.2556014  99.1001530 110.1915473
  56.5784534  93.3874759 112.6088725  56.2082322  92.8345800 113.2969630
  57.0743626  92.7832893 112.0563725  64.4651897  95.8446383 110.9905497
  64.9312349  96.6774374 110.9165800  64.9159398  95.3791364 111.6950756
  54.4073733 103.8472254 119.7043742  55.1083192 104.4808737 119.8573137
  53.9368848 104.1886986 118.9439382  62.5328128 102.1890204 107.9891650
  62.8087972 102.0746799 108.8985524  61.6632627 101.7907689 107.9503823
  62.4368560  88.2126970 115.0296399  61.5231640  88.4431197 115.1978606
  62.8661661  88.2965414 115.8810431  62.2075019  96.4016862 117.5296293
  61.5546469  96.6492769 116.8748746  62.5855398  95.5881000 117.1958770
  59.1682192 106.4376555 111.6324463  59.3504587 105.6198211 112.0952215
  59.9915178 106.6544247 111.1949353  59.5024358 105.3644740 108.8939512
  60.0312124 104.8537195 108.2809674  59.7652577 105.0487270 109.7585045
  58.2562592  97.1436673 124.0162330  57.5803229  97.0430802 124.6864705
  59.0790225  96.9875887 124.4798327  50.0041451 103.3808609 116.6374845
  50.5894887 102.6352297 116.7702749  49.8066289 103.6912566 117.5211509
  52.8580106 106.4159857 111.6537288  52.1890481 106.9005984 111.1701328
  52.7192976 106.6629077 112.5680666  44.5959105  95.9514210 115.3579288
  44.6343205  95.4177800 116.1516406  44.0899398  95.4249415 114.7390265
  56.9985374 108.4503600 118.2519946  57.5503682 108.6135222 119.0169031
  57.3391568 109.0408038 117.5799971  51.9749868  90.7978750 118.8541831
  52.0391194  91.6593581 118.4419228  51.9116988  90.1852752 118.1214189
  51.4502140  92.8701883 122.5014865  52.0774179  92.4878960 123.1152389
  50.5930059  92.6516085 122.8670557  61.8496249 103.2764858 124.1068600
  62.3936153 103.8894816 123.6123555  61.2683094 103.8344436 124.6235613
  48.2267683  94.6778312 108.4333220  48.5221124  93.7688990 108.3800273
  47.3255719  94.6566051 108.1114222  60.1353762 106.3985576 115.2383628
  60.0104901 105.5975316 114.7294574  60.7932853 106.8931769 114.7497598
  51.7561930  92.7534308 114.4160768  51.0348516  93.3670276 114.2768242
  52.5455186  93.2892073 114.3377414  62.1988670 104.1994596 116.8663178
  61.2519006 104.0799947 116.7941505  62.5471443 103.3117094 116.9489440
  54.5588243  90.0888735 120.6901420  55.0822645  90.3351031 121.4527729
  54.3400577  90.9208770 120.2704557  49.9555525  92.3592409 108.5572545
  49.6268231  91.4789788 108.3747651  50.3094895  92.3040078 109.4448934
  59.2035103 103.9947312 113.0667530  59.0560066 103.0664020 113.2475100
  60.0288597 104.0167403 112.5824606  53.0697348  92.6465379 108.9248023
  53.4093420  93.1751300 108.2026631  53.5169468  92.9845785 109.7006589
  62.8069225 104.8175871 114.1532403  63.7315773 104.6118732 114.0156854
  62.6384529 104.5692272 115.0621745  55.7640789  91.0302430 118.3751091
  55.4237609  90.2310243 118.7771770  55.0579795  91.3304141 117.8027924
  56.4157260  88.1151742 116.8278414  57.2383330  87.6412221 116.7057304
  56.6595324  88.8942226 117.3277100  55.0565495  91.1440001 107.1241315
  55.7773857  91.5221254 106.6205032  54.4330799  91.8628878 107.2276293
  59.1996618  91.8485150 108.0599648  59.4160232  92.7309788 107.7588476
  58.7190685  91.4571363 107.3305290  53.9395839  94.8070863 114.6370392
  53.7940420  95.1211166 115.5294674  53.4621043  95.4255763 114.0841291
  55.7992222  91.7973411 114.6851282  55.7853791  90.9014504 114.3483580
  56.5164650  91.8044075 115.3189568  57.6518353  92.2310751 116.7304409
  57.3936131  93.1527822 116.7288740  57.1203393  91.8341186 117.4204873
  62.5964541 105.3361538 109.5094495  62.7701419 104.7707961 108.7568347
  63.0893433 106.1362433 109.3273985  48.4141501  97.3476207 117.5758053
  47.8694969  98.1236015 117.7078328  49.2920851  97.6947012 117.4177175
  55.2029118  90.6787791 109.9538852  55.3245029  89.7504437 110.1529739
  54.9131160  90.6926477 109.0417167  58.0720308  88.3642702 113.0905572
  58.0942005  88.4282035 112.1357551  58.4888367  87.5247210 113.2846078
  68.4503933  98.0997961 111.1284794  68.8935079  97.3505286 110.7303918
  67.5730443  98.0908098 110.7458526  63.5839714 104.6528303 106.6091393
  64.2790619 105.2734995 106.8278708  63.9262864 103.8023654 106.8843771
  49.2007523  96.4746104 120.4688210  48.4589259  96.6228739 121.0552841
  48.8800267  96.7354369 119.6054960  65.4831137 102.1028008 108.1378724
  66.0082461 102.4415281 107.4128044  65.3953490 101.1675024 107.9541858
  57.1451186 106.0162082 120.2668600  57.4538312 105.7711229 121.1391300
  57.9426668 106.2208720 119.7787471  57.1671798 108.1699991 112.4973977
  56.7276788 107.6776370 113.1906834  57.9179915 107.6272959 112.2566052
  49.6464137 104.3611532 112.4998605  50.4722157 104.0615304 112.1197248
  49.2958189 103.5919155 112.9488394  54.6145670 103.7138001 114.5696279
  53.9925679 103.0508706 114.2698506  55.2850537 103.7399132 113.8869926
  47.8472742 102.2797859 113.4587539  47.0104650 101.8520033 113.2771540
  47.8196387 102.4730302 114.3958330  54.6870197  92.1919789 124.1628785
  54.7358353  93.0681911 123.7806554  55.2292712  91.6497182 123.5900428
  65.1725043 102.7360912 123.4429922  64.3820587 102.7185051 122.9034421
  64.9358398 103.2749206 124.1978958  65.2922918  99.5853378 120.7562650
  65.3420923  99.4203386 121.6978173  65.1836842  98.7180637 120.3660531
  54.1759177 102.2641924 108.0454739  54.3247297 102.9477388 107.3921412
  54.9825620 102.2447014 108.5604195  62.5826681  95.5684306 122.0721957
  63.4836543  95.4290771 121.7805955  62.6574655  95.7338761 123.0120134
  56.9169486  92.9451161 120.9175143  56.0472795  93.2384727 120.6457732
  57.1528966  93.5291606 121.6382407  66.7941115 102.0050320 121.0004672
  66.5025923 102.3680300 121.8368133  66.1813246 101.2917328 120.8218004
  67.9936797  99.5703200 113.5207242  68.8283689 100.0093004 113.6844802
  68.1295926  99.0941853 112.7015488  65.0428303  97.1282934 119.4684730
  65.5182425  97.3210581 118.6603581  64.1193869  97.1842120 119.2228113
  51.9311810  98.2907102 109.0515808  51.6857852  97.3869432 109.2496018
  52.1007724  98.2924252 108.1095286  59.6208520  89.1630778 118.4340564
  60.1390464  89.8991805 118.1087052  59.2663652  89.4694771 119.2687323
  51.2007457  94.0235459 106.5501969  50.5076702  94.0979814 105.8942005
  50.9559209  93.2595803 107.0723486  59.8721114  85.5831060 113.9541460
  60.1522868  84.9154250 114.5801887  60.6571721  85.7760156 113.4416124
  57.6754582 104.7590054 105.5166486  57.1028549 105.3780241 105.0636958
  58.2487376 105.3089416 106.0506408  63.7429972  94.0048694 117.7013035
  64.6947395  94.1046792 117.7225259  63.5733423  93.2126963 118.2111120
  61.7644352  91.0904278 117.8872436  61.1694284  91.3709290 117.1918925
  61.4794048  91.5798179 118.6589177  60.8951842 105.0427204 106.6475069
  61.8282515 104.9772766 106.8507944  60.8075055 105.8783471 106.1889601
  63.5239859 104.3593075 103.6079016  63.4453490 104.0252938 104.5014774
  64.3449526 104.8514843 103.6070489  66.2218050  97.2254814 116.8155335
  66.1894370  96.2870815 117.0015019  66.8318674  97.3038851 116.0821160
  58.0601381  96.0950867 102.8582539  59.0060486  95.9657075 102.9270957
  57.6815626  95.3565529 103.3351967  66.3712539  94.0165858 116.8613618
  65.8551587  93.2324314 116.6743547  67.2552487  93.6884574 117.0260138
  64.0323265  87.7606873 112.8209431  63.8348087  87.4521961 113.7052763
  64.6422971  88.4868512 112.9507361  72.0394600  98.2870821 115.9561372
  72.7697988  98.0256109 116.5169075  71.4301545  97.5499543 115.9963440
  70.1209897  96.4278684 116.5535823  69.3943061  96.2934648 115.9452315
  69.7057184  96.7355512 117.3592541  57.9440073 100.1468613 124.3183196
  58.8643083 100.3247212 124.5123242  57.9089656  99.2024659 124.1662895
  56.2444298  94.0200844 102.7937424  55.3375753  93.7233956 102.8700138
  56.5220279  93.7230662 101.9271710  47.1622238  95.3407207 113.2436471
  46.8425023  94.4872515 112.9510845  46.6155667  95.5555785 113.9994438
  50.9402146  98.0569648 116.9605977  51.1588156  98.9886756 116.9794011
  51.3527920  97.6977622 117.7460781  57.8606364  88.5637733 108.9481665
  57.0507092  88.2184818 109.3236912  58.5490781  88.2545277 109.5369277
  59.7896912  87.6415780 110.5705962  60.3427951  88.0611233 111.2295985
  60.0266998  86.7151528 110.6128918  55.8130011  93.6302854 126.3508726
  55.7126738  94.5797211 126.2820817  55.5951553  93.3021093 125.4784796
  55.0143083  90.8787779 102.9349403  55.8762247  91.2042677 103.1945221
  55.1993427  90.0919275 102.4222469  47.0310498  98.9610118 115.2129592
  46.3373970  98.5464071 114.6999547  47.7783489  99.0030655 114.6163011
  63.1675719  89.7516305 110.0784626  62.5874388  90.4101109 109.6962679
  62.9011652  88.9293650 109.6672044  61.6179286  89.1521363 112.2805947
  62.1179064  89.2637897 111.4720266  62.2614893  88.8482416 112.9206755
  55.6761281  97.0599993 125.1673788  55.1928363  97.8600353 125.3737677
  55.7622220  97.0707937 124.2141232  48.9447241  98.8928372 113.0895607
  48.9217929  98.9916059 112.1377490  49.2547877  99.7393523 113.4112773
  51.6034619 100.9504527 117.2042221  52.5577872 100.9188470 117.1372153
  51.4047142 100.4895151 118.0192447  52.1934001  99.5205643 119.7713019
  53.0126890 100.0149722 119.7947856  52.4670809  98.6037611 119.7430587
  61.9500597  91.9116396 109.1340975  61.0626452  92.1966046 108.9161169
  62.3654586  91.7510159 108.2868252  65.3015133  91.9362917 112.8495314
  66.0775523  92.4259369 113.1219931  64.5763267  92.3620971 113.3067183
  67.7387692  92.6490536 113.9069255  68.3332183  92.4086272 113.1962563
  67.8114276  91.9297666 114.5342791  49.9584848 106.4924147 114.2212419
  49.8239316 105.7324548 113.6550417  49.5416910 107.2165047 113.7541208
  61.0943811 101.6761070 103.2288995  61.7979661 101.8811073 103.8446650
  60.3706459 102.2437832 103.4938078  61.9241621  97.4270931 109.3491265
  61.8676822  97.8839483 108.5098897  62.4769963  96.6661616 109.1714108
  65.7346427  93.2160663 110.1741384  65.4783361  92.8157299 111.0049592
  65.1099295  93.9304457 110.0491523  70.0458765  95.9556737 112.6812676
  69.4858323  96.0249926 113.4544238  69.4402268  95.7797721 111.9612172
  53.1153973 107.3893464 114.4330862  52.9986358 108.3338896 114.3309552
  52.2946420 107.0867025 114.8216661  63.0030508 102.1143599 105.2787455
  63.8376112 101.6824798 105.0964929  62.8414851 101.9425613 106.2064349
  62.6576400  98.6175713 106.6443794  62.6025204  98.4519984 105.7032238
  62.0322455  99.3251746 106.8005984  47.4468915  93.8543777 120.4705216
  48.0927779  93.3442731 120.9592441  47.2386066  94.5912459 121.0448641
  59.9722307 100.9224625 125.9697357  60.8413467 101.0965277 125.6083992
  59.4929059 101.7419041 125.8473086  55.9672526  88.1183822 106.2229112
  55.9551195  89.0625662 106.3797383  56.8595948  87.9353967 105.9288574
  54.1408488 108.0421726 117.6486790  55.0435734 108.0745336 117.9653285
  53.9145858 107.1122177 117.6633126  55.8962090 106.7952712 114.3096869
  54.9457721 106.7954574 114.1961241  56.1994576 106.0485447 113.7932904
  59.7824645  84.7126598 110.4775049  59.0157041  84.1585085 110.6231732
  60.1935350  84.7848467 111.3389201  51.7866406  91.0011394 124.5680230
  52.6497868  90.6448199 124.7783555  51.2131817  90.6625289 125.2555635
  71.6314783 112.6313251 115.3742631  72.2693193 112.5119998 114.6705972
  71.5135626 113.5794094 115.4330584  68.4404489 112.5840679 115.3104156
  68.1023001 112.4681743 114.4224691  69.3094258 112.1831844 115.2905162
  64.2991305 114.4376155 111.3001047  63.7356170 114.3466092 110.5317335
  64.1843700 113.6176060 111.7803540  68.9224272 113.7375530 121.2690362
  68.9112913 113.3428329 120.3970865  69.0844912 113.0041603 121.8624133
  61.8455737 115.9327347 114.1385268  62.6377029 115.5918171 113.7231567
  62.0852387 116.0422322 115.0587421  69.8790864 118.1047123 106.6115512
  69.2278844 118.6901203 106.2249526  70.6735227 118.6353318 106.6710549
  63.8046491 115.1936260 107.0102646  64.5777367 114.6465247 106.8715522
  64.1571890 116.0580509 107.2217108  65.6431534 116.5212642 120.2169546
  65.3521400 117.4258273 120.1016212  66.2788518 116.5629170 120.9313615
  66.5687740 113.8989491 116.8070905  67.1651313 113.6745513 116.0927868
  66.6262712 113.1574236 117.4096353  66.1412769 111.3528926 104.6421096
  66.3938289 110.8310447 103.8804559  65.2037328 111.1895071 104.7447780
  71.1856052 110.3564704 112.4495839  71.9719141 109.9384128 112.0986256
  71.4494756 111.2610797 112.6177488  71.3566129 115.7937555 107.1484496
  70.7211962 115.8672181 107.8605401  71.0263535 116.3831154 106.4703576
  65.8609058 113.2557032 106.8445471  65.7445316 112.5801935 107.5126556
  65.9711317 112.7689406 106.0277624  68.2040598 112.7167179 110.5492160
  67.8398806 112.1897800 111.2605082  69.0607714 112.3265648 110.3758646
  74.1089899 104.0061512 117.8123427  73.7773224 104.8756923 117.5884642
  73.5135512 103.6897796 118.4917457  67.8446085 107.7457079 105.5453509
  68.0120488 108.6137315 105.9123980  67.6543255 107.9084360 104.6214798
  70.6021419 116.2074058 117.2119339  70.3022142 117.1099096 117.1035147
  70.2572478 115.9406241 118.0640492  64.0533900 112.6587855 113.2456044
  63.1284397 112.5264069 113.4533736  64.3018313 113.4382074 113.7425986
  74.0018562 108.7256598 114.8916777  73.0935440 108.6572006 114.5975538
  73.9506158 109.2028543 115.7198602  67.8235306 110.2014736 106.5300176
  67.7034932 110.6471787 107.3685656  67.1287895 110.5500054 105.9713714
  61.4142711 112.3021128 114.0799833  61.5435092 112.5555607 114.9939245
  60.7340162 112.8948836 113.7604488  65.5842198 122.9718378 110.1790307
  65.5066228 123.9226203 110.2578788  64.9803842 122.6264251 110.8365233
  68.0759428 110.1446243 122.8351674  67.2992762 110.7040164 122.8254539
  68.7149991 110.6303026 123.3566544  66.3305800 112.9531697 122.3969641
  67.0720485 113.4916741 122.1204465  65.6242786 113.5797986 122.5541193
  71.8061140 115.0960837 120.9941802  72.2144496 114.6543248 120.2496435
  71.0838402 114.5213465 121.2475995  68.1592210 110.0333444 118.3675359
  69.0053405 110.4572858 118.5110008  68.0990848 109.3767068 119.0613922
  72.1289955 115.6562028 114.7494091  71.4998817 115.8207742 114.0470159
  71.7415617 116.0703637 115.5205055  76.0079187 116.5916466 112.1038455
  75.3230225 116.9715367 111.5535488  76.0923036 117.2011792 112.8370403
  71.3091656 107.6937812 120.0256533  71.0652587 108.4479873 119.4890809
  71.5851586 108.0723160 120.8603780  73.2630118 114.2376425 118.7033799
  73.4747014 114.8808185 118.0268180  73.2159867 113.4038741 118.2355729
  70.8656347 106.8494245 115.6070371  70.0040826 107.1475499 115.8987108
  70.8918782 107.0664644 114.6751403  67.6817917 115.3936436 112.0144176
  68.1456262 115.6724139 111.2248799  67.4174715 114.4919881 111.8317267
  64.5741998 114.9407918 114.9523940  65.1443355 115.3695186 114.3141424
  65.1650110 114.6590502 115.6508125  66.6186803 111.5159588 108.8233742
  67.3210846 111.9680632 109.2907668  66.2867431 110.8743407 109.4513635
  65.0667164 110.1071345 123.1984951  64.4365825 110.7887626 123.4320348
  64.9603252 109.9954427 122.2538089  60.3612137 109.7743141 114.1250875
  59.5711191 110.0300670 113.6490986  60.8523384 110.5891479 114.2302916
  74.3775946 117.1148380 116.8756156  75.1993390 116.7128567 116.5938838
  74.3738349 117.0116614 117.8272272  62.3126882 110.1387720 111.0834352
  61.5158045 110.2506415 111.6017847  62.0852474 110.4774373 110.2175242
  68.1432550 116.6632424 119.0316866  68.2076982 117.1252831 119.8675038
  67.4343474 116.0329788 119.1599176  58.6449840 110.0273631 116.5565866
  58.8957878 110.9120641 116.8223442  59.1809388 109.8478233 115.7840958
  67.8580567 118.3300531 108.8995847  67.7226242 119.1752067 109.3280695
  68.3990380 118.5319809 108.1361781  64.3447907 104.4092111 125.5610202
  63.9514853 103.8558309 126.2357846  65.1614047 104.7202689 125.9516719
  61.3109965 115.8475969 109.4723772  61.8234485 116.6419219 109.6229337
  61.9632678 115.1502259 109.4057373  63.1204849 118.9641725 111.5546525
  63.2971478 119.8859690 111.3667509  63.9161683 118.6500145 111.9840905
  67.2615868 105.8249990 123.1530459  68.0025581 106.4257143 123.0734921
  67.4933791 105.0827628 122.5948501  62.4057206 111.0106357 121.4308688
  62.2910721 110.1091614 121.7315787  61.5501724 111.2570054 121.0793505
  69.4849044 118.9524098 123.0296189  69.0412898 118.1660476 122.7117093
  70.1466257 119.1403248 122.3640080  64.2436165 120.4819899 117.5556867
  64.7943590 120.3536962 116.7833861  63.4047641 120.7814788 117.2051760
  71.5830282 119.2326897 121.0577590  71.5648757 120.0535778 120.5657859
  72.5050202 119.1080973 121.2827731  68.0403336 116.7471027 121.9001098
  68.5731673 115.9859315 121.6700406  67.5117417 116.4544679 122.6425253
  71.2073031 101.8531093 117.4294740  70.8637300 102.7432735 117.3533851
  71.5751993 101.6632751 116.5664325  59.2758881 114.1764623 110.2483342
  60.1134104 114.5861632 110.0317050  59.4537149 113.2364065 110.2183536
  71.1723314 111.8439704 105.9367175  70.6569937 112.6144309 106.1755563
  70.9000622 111.1704840 106.5600237  68.7570425 106.6889405 110.9952414
  67.9012021 106.2996255 110.8158052  69.1697376 106.7681366 110.1352199
  70.2869571 104.2235748 115.3943973  69.7834367 104.1865883 114.5811779
  70.5800178 105.1328491 115.4540630  66.5312457 104.3074478 114.4010155
  67.3965454 104.1117286 114.0416045  66.5989966 104.0784830 115.3279512
  70.9609617 109.7166796 107.7626956  70.6559752 110.0312945 108.6137100
  71.9140059 109.7948216 107.8054289  69.4056049 115.8757019 109.4119910
  68.8777410 115.1409779 109.0993148  68.9043551 116.6531696 109.1659879
  74.3848895 114.0706040 114.5286957  73.7272569 114.7605301 114.6167085
  75.1889294 114.4602472 114.8720943  64.1374776 106.5376686 111.7726522
  64.7118528 106.3151867 111.0399715  64.7245759 106.6065380 112.5255123
  73.1954353 112.4250413 112.5790899  73.7086235 113.0580404 113.0812608
  73.8455577 111.8251608 112.2134259  64.4644363 108.5681147 105.7922407
  63.6281676 108.9055833 106.1131682  64.3249133 108.4330126 104.8549544
  66.4397444 103.4117935 110.5001591  65.7861856 103.0966952 109.8758206
  66.3977918 102.7893675 111.2261414  67.5508649 113.6937230 102.4154883
  66.6435711 113.4626483 102.6146032  68.0479681 112.8974849 102.6028865
  70.4576728 122.4034737 105.3351570  69.7838426 122.7066434 105.9436527
  70.8442550 123.2063817 104.9857027  69.6735184 109.8999868 114.8249239
  68.7557746 110.1214815 114.6670927  70.0895328 109.9746179 113.9660946
  70.4570232 111.2991284 109.9551919  71.2042051 111.8112681 109.6459041
  70.7261822 110.9775337 110.8156313  68.7296882 113.7949825 106.9378874
  67.8208102 113.5108857 107.0351343  68.7591966 114.2148903 106.0782180
  73.9616150 117.4056414 110.7070041  73.5078477 116.5647324 110.7635232
  73.3310116 118.0417812 111.0444821  72.9049069 108.3348400 111.9370709
  72.1671826 107.8225786 112.2680951  73.1575843 107.8948782 111.1253985
  72.4049089 119.2432911 111.6419859  72.6972063 119.8037968 110.9232225
  72.9147709 119.5361472 112.3973018  73.0060697 101.1124652 112.5312478
  73.3119573 100.2522015 112.2438393  73.7313301 101.7042272 112.3311472
  59.2985053 111.5155339 110.9194076  59.1009452 110.9224699 110.1945142
  58.7431717 111.2107549 111.6370015  67.2781776 111.4078445 113.0388669
  67.3330386 110.4552282 112.9631146  66.4672978 111.5637884 113.5229967
  68.4272970 115.3358568 104.2766952  67.9892400 114.6194427 103.8172590
  69.1683411 115.5634683 103.7152044  65.2174136 110.0255505 110.7979048
  64.4042002 110.3249675 111.2044240  65.7133130 109.6311194 111.5153530
  67.3682714 120.0213262 112.7313313  67.3258893 120.2474108 111.8021845
  68.2845413 119.7876636 112.8799114  70.8148348 110.4897329 119.6293942
  71.1697736 110.7168802 120.4888407  71.4620479 110.8215706 119.0071197
  64.7088211 107.5973860 116.4140283  65.3487590 107.4562619 115.7163246
  63.8765742 107.3108374 116.0378885  76.5715464 115.6792292 115.3454542
  77.0051971 115.5867581 116.1937596  77.2847045 115.6549793 114.7074558
  65.4848515 116.8976291 112.5275275  66.2789113 116.4026611 112.3257850
  64.7740207 116.3694154 112.1642981  70.3043359 119.2794386 116.8787643
  70.3580382 119.8485323 117.6465359  69.4358141 119.4496271 116.5141680
  61.7931278 111.0419373 108.6035028  60.8628866 110.9803828 108.8204990
  61.8888750 110.5195325 107.8071669  61.7116827 107.5674185 111.1913270
  61.9723645 108.4819519 111.0822430  62.5334000 107.0998628 111.3409882
  63.1841753 108.9811943 118.3612094  63.8564806 108.7729305 117.7124743
  62.3571539 108.7834029 117.9217326  77.4331014 115.7215993 117.8787428
  77.6266904 116.6261803 118.1246703  77.3331632 115.2623412 118.7126013
  69.0867325 105.6073883 120.3777755  68.4395240 106.3063833 120.2842231
  69.8568340 106.0410027 120.7454003  72.4946123 115.8722736 123.4528308
  72.3431629 115.6433287 122.5358392  72.4850802 116.8293337 123.4659653
  69.2631459 113.4454648 118.4374575  70.1923519 113.5965808 118.2643542
  68.8422489 113.5338669 117.5823221  68.0619791 117.4705313 116.2073112
  67.9230877 117.1024097 117.0799050  67.2734387 117.9852952 116.0357070
  68.6567943 122.5714409 107.5498649  68.8319699 122.1002452 108.3644272
  67.9700731 123.1980175 107.7779910  69.6125006 116.8486915 113.5961950
  69.2774839 116.8087685 114.4919600  69.1128952 116.1831631 113.1232360
  63.5869250 112.2554546 119.1214531  63.4489048 111.5234784 119.7226070
  64.4974173 112.1663446 118.8398719  66.2151551 111.9674505 118.6098211
  66.9251169 111.3267697 118.5684829  66.1720859 112.2187400 119.5324392
  74.2038329 118.9041858 121.5304790  74.1450875 118.2201078 120.8635373
  74.6057848 119.6460848 121.0785416  64.9280485 108.9539723 120.4293850
  64.3917842 108.5030461 121.0815447  64.3397193 109.0885632 119.6864315
  63.2229028 125.7203772 114.3238509  63.4625626 126.3522296 115.0017528
  62.3798225 125.3691812 114.6103868  64.3382744 108.4128374 102.9920314
  63.4612210 108.2917175 102.6282561  64.8140497 107.6214452 102.7399203
  74.2055737 116.8681442 119.7618770  73.3182515 116.5307364 119.8845169
  74.7754288 116.1364473 119.9987535  55.8584884 113.2005534 113.0861821
  56.5455924 112.8867264 112.4982836  55.7033012 114.1046899 112.8129073
  60.6619606 108.0895730 117.5146845  60.5777795 107.4821400 116.7797255
  59.8402312 108.5804749 117.5156341  67.7356890 121.5282894 116.7280013
  67.6627061 122.3337866 117.2399318  67.2934283 121.7274860 115.9028034
  67.5246670 120.7654665 110.2382835  66.7414192 121.3076345 110.3321059
  68.2239415 121.2828644 110.6377076  70.8343320 106.5749294 112.8817040
  71.3312019 105.8219256 112.5618110  70.0630301 106.6113611 112.3160249
  70.1955574 121.4269729 118.8838172  70.9083546 122.0617193 118.8114073
  69.7045602 121.5233595 118.0678173  71.9173100 115.3320981 110.4555463
  70.9829379 115.4522444 110.2860168  72.0949769 114.4293448 110.1915473
  67.4178288 108.7166677 112.6088725  67.0476076 108.1637717 113.2969630
  67.9137381 108.1124810 112.0563725  75.3045652 111.1738300 110.9905497
  75.7706104 112.0066292 110.9165800  75.7553152 110.7083282 111.6950756
  65.2467487 119.1764172 119.7043742  65.9476947 119.8100655 119.8573137
  64.7762602 119.5178904 118.9439382  73.3721883 117.5182122 107.9891650
  73.6481727 117.4038716 108.8985524  72.5026382 117.1199607 107.9503823
  73.2762315 103.5418887 115.0296399  72.3625394 103.7723114 115.1978606
  73.7055416 103.6257332 115.8810431  73.0468773 111.7308779 117.5296293
  72.3940223 111.9784687 116.8748746  73.4249153 110.9172918 117.1958770
  70.0075947 121.7668473 111.6324463  70.1898341 120.9490129 112.0952215
  70.8308933 121.9836165 111.1949353  70.3418112 120.6936658 108.8939512
  70.8705879 120.1829112 108.2809674  70.6046332 120.3779188 109.7585045
  69.0956346 112.4728590 124.0162330  68.4196983 112.3722720 124.6864705
  69.9183980 112.3167804 124.4798327  60.8435205 118.7100527 116.6374845
  61.4288642 117.9644215 116.7702749  60.6460044 119.0204484 117.5211509
  63.6973860 121.7451774 111.6537288  63.0284236 122.2297902 111.1701328
  63.5586730 121.9920995 112.5680666  55.4352860 111.2806127 115.3579288
  55.4736959 110.7469718 116.1516406  54.9293153 110.7541333 114.7390265
  67.8379129 123.7795518 118.2519946  68.3897437 123.9427139 119.0169031
  68.1785322 124.3699956 117.5799971  62.8143622 106.1270668 118.8541831
  62.8784949 106.9885499 118.4419228  62.7510742 105.5144669 118.1214189
  62.2895895 108.1993800 122.5014865  62.9167933 107.8170878 123.1152389
  61.4323814 107.9808002 122.8670557  72.6890003 118.6056775 124.1068600
  73.2329907 119.2186734 123.6123555  72.1076848 119.1636354 124.6235613
  59.0661437 110.0070229 108.4333220  59.3614879 109.0980908 108.3800273
  58.1649473 109.9857969 108.1114222  70.9747516 121.7277493 115.2383628
  70.8498656 120.9267233 114.7294574  71.6326607 122.2223687 114.7497598
  62.5955684 108.0826226 114.4160768  61.8742270 108.6962194 114.2768242
  63.3848940 108.6183991 114.3377414  73.0382425 119.5286514 116.8663178
  72.0912760 119.4091865 116.7941505  73.3865198 118.6409012 116.9489440
  65.3981998 105.4180652 120.6901420  65.9216400 105.6642949 121.4527729
  65.1794331 106.2500687 120.2704557  60.7949279 107.6884327 108.5572545
  60.4661985 106.8081706 108.3747651  61.1488650 107.6331996 109.4448934
  70.0428858 119.3239230 113.0667530  69.8953820 118.3955937 113.2475100
  70.8682351 119.3459320 112.5824606  63.9091102 107.9757297 108.9248023
  64.2487175 108.5043218 108.2026631  64.3563223 108.3137703 109.7006589
  73.6462980 120.1467788 114.1532403  74.5709527 119.9410650 114.0156854
  73.4778283 119.8984190 115.0621745  66.6034543 106.3594348 118.3751091
  66.2631363 105.5602161 118.7771770  65.8973549 106.6596058 117.8027924
  67.2551015 103.4443660 116.8278414  68.0777084 102.9704138 116.7057304
  67.4989078 104.2234144 117.3277100  65.8959249 106.4731918 107.1241315
  66.6167612 106.8513171 106.6205032  65.2724553 107.1920795 107.2276293
  70.0390372 107.1777067 108.0599648  70.2553987 108.0601705 107.7588476
  69.5584439 106.7863281 107.3305290  64.7789594 110.1362781 114.6370392
  64.6334174 110.4503084 115.5294674  64.3014797 110.7547681 114.0841291
  66.6385976 107.1265329 114.6851282  66.6247545 106.2306422 114.3483580
  67.3558405 107.1335992 115.3189568  68.4912107 107.5602669 116.7304409
  68.2329885 108.4819739 116.7288740  67.9597148 107.1633103 117.4204873
  73.4358296 120.6653456 109.5094495  73.6095173 120.0999878 108.7568347
  73.9287187 121.4654351 109.3273985  59.2535256 112.6768125 117.5758053
  58.7088724 113.4527933 117.7078328  60.1314606 113.0238930 117.4177175
  66.0422872 106.0079709 109.9538852  66.1638784 105.0796355 110.1529739
  65.7524915 106.0218395 109.0417167  68.9114063 103.6934619 113.0905572
  68.9335760 103.7573952 112.1357551  69.3282122 102.8539128 113.2846078
  74.4233468 119.9820220 106.6091393  75.1184373 120.6026913 106.8278708
  74.7656619 119.1315572 106.8843771  60.0401278 111.8038021 120.4688210
  59.2983014 111.9520657 121.0552841  59.7194022 112.0646287 119.6054960
  76.3224892 117.4319926 108.1378724  76.8476216 117.7707199 107.4128044
  76.2347244 116.4966941 107.9541858  67.9844940 121.3454000 120.2668600
  68.2932067 121.1003146 121.1391300  68.7820422 121.5500638 119.7787471
  68.0065552 123.4991909 112.4973977  67.5670543 123.0068288 113.1906834
  68.7573669 122.9564877 112.2566052  60.4857891 119.6903450 112.4998605
  61.3115911 119.3907222 112.1197248  60.1351943 118.9211072 112.9488394
  65.4539424 119.0429918 114.5696279  64.8319434 118.3800623 114.2698506
  66.1244291 119.0691050 113.8869926  58.6866496 117.6089776 113.4587539
  57.8498405 117.1811951 113.2771540  58.6590142 117.8022220 114.3958330
  65.5263952 107.5211706 124.1628785  65.5752107 108.3973829 123.7806554
  66.0686466 106.9789099 123.5900428  76.0118798 118.0652830 123.4429922
  75.2214341 118.0476968 122.9034421  75.7752152 118.6041123 124.1978958
  76.1316673 114.9145296 120.7562650  76.1814678 114.7495303 121.6978173
  76.0230596 114.0472555 120.3660531  65.0152931 117.5933842 108.0454739
  65.1641052 118.2769306 107.3921412  65.8219375 117.5738932 108.5604195
  73.4220435 110.8976224 122.0721957  74.3230298 110.7582689 121.7805955
  73.4968410 111.0630679 123.0120134  67.7563240 108.2743079 120.9175143
  66.8866550 108.5676645 120.6457732  67.9922721 108.8583524 121.6382407
  77.6334869 117.3342237 121.0004672  77.3419678 117.6972218 121.8368133
  77.0207001 116.6209246 120.8218004  75.8822058 112.4574852 119.4684730
  76.3576179 112.6502498 118.6603581  74.9587623 112.5134038 119.2228113
  62.7705564 113.6199019 109.0515808  62.5251606 112.7161349 109.2496018
  62.9401479 113.6216170 108.1095286  70.4602274 104.4922696 118.4340564
  70.9784218 105.2283723 118.1087052  70.1057407 104.7986689 119.2687323
  62.0401212 109.3527377 106.5501969  61.3470457 109.4271732 105.8942005
  61.7952964 108.5887720 107.0723486  70.7114868 100.9122978 113.9541460
  70.9916622 100.2446167 114.5801887  71.4965475 101.1052074 113.4416124
  68.5148337 120.0881972 105.5166486  67.9422304 120.7072159 105.0636958
  69.0881131 120.6381334 106.0506408  74.5823727 109.3340612 117.7013035
  75.5341150 109.4338710 117.7225259  74.4127177 108.5418881 118.2111120
  72.6038106 106.4196195 117.8872436  72.0088038 106.7001208 117.1918925
  72.3187803 106.9090096 118.6589177  71.7345597 120.3719122 106.6475069
  72.6676270 120.3064684 106.8507944  71.6468809 121.2075389 106.1889601
  74.3633613 119.6884993 103.6079016  74.2847245 119.3544856 104.5014774
  75.1843280 120.1806760 103.6070489  77.0611805 112.5546732 116.8155335
  77.0288125 111.6162733 117.0015019  77.6712428 112.6330769 116.0821160
  68.8995135 111.4242785 102.8582539  69.8454240 111.2948993 102.9270957
  68.5209380 110.6857447 103.3351967  74.8717020 103.0898791 112.8209431
  74.6741841 102.7813879 113.7052763  75.4816725 103.8160430 112.9507361
  68.7833828 115.4760531 124.3183196  69.7036837 115.6539130 124.5123242
  68.7483411 114.5316576 124.1662895  67.0838053 109.3492761 102.7937424
  66.1769508 109.0525874 102.8700138  67.3614034 109.0522579 101.9271710
  58.0015993 110.6699125 113.2436471  57.6818777 109.8164433 112.9510845
  57.4549421 110.8847703 113.9994438  61.7795900 113.3861566 116.9605977
  61.9981910 114.3178673 116.9794011  62.1921674 113.0269540 117.7460781
  68.7000118 103.8929651 108.9481665  67.8900847 103.5476736 109.3236912
  69.3884535 103.5837195 109.5369277  70.6290667 102.9707698 110.5705962
  71.1821705 103.3903151 111.2295985  70.8660753 102.0443446 110.6128918
  66.6523766 108.9594771 126.3508726  66.5520493 109.9089128 126.2820817
  66.4345308 108.6313010 125.4784796  65.8536837 106.2079696 102.9349403
  66.7156001 106.5334595 103.1945221  66.0387181 105.4211192 102.4222469
  57.8704253 114.2902036 115.2129592  57.1767724 113.8755989 114.6999547
  58.6177244 114.3322573 114.6163011  74.0069474 105.0808223 110.0784626
  73.4268143 105.7393027 109.6962679  73.7405406 104.2585567 109.6672044
  72.4573040 104.4813281 112.2805947  72.9572818 104.5929815 111.4720266
  73.1008648 104.1774333 112.9206755  66.5155036 112.3891910 125.1673788
  66.0322118 113.1892270 125.3737677  66.6015975 112.3999855 124.2141232
  59.7840995 114.2220290 113.0895607  59.7611684 114.3207977 112.1377490
  60.0941632 115.0685441 113.4112773  62.4428373 116.2796445 117.2042221
  63.3971627 116.2480387 117.1372153  62.2440897 115.8187069 118.0192447
  63.0327755 114.8497561 119.7713019  63.8520644 115.3441640 119.7947856
  63.3064563 113.9329529 119.7430587  72.7894352 107.2408313 109.1340975
  71.9020207 107.5257964 108.9161169  73.2048341 107.0802077 108.2868252
  60.7978602 121.8216064 114.2212419  60.6633070 121.0616465 113.6550417
  60.3810664 122.5456964 113.7541208  71.9337565 117.0052988 103.2288995
  72.6373415 117.2102990 103.8446650  71.2100214 117.5729750 103.4938078
  72.7635375 112.7562849 109.3491265  72.7070577 113.2131401 108.5098897
  73.3163718 111.9953534 109.1714108  63.9547728 122.7185381 114.4330862
  63.8380112 123.6630814 114.3309552  63.1340174 122.4158943 114.8216661
  73.8424263 117.4435517 105.2787455  74.6769866 117.0116716 105.0964929
  73.6808605 117.2717531 106.2064349  73.4970155 113.9467630 106.6443794
  73.4418958 113.7811902 105.7032238  72.8716210 114.6543663 106.8005984
  58.2862670 109.1835695 120.4705216  58.9321533 108.6734649 120.9592441
  58.0779821 109.9204376 121.0448641  70.8116062 116.2516542 125.9697357
  71.6807222 116.4257195 125.6083992  70.3322813 117.0710959 125.8473086
  66.8066280 103.4475739 106.2229112  66.7944950 104.3917579 106.3797383
  67.6989702 103.2645885 105.9288574  64.9802242 123.3713643 117.6486790
  65.8829489 123.4037254 117.9653285  64.7539612 122.4414094 117.6633126
  66.7355844 122.1244630 114.3096869  65.7851475 122.1246491 114.1961241
  67.0388330 121.3777364 113.7932904  62.6260161 106.3303312 124.5680230
  63.4891622 105.9740117 124.7783555  62.0525571 105.9917207 125.2555635
  82.4708538 127.9605168 115.3742631  83.1086948 127.8411916 114.6705972
  82.3529380 128.9086012 115.4330584  79.2798244 127.9132596 115.3104156
  78.9416755 127.7973661 114.4224691  80.1488012 127.5123761 115.2905162
  75.1385060 129.7668073 111.3001047  74.5749925 129.6758010 110.5317335
  75.0237455 128.9467977 111.7803540  79.7618027 129.0667448 121.2690362
  79.7506668 128.6720246 120.3970865  79.9238666 128.3333521 121.8624133
  72.6849492 131.2619264 114.1385268  73.4770783 130.9210089 113.7231567
  72.9246142 131.3714239 115.0587421  74.6440245 130.5228178 107.0102646
  75.4171121 129.9757165 106.8715522  74.9965644 131.3872427 107.2217108
  76.4825288 131.8504560 120.2169546  76.1915154 132.7550191 120.1016212
  77.1182272 131.8921087 120.9313615  77.4081495 129.2281408 116.8070905
  78.0045067 129.0037431 116.0927868  77.4656466 128.4866154 117.4096353
  76.7002812 128.5848950 106.8445471  76.5839070 127.9093853 107.5126556
  76.8105072 128.0981324 106.0277624  79.0434353 128.0459097 110.5492160
  78.6792560 127.5189718 111.2605082  79.9001469 127.6557566 110.3758646
  84.9483654 119.3353429 117.8123427  84.6166978 120.2048840 117.5884642
  84.3529267 119.0189713 118.4917457  74.8927655 127.9879772 113.2456044
  73.9678151 127.8555986 113.4533736  75.1412068 128.7673991 113.7425986
  84.8412317 124.0548516 114.8916777  83.9329194 123.9863924 114.5975538
  84.7899913 124.5320460 115.7198602  78.6629061 125.5306654 106.5300176
  78.5428686 125.9763705 107.3685656  77.9681649 125.8791972 105.9713714
  72.2536466 127.6313046 114.0799833  72.3828847 127.8847525 114.9939245
  71.5733917 128.2240754 113.7604488  76.4235953 138.3010296 110.1790307
  76.3459983 139.2518121 110.2578788  75.8197596 137.9556168 110.8365233
  78.9153183 125.4738161 122.8351674  78.1386517 126.0332081 122.8254539
  79.5543746 125.9594944 123.3566544  86.7073963 122.2564954 116.6694651
  86.0648344 122.5497487 116.0234445  86.2028892 122.1417874 117.4747847
  77.1699555 128.2823615 122.3969641  77.9114239 128.8208658 122.1204465
  76.4636540 128.9089903 122.5541193  82.6454895 130.4252755 120.9941802
  83.0538251 129.9835165 120.2496435  81.9232156 129.8505382 121.2475995
  78.9985965 125.3625362 118.3675359  79.8447160 125.7864775 118.5110008
  78.9384602 124.7058986 119.0613922  82.1485410 123.0229730 120.0256533
  81.9046342 123.7771791 119.4890809  82.4245341 123.4015078 120.8603780
  84.1023873 129.5668342 118.7033799  84.3140768 130.2100102 118.0268180
  84.0553621 128.7330659 118.2355729  81.7050102 122.1786163 115.6070371
  80.8434581 122.4767417 115.8987108  81.7312536 122.3956562 114.6751403
  78.5211671 130.7228354 112.0144176  78.9850017 131.0016057 111.2248799
  78.2568469 129.8211798 111.8317267  75.4135752 130.2699835 114.9523940
  75.9837109 130.6987104 114.3141424  76.0043864 129.9882420 115.6508125
  77.4580557 126.8451506 108.8233742  78.1604601 127.2972550 109.2907668
  77.1261186 126.2035325 109.4513635  75.9060919 125.4363263 123.1984951
  75.2759579 126.1179544 123.4320348  75.7997007 125.3246344 122.2538089
  71.2005891 125.1035059 114.1250875  70.4104945 125.3592587 113.6490986
  71.6917139 125.9183397 114.2302916  73.1520637 125.4679638 111.0834352
  72.3551800 125.5798332 111.6017847  72.9246229 125.8066290 110.2175242
  78.9826304 131.9924341 119.0316866  79.0470737 132.4544748 119.8675038
  78.2737228 131.3621706 119.1599176  69.4843594 125.3565549 116.5565866
  69.7351633 126.2412559 116.8223442  70.0203143 125.1770151 115.7840958
  93.3075694 128.7879046 113.2241127  92.5539402 128.2186444 113.0685132
  93.4423235 128.7541711 114.1711762  78.6974322 133.6592449 108.8995847
  78.5619997 134.5043984 109.3280695  79.2384134 133.8611726 108.1361781
  75.1841661 119.7384029 125.5610202  74.7908607 119.1850227 126.2357846
  76.0007802 120.0494607 125.9516719  72.1503719 131.1767887 109.4723772
  72.6628240 131.9711137 109.6229337  72.8026432 130.4794177 109.4057373
  73.9598604 134.2933643 111.5546525  74.1365232 135.2151608 111.3667509
  74.7555437 133.9792062 111.9840905  78.1009622 121.1541908 123.1530459
  78.8419336 121.7549061 123.0734921  78.3327545 120.4119545 122.5948501
  73.2450960 126.3398275 121.4308688  73.1304476 125.4383532 121.7315787
  72.3895478 126.5861972 121.0793505  80.3242798 134.2816015 123.0296189
  79.8806652 133.4952394 122.7117093  80.9860012 134.4695166 122.3640080
  75.0829919 135.8111817 117.5556867  75.6337344 135.6828880 116.7833861
  74.2441395 136.1106706 117.2051760  82.4224036 134.5618815 121.0577590
  82.4042512 135.3827696 120.5657859  83.3443956 134.4372890 121.2827731
  78.8797090 132.0762945 121.9001098  79.4125427 131.3151233 121.6700406
  78.3511172 131.7836596 122.6425253  82.0466785 117.1823011 117.4294740
  81.7031055 118.0724652 117.3533851  82.4145748 116.9924668 116.5664325
  70.1152636 129.5056541 110.2483342  70.9527858 129.9153549 110.0317050
  70.2930904 128.5655983 110.2183536  79.5964179 122.0181322 110.9952414
  78.7405775 121.6288173 110.8158052  80.0091131 122.0973283 110.1352199
  81.1263326 119.5527666 115.3943973  80.6228121 119.5157801 114.5811779
  81.4193933 120.4620408 115.4540630  77.3706212 119.6366395 114.4010155
  78.2359208 119.4409204 114.0416045  77.4383721 119.4076747 115.3279512
  80.2449803 131.2048937 109.4119910  79.7171165 130.4701697 109.0993148
  79.7437306 131.9823613 109.1659879  74.9768531 121.8668603 111.7726522
  75.5512283 121.6443785 111.0399715  75.5639513 121.9357298 112.5255123
  75.3038118 123.8973064 105.7922407  74.4675430 124.2347751 106.1131682
  75.1642887 123.7622044 104.8549544  81.2970482 137.7326655 105.3351570
  80.6232181 138.0358351 105.9436527  81.6836304 138.5355735 104.9857027
  80.5128939 125.2291786 114.8249239  79.5951500 125.4506733 114.6670927
  80.9289082 125.3038096 113.9660946  70.1378807 126.8447256 110.9194076
  69.9403207 126.2516617 110.1945142  69.5825471 126.5399467 111.6370015
  78.1175531 126.7370363 113.0388669  78.1724141 125.7844199 112.9631146
  77.3066733 126.8929802 113.5229967  76.0567891 125.3547423 110.7979048
  75.2435756 125.6541593 111.2044240  76.5526885 124.9603111 111.5153530
  78.2076469 135.3505179 112.7313313  78.1652647 135.5766026 111.8021845
  79.1239167 135.1168554 112.8799114  81.6542102 125.8189247 119.6293942
  82.0091490 126.0460720 120.4888407  82.3014234 126.1507624 119.0071197
  75.5481965 122.9265778 116.4140283  76.1881345 122.7854537 115.7163246
  74.7159496 122.6400291 116.0378885  76.3242269 132.2268208 112.5275275
  77.1182868 131.7318529 112.3257850  75.6133962 131.6986072 112.1642981
  72.6325033 126.3711290 108.6035028  71.7022621 126.3095746 108.8204990
  72.7282505 125.8487243 107.8071669  72.5510582 122.8966103 111.1913270
  72.8117399 123.8111436 111.0822430  73.3727754 122.4290546 111.3409882
  74.0235507 124.3103860 118.3612094  74.6958561 124.1021222 117.7124743
  73.1965294 124.1125946 117.9217326  79.9261079 120.9365801 120.3777755
  79.2788994 121.6355751 120.2842231  80.6962095 121.3701945 120.7454003
  83.3339877 131.2014653 123.4528308  83.1825384 130.9725205 122.5358392
  83.3244557 132.1585255 123.4659653  80.1025214 128.7746566 118.4374575
  81.0317274 128.9257726 118.2643542  79.6816244 128.8630587 117.5823221
  79.4961697 137.9006327 107.5498649  79.6713453 137.4294370 108.3644272
  78.8094485 138.5272093 107.7779910  74.4263004 127.5846463 119.1214531
  74.2882802 126.8526702 119.7226070  75.3367928 127.4955363 118.8398719
  77.0545305 127.2966423 118.6098211  77.7644924 126.6559615 118.5684829
  77.0114613 127.5479317 119.5324392  85.0432084 134.2333776 121.5304790
  84.9844630 133.5492996 120.8635373  85.4451602 134.9752766 121.0785416
  75.7674239 124.2831640 120.4293850  75.2311596 123.8322379 121.0815447
  75.1790948 124.4177549 119.6864315  74.0622783 141.0495690 114.3238509
  74.3019381 141.6814214 115.0017528  73.2191979 140.6983730 114.6103868
  75.1776498 123.7420292 102.9920314  74.3005964 123.6209093 102.6282561
  75.6534251 122.9506370 102.7399203  85.0449491 132.1973360 119.7618770
  84.1576270 131.8599282 119.8845169  85.6148042 131.4656391 119.9987535
  66.6978638 128.5297452 113.0861821  67.3849678 128.2159182 112.4982836
  66.5426767 129.4338816 112.8129073  71.5013360 123.4187648 117.5146845
  71.4171549 122.8113318 116.7797255  70.6796067 123.9096666 117.5156341
  78.5750644 136.8574812 116.7280013  78.5020816 137.6629784 117.2399318
  78.1328038 137.0566778 115.9028034  78.3640424 136.0946582 110.2382835
  77.5807946 136.6368262 110.3321059  79.0633169 136.6120562 110.6377076
  81.6737074 121.9041212 112.8817040  82.1705774 121.1511174 112.5618110
  80.9024056 121.9405528 112.3160249  78.2572043 124.0458595 112.6088725
  77.8869830 123.4929635 113.2969630  78.7531135 123.4416728 112.0563725
  76.0861242 134.5056090 119.7043742  76.7870701 135.1392573 119.8573137
  75.6156357 134.8470821 118.9439382  84.1156069 118.8710805 115.0296399
  83.2019149 119.1015032 115.1978606  84.5449170 118.9549249 115.8810431
  83.8862528 127.0600697 117.5296293  83.2333978 127.3076605 116.8748746
  84.2642907 126.2464835 117.1958770  80.8469701 137.0960390 111.6324463
  81.0292096 136.2782046 112.0952215  81.6702687 137.3128083 111.1949353
  81.1811867 136.0228575 108.8939512  81.7099633 135.5121030 108.2809674
  81.4440086 135.7071106 109.7585045  79.9350101 127.8020508 124.0162330
  79.2590738 127.7014637 124.6864705  80.7577734 127.6459722 124.4798327
  71.6828960 134.0392445 116.6374845  72.2682396 133.2936133 116.7702749
  71.4853798 134.3496401 117.5211509  74.5367615 137.0743692 111.6537288
  73.8677990 137.5589820 111.1701328  74.3980485 137.3212913 112.5680666
  66.2746614 126.6098045 115.3579288  66.3130714 126.0761636 116.1516406
  65.7686907 126.0833250 114.7390265  78.6772883 139.1087436 118.2519946
  79.2291191 139.2719057 119.0169031  79.0179077 139.6991873 117.5799971
  73.6537377 121.4562585 118.8541831  73.7178703 122.3177416 118.4419228
  73.5904497 120.8436587 118.1214189  73.1289649 123.5285718 122.5014865
  73.7561688 123.1462795 123.1152389  72.2717568 123.3099920 122.8670557
  83.5283758 133.9348693 124.1068600  84.0723662 134.5478651 123.6123555
  82.9470603 134.4928272 124.6235613  69.9055192 125.3362147 108.4333220
  70.2008633 124.4272825 108.3800273  69.0043228 125.3149887 108.1114222
  73.4349439 123.4118144 114.4160768  72.7136025 124.0254111 114.2768242
  74.2242695 123.9475908 114.3377414  76.2375752 120.7472570 120.6901420
  76.7610154 120.9934867 121.4527729  76.0188086 121.5792605 120.2704557
  71.6343033 123.0176245 108.5572545  71.3055740 122.1373624 108.3747651
  71.9882404 122.9623913 109.4448934  74.7484857 123.3049215 108.9248023
  75.0880929 123.8335136 108.2026631  75.1956977 123.6429621 109.7006589
  77.4428297 121.6886265 118.3751091  77.1025118 120.8894078 118.7771770
  76.7367304 121.9887976 117.8027924  78.0944769 118.7735578 116.8278414
  78.9170839 118.2996056 116.7057304  78.3382833 119.5526061 117.3277100
  76.7353004 121.8023836 107.1241315  77.4561366 122.1805089 106.6205032
  76.1118308 122.5212713 107.2276293  75.6183348 125.4654698 114.6370392
  75.4727929 125.7795001 115.5294674  75.1408552 126.0839599 114.0841291
  77.4779731 122.4557246 114.6851282  77.4641300 121.5598340 114.3483580
  78.1952159 122.4627910 115.3189568  79.3305862 122.8894587 116.7304409
  79.0723639 123.8111657 116.7288740  78.7990902 122.4925021 117.4204873
  84.2752050 135.9945374 109.5094495  84.4488928 135.4291796 108.7568347
  84.7680942 136.7946269 109.3273985  70.0929010 128.0060043 117.5758053
  69.5482478 128.7819851 117.7078328  70.9708360 128.3530847 117.4177175
  76.8816627 121.3371627 109.9538852  77.0032538 120.4088273 110.1529739
  76.5918669 121.3510313 109.0417167  79.7507817 119.0226537 113.0905572
  79.7729514 119.0865870 112.1357551  80.1675876 118.1831046 113.2846078
  85.2627223 135.3112138 106.6091393  85.9578128 135.9318831 106.8278708
  85.6050373 134.4607489 106.8843771  70.8795032 127.1329939 120.4688210
  70.1376768 127.2812574 121.0552841  70.5587776 127.3938205 119.6054960
  78.8238695 136.6745917 120.2668600  79.1325821 136.4295064 121.1391300
  79.6214177 136.8792556 119.7787471  78.8459307 138.8283827 112.4973977
  78.4064297 138.3360206 113.1906834  79.5967424 138.2856794 112.2566052
  71.3251646 135.0195368 112.4998605  72.1509666 134.7199140 112.1197248
  70.9745698 134.2502990 112.9488394  76.2933179 134.3721836 114.5696279
  75.6713188 133.7092541 114.2698506  76.9638046 134.3982968 113.8869926
  69.5260251 132.9381694 113.4587539  68.6892159 132.5103869 113.2771540
  69.4983896 133.1314137 114.3958330  76.3657706 122.8503624 124.1628785
  76.4145862 123.7265747 123.7806554  76.9080221 122.3081017 123.5900428
  86.8512552 133.3944747 123.4429922  86.0608096 133.3768886 122.9034421
  86.6145907 133.9333041 124.1978958  86.9710427 130.2437214 120.7562650
  87.0208432 130.0787221 121.6978173  86.8624350 129.3764473 120.3660531
  75.8546686 132.9225759 108.0454739  76.0034806 133.6061224 107.3921412
  76.6613129 132.9030849 108.5604195  84.2614190 126.2268142 122.0721957
  85.1624052 126.0874606 121.7805955  84.3362164 126.3922596 123.0120134
  78.5956995 123.6034996 120.9175143  77.7260304 123.8968562 120.6457732
  78.8316475 124.1875441 121.6382407  88.4728624 132.6634155 121.0004672
  88.1813432 133.0264136 121.8368133  87.8600755 131.9501163 120.8218004
  86.7215812 127.7866770 119.4684730  87.1969934 127.9794416 118.6603581
  85.7981378 127.8425956 119.2228113  73.6099319 128.9490937 109.0515808
  73.3645361 128.0453267 109.2496018  73.7795233 128.9508087 108.1095286
  81.2996029 119.8214613 118.4340564  81.8177973 120.5575640 118.1087052
  80.9451161 120.1278607 119.2687323  72.8794966 124.6819294 106.5501969
  72.1864211 124.7563649 105.8942005  72.6346718 123.9179638 107.0723486
  79.3542091 135.4173890 105.5166486  78.7816058 136.0364077 105.0636958
  79.9274885 135.9673251 106.0506408  85.4217481 124.6632530 117.7013035
  86.3734904 124.7630627 117.7225259  85.2520932 123.8710798 118.2111120
  83.4431861 121.7488113 117.8872436  82.8481793 122.0293126 117.1918925
  83.1581557 122.2382014 118.6589177  85.2027368 135.0176910 103.6079016
  85.1240999 134.6836774 104.5014774  86.0237035 135.5098678 103.6070489
  88.0500047 124.6749693 116.8613618  87.5339096 123.8908150 116.6743547
  88.9339996 124.3468410 117.0260138  85.7110774 118.4190708 112.8209431
  85.5135596 118.1105797 113.7052763  86.3210480 119.1452347 112.9507361
  93.7182109 128.9454656 115.9561372  94.4485497 128.6839944 116.5169075
  93.1089054 128.2083378 115.9963440  91.7997406 127.0862519 116.5535823
  91.0730570 126.9518484 115.9452315  91.3844693 127.3939348 117.3592541
  79.6227582 130.8052449 124.3183196  80.5430592 130.9831048 124.5123242
  79.5877165 129.8608494 124.1662895  68.8409747 125.9991042 113.2436471
  68.5212532 125.1456350 112.9510845  68.2943176 126.2139620 113.9994438
  72.6189655 128.7153483 116.9605977  72.8375665 129.6470591 116.9794011
  73.0315429 128.3561458 117.7460781  77.4917520 124.2886689 126.3508726
  77.3914247 125.2381046 126.2820817  77.2739062 123.9604928 125.4784796
  68.7098007 129.6193954 115.2129592  68.0161479 129.2047907 114.6999547
  69.4570998 129.6614490 114.6163011  83.2966794 119.8105198 112.2805947
  83.7966573 119.9221733 111.4720266  83.9402402 119.5066251 112.9206755
  77.3548790 127.7183828 125.1673788  76.8715872 128.5184188 125.3737677
  77.4409729 127.7291773 124.2141232  70.6234750 129.5512208 113.0895607
  70.6005438 129.6499895 112.1377490  70.9335386 130.3977358 113.4112773
  73.2822128 131.6088363 117.2042221  74.2365381 131.5772305 117.1372153
  73.0834651 131.1478986 118.0192447  73.8721510 130.1789479 119.7713019
  74.6914399 130.6733557 119.7947856  74.1458318 129.2621447 119.7430587
  71.6372357 137.1507982 114.2212419  71.5026825 136.3908383 113.6550417
  71.2204419 137.8748882 113.7541208  74.7941482 138.0477299 114.4330862
  74.6773867 138.9922732 114.3309552  73.9733929 137.7450861 114.8216661
  69.1256424 124.5127612 120.4705216  69.7715288 124.0026566 120.9592441
  68.9173575 125.2496294 121.0448641  81.6509816 131.5808460 125.9697357
  82.5200976 131.7549112 125.6083992  81.1716568 132.4002877 125.8473086
  75.8195997 138.7005561 117.6486790  76.7223243 138.7329171 117.9653285
  75.5933367 137.7706012 117.6633126  77.5749599 137.4536548 114.3096869
  76.6245230 137.4538409 114.1961241  77.8782085 136.7069282 113.7932904
  73.4653915 121.6595230 124.5680230  74.3285377 121.3032034 124.7783555
  72.8919326 121.3209124 125.2555635  93.3102292 143.2897086 115.3742631
  93.9480702 143.1703833 114.6705972  93.1923135 144.2377930 115.4330584
  90.1191998 143.2424514 115.3104156  89.7810510 143.1265579 114.4224691
  90.9881767 142.8415679 115.2905162  85.9778814 145.0959990 111.3001047
  85.4143679 145.0049927 110.5317335  85.8631209 144.2759895 111.7803540
  83.5243246 146.5911182 114.1385268  84.3164538 146.2502007 113.7231567
  83.7639896 146.7006157 115.0587421  91.5578373 148.7630958 106.6115512
  90.9066353 149.3485039 106.2249526  92.3522736 149.2937153 106.6710549
  85.4834000 145.8520095 107.0102646  86.2564876 145.3049082 106.8715522
  85.8359399 146.7164345 107.2217108  88.2475249 144.5573326 116.8070905
  88.8438822 144.3329348 116.0927868  88.3050221 143.8158072 117.4096353
  87.8200278 142.0112761 104.6421096  88.0725798 141.4894283 103.8804559
  86.8824837 141.8478907 104.7447780  92.8643561 141.0148540 112.4495839
  93.6506650 140.5967963 112.0986256  93.1282265 141.9194632 112.6177488
  93.0353638 146.4521390 107.1484496  92.3999471 146.5256017 107.8605401
  92.7051044 147.0414989 106.4703576  98.2651988 140.9523773 113.3528818
  98.9977160 140.3822990 113.5866647  97.5091343 140.5645373 113.7935324
  87.5396567 143.9140867 106.8445471  87.4232825 143.2385771 107.5126556
  87.6498826 143.4273241 106.0277624  89.8828107 143.3751014 110.5492160
  89.5186315 142.8481635 111.2605082  90.7395223 142.9849483 110.3758646
  95.7877408 134.6645347 117.8123427  95.4560733 135.5340758 117.5884642
  95.1923021 134.3481631 118.4917457  89.5233594 138.4040914 105.5453509
  89.6907997 139.2721151 105.9123980  89.3330763 138.5668196 104.6214798
  85.7321409 143.3171690 113.2456044  84.8071906 143.1847904 113.4533736
  85.9805822 144.0965909 113.7425986  95.6806071 139.3840433 114.8916777
  94.7722949 139.3155842 114.5975538  95.6293667 139.8612378 115.7198602
  89.5022815 140.8598572 106.5300176  89.3822440 141.3055622 107.3685656
  88.8075404 141.2083889 105.9713714  83.0930220 142.9604963 114.0799833
  83.2222601 143.2139442 114.9939245  82.4127671 143.5532671 113.7604488
  87.2629707 153.6302213 110.1790307  87.1853737 154.5810038 110.2578788
  86.6591351 153.2848086 110.8365233  97.5467718 137.5856872 116.6694651
  96.9042098 137.8789405 116.0234445  97.0422646 137.4709792 117.4747847
  95.2007881 141.3320045 107.3580510  96.1125738 141.5647432 107.1828207
  94.6917529 141.9157089 106.7955588  89.8379719 140.6917279 118.3675359
  90.6840914 141.1156693 118.5110008  89.7778357 140.0350904 119.0613922
  92.5443856 137.5078081 115.6070371  91.6828335 137.8059334 115.8987108
  92.5706291 137.7248480 114.6751403  89.3605426 146.0520271 112.0144176
  89.8243771 146.3307974 111.2248799  89.0962224 145.1503716 111.8317267
  86.2529507 145.5991753 114.9523940  86.8230864 146.0279021 114.3141424
  86.8437619 145.3174338 115.6508125  88.2974312 142.1743424 108.8233742
  88.9998355 142.6264467 109.2907668  87.9654940 141.5327243 109.4513635
  82.0399646 140.4326976 114.1250875  81.2498700 140.6884505 113.6490986
  82.5310893 141.2475314 114.2302916  83.9914391 140.7971556 111.0834352
  83.1945554 140.9090250 111.6017847  83.7639983 141.1358208 110.2175242
  80.3237349 140.6857467 116.5565866  80.5745387 141.5704477 116.8223442
  80.8596897 140.5062068 115.7840958  89.5368076 148.9884366 108.8995847
  89.4013751 149.8335902 109.3280695  90.0777889 149.1903644 108.1361781
  82.9897474 146.5059804 109.4723772  83.5021994 147.3003055 109.6229337
  83.6420187 145.8086095 109.4057373  84.7992358 149.6225561 111.5546525
  84.9758987 150.5443525 111.3667509  85.5949192 149.3083980 111.9840905
  84.0844715 141.6690193 121.4308688  83.9698230 140.7675450 121.7315787
  83.2289233 141.9153889 121.0793505  92.8860540 132.5114928 117.4294740
  92.5424809 133.4016570 117.3533851  93.2539502 132.3216586 116.5664325
  80.9546390 144.8348459 110.2483342  81.7921612 145.2445467 110.0317050
  81.1324658 143.8947901 110.2183536  92.8510823 142.5023539 105.9367175
  92.3357446 143.2728144 106.1755563  92.5788131 141.8288675 106.5600237
  90.4357934 137.3473240 110.9952414  89.5799530 136.9580091 110.8158052
  90.8484885 137.4265201 110.1352199  91.9657080 134.8819583 115.3943973
  91.4621876 134.8449719 114.5811779  92.2587687 135.7912326 115.4540630
  97.8245097 145.2555894 107.8720349  97.0474539 144.9167053 107.4275511
  98.5036578 145.2608517 107.1975314  92.6397126 140.3750631 107.7626956
  92.3347261 140.6896781 108.6137100  93.5927568 140.4532051 107.8054289
  91.0843558 146.5340855 109.4119910  90.5564919 145.7993614 109.0993148
  90.5831060 147.3115531 109.1659879  85.8162285 137.1960521 111.7726522
  86.3906037 136.9735703 111.0399715  86.4033268 137.2649216 112.5255123
  94.8741862 143.0834248 112.5790899  95.3873744 143.7164240 113.0812608
  95.5243086 142.4835443 112.2134259  86.1431872 139.2264982 105.7922407
  85.3069185 139.5639669 106.1131682  86.0036642 139.0913962 104.8549544
  89.2296158 144.3521065 102.4154883  88.3223220 144.1210318 102.6146032
  89.7267190 143.5558684 102.6028865  92.1364237 153.0618572 105.3351570
  91.4625935 153.3650269 105.9436527  92.5230059 153.8647653 104.9857027
  91.3522693 140.5583703 114.8249239  90.4345255 140.7798650 114.6670927
  91.7682837 140.6330014 113.9660946  92.1357741 141.9575119 109.9551919
  92.8829560 142.4696516 109.6459041  92.4049331 141.6359172 110.8156313
  90.4084391 144.4533660 106.9378874  89.4995610 144.1692693 107.0351343
  90.4379475 144.8732738 106.0782180  95.6403659 148.0640249 110.7070041
  95.1865986 147.2231159 110.7635232  95.0097625 148.7001648 111.0444821
  94.5836578 138.9932235 111.9370709  93.8459335 138.4809622 112.2680951
  94.8363352 138.5532617 111.1253985  94.0836598 149.9016746 111.6419859
  94.3759572 150.4621803 110.9232225  94.5935218 150.1945307 112.3973018
  94.6848206 131.7708487 112.5312478  94.9907082 130.9105851 112.2438393
  95.4100810 132.3626108 112.3311472  80.9772562 142.1739174 110.9194076
  80.7796961 141.5808535 110.1945142  80.4219226 141.8691384 111.6370015
  88.9569285 142.0662280 113.0388669  89.0117895 141.1136117 112.9631146
  88.1460487 142.2221720 113.5229967  90.1060479 145.9942404 104.2766952
  89.6679909 145.2778262 103.8172590  90.8470920 146.2218518 103.7152044
  86.8961645 140.6839340 110.7979048  86.0829511 140.9833511 111.2044240
  87.3920639 140.2895029 111.5153530  89.0470223 150.6797097 112.7313313
  89.0046402 150.9057943 111.8021845  89.9632922 150.4460472 112.8799114
  98.2233594 144.2699601 110.3343271  98.0851492 144.4601197 109.4064460
  97.8669813 145.0318983 110.7911322  86.3875720 138.2557696 116.4140283
  87.0275099 138.1146455 115.7163246  85.5553250 137.9692209 116.0378885
  87.1636024 147.5560126 112.5275275  87.9576622 147.0610446 112.3257850
  86.4527716 147.0277989 112.1642981  83.4718787 141.7003208 108.6035028
  82.5416375 141.6387663 108.8204990  83.5676259 141.1779161 107.8071669
  83.3904336 138.2258021 111.1913270  83.6511154 139.1403354 111.0822430
  84.2121509 137.7582463 111.3409882  84.8629262 139.6395778 118.3612094
  85.5352315 139.4313140 117.7124743  84.0359048 139.4417864 117.9217326
  90.7654834 136.2657719 120.3777755  90.1182749 136.9647668 120.2842231
  91.5355849 136.6993863 120.7454003  90.3355452 153.2298245 107.5498649
  90.5107208 152.7586288 108.3644272  89.6488240 153.8564011 107.7779910
  91.2912515 147.5070751 113.5961950  90.9562348 147.4671521 114.4919600
  90.7916461 146.8415467 113.1232360  85.2656759 142.9138381 119.1214531
  85.1276557 142.1818620 119.7226070  86.1761682 142.8247281 118.8398719
  94.2271707 144.8526785 103.8699010  93.6100877 144.1273613 103.7732062
  93.7588195 145.6136145 103.5266084  86.6067994 139.6123558 120.4293850
  86.0705351 139.1614297 121.0815447  86.0184702 139.7469467 119.6864315
  86.0170253 139.0712210 102.9920314  85.1399719 138.9501010 102.6282561
  86.4928006 138.2798288 102.7399203  77.5372393 143.8589369 113.0861821
  78.2243433 143.5451099 112.4982836  77.3820521 144.7630734 112.8129073
  89.2034179 151.4238500 110.2382835  88.4201700 151.9660180 110.3321059
  89.9026924 151.9412480 110.6377076  92.5130829 137.2333129 112.8817040
  93.0099528 136.4803092 112.5618110  91.7417810 137.2697446 112.3160249
  93.5960609 145.9904817 110.4555463  92.6616888 146.1106279 110.2860168
  93.7737278 145.0877283 110.1915473  89.0965797 139.3750512 112.6088725
  88.7263585 138.8221553 113.2969630  89.5924890 138.7708646 112.0563725
  96.9833161 141.8322136 110.9905497  97.4493613 142.6650127 110.9165800
  97.4340661 141.3667117 111.6950756  95.0509392 148.1765957 107.9891650
  95.3269236 148.0622552 108.8985524  94.1813891 147.7783442 107.9503823
  94.9549823 134.2002723 115.0296399  94.0412903 134.4306950 115.1978606
  95.3842925 134.2841167 115.8810431  91.6863456 152.4252308 111.6324463
  91.8685850 151.6073964 112.0952215  92.5096442 152.6420000 111.1949353
  92.0205621 151.3520493 108.8939512  92.5493388 150.8412948 108.2809674
  92.2833841 151.0363023 109.7585045  82.5222714 149.3684362 116.6374845
  83.1076151 148.6228050 116.7702749  82.3247553 149.6788319 117.5211509
  85.3761369 152.4035610 111.6537288  84.7071745 152.8881737 111.1701328
  85.2374239 152.6504830 112.5680666  77.1140369 141.9389963 115.3579288
  77.1524468 141.4053553 116.1516406  76.6080662 141.4125168 114.7390265
  83.9683404 138.8577636 122.5014865  84.5955442 138.4754713 123.1152389
  83.1111323 138.6391838 122.8670557  80.7448946 140.6654065 108.4333220
  81.0402387 139.7564743 108.3800273  79.8436982 140.6441804 108.1114222
  87.0769507 136.0764488 120.6901420  87.6003909 136.3226784 121.4527729
  86.8581840 136.9084523 120.2704557  82.4736788 138.3468162 108.5572545
  82.1449494 137.4665541 108.3747651  82.8276159 138.2915831 109.4448934
  91.7216367 149.9823065 113.0667530  91.5741329 149.0539773 113.2475100
  92.5469860 150.0043156 112.5824606  85.5878611 138.6341132 108.9248023
  85.9274684 139.1627053 108.2026631  86.0350732 138.9721538 109.7006589
  88.2822052 137.0178183 118.3751091  87.9418872 136.2185996 118.7771770
  87.5761058 137.3179894 117.8027924  87.5746758 137.1315754 107.1241315
  88.2955121 137.5097007 106.6205032  86.9512062 137.8504631 107.2276293
  91.7177881 137.8360903 108.0599648  91.9341496 138.7185541 107.7588476
  91.2371948 137.4447116 107.3305290  86.4577103 140.7946616 114.6370392
  86.3121683 141.1086919 115.5294674  85.9802306 141.4131516 114.0841291
  88.3173485 137.7849164 114.6851282  88.3035054 136.8890257 114.3483580
  89.0345914 137.7919828 115.3189568  90.1699616 138.2186504 116.7304409
  89.9117394 139.1403575 116.7288740  89.6384657 137.8216939 117.4204873
  95.1145805 151.3237291 109.5094495  95.2882682 150.7583714 108.7568347
  95.6074696 152.1238186 109.3273985  80.9322765 143.3351960 117.5758053
  80.3876233 144.1111768 117.7078328  81.8102115 143.6822765 117.4177175
  87.7210381 136.6663544 109.9538852  87.8426293 135.7380190 110.1529739
  87.4312424 136.6802230 109.0417167 100.9685196 144.0873714 111.1284794
 101.4116342 143.3381039 110.7303918 100.0911706 144.0783851 110.7458526
  96.1020977 150.6404056 106.6091393  96.7971882 151.2610748 106.8278708
  96.4444128 149.7899407 106.8843771  81.7188787 142.4621857 120.4688210
  80.9770523 142.6104492 121.0552841  81.3981531 142.7230122 119.6054960
  98.0012401 148.0903761 108.1378724  98.5263725 148.4291034 107.4128044
  97.9134753 147.1550777 107.9541858  82.1645400 150.3487285 112.4998605
  82.9903420 150.0491057 112.1197248  81.8139452 149.5794908 112.9488394
  87.1326933 149.7013754 114.5696279  86.5106943 149.0384459 114.2698506
  87.8031800 149.7274885 113.8869926  80.3654005 148.2673612 113.4587539
  79.5285914 147.8395786 113.2771540  80.3377651 148.4606055 114.3958330
  86.6940440 148.2517677 108.0454739  86.8428561 148.9353141 107.3921412
  87.5006884 148.2322767 108.5604195  84.4493073 144.2782855 109.0515808
  84.2039115 143.3745185 109.2496018  84.6188988 144.2800005 108.1095286
  92.1389783 135.1506531 118.4340564  92.6571727 135.8867558 118.1087052
  91.7844916 135.4570524 119.2687323  83.7188721 140.0111212 106.5501969
  83.0257966 140.0855567 105.8942005  83.4740473 139.2471556 107.0723486
  90.1935846 150.7465807 105.5166486  89.6209813 151.3655995 105.0636958
  90.7668640 151.2965169 106.0506408  94.2825615 137.0780031 117.8872436
  93.6875547 137.3585043 117.1918925  93.9975312 137.5673932 118.6589177
  93.4133106 151.0302958 106.6475069  94.3463779 150.9648519 106.8507944
  93.3256318 151.8659224 106.1889601  96.0421122 150.3468828 103.6079016
  95.9634754 150.0128691 104.5014774  96.8630789 150.8390596 103.6070489
  90.5782644 142.0826620 102.8582539  91.5241749 141.9532828 102.9270957
  90.1996889 141.3441282 103.3351967  96.5504529 133.7482626 112.8209431
  96.3529350 133.4397714 113.7052763  97.1604234 134.4744265 112.9507361
  88.7625562 140.0076597 102.7937424  87.8557017 139.7109709 102.8700138
  89.0401543 139.7106415 101.9271710  79.6803502 141.3282960 113.2436471
  79.3606286 140.4748268 112.9510845  79.1336930 141.5431538 113.9994438
  83.4583409 144.0445401 116.9605977  83.6769419 144.9762509 116.9794011
  83.8709183 143.6853375 117.7460781  87.5324346 136.8663532 102.9349403
  88.3943510 137.1918430 103.1945221  87.7174690 136.0795028 102.4222469
  79.5491762 144.9485871 115.2129592  78.8555233 144.5339824 114.6999547
  80.2964753 144.9906408 114.6163011  95.6856983 135.7392058 110.0784626
  95.1055652 136.3976862 109.6962679  95.4192915 134.9169403 109.6672044
  94.1360549 135.1397116 112.2805947  94.6360327 135.2513650 111.4720266
  94.7796157 134.8358169 112.9206755  81.4628504 144.8804125 113.0895607
  81.4399193 144.9791812 112.1377490  81.7729141 145.7269276 113.4112773
  84.1215882 146.9380280 117.2042221  85.0759136 146.9064223 117.1372153
  83.9228406 146.4770904 118.0192447  94.4681861 137.8992149 109.1340975
  93.5807716 138.1841799 108.9161169  94.8835850 137.7385912 108.2868252
  97.8196397 137.9238670 112.8495314  98.5956787 138.4135122 113.1219931
  97.0944531 138.3496724 113.3067183 100.2568955 138.6366289 113.9069255
 100.8513446 138.3962025 113.1962563 100.3295539 137.9173419 114.5342791
  82.4766111 152.4799900 114.2212419  82.3420579 151.7200301 113.6550417
  82.0598173 153.2040800 113.7541208  93.6125074 147.6636823 103.2288995
  94.3160924 147.8686826 103.8446650  92.8887723 148.2313585 103.4938078
  94.4422884 143.4146685 109.3491265  94.3858086 143.8715236 108.5098897
  94.9951227 142.6537369 109.1714108  98.2527690 139.2036416 110.1741384
  97.9964625 138.8033052 111.0049592  97.6280558 139.9180210 110.0491523
 102.5640028 141.9432490 112.6812676 102.0039586 142.0125679 113.4544238
 101.9583531 141.7673474 111.9612172  95.5211771 148.1019352 105.2787455
  96.3557375 147.6700551 105.0964929  95.3596114 147.9301366 106.2064349
  95.1757664 144.6051466 106.6443794  95.1206467 144.4395737 105.7032238
  94.5503719 145.3127499 106.8005984  79.9650179 139.8419530 120.4705216
  80.6109042 139.3318484 120.9592441  79.7567330 140.5788212 121.0448641
  98.6594032 157.3404679 104.6421096  98.9119553 156.8186200 103.8804559
  97.7218591 157.1770825 104.7447780 100.3627349 153.7332832 105.5453509
 100.5301751 154.6013068 105.9123980 100.1724518 153.8960114 104.6214798
  96.9825627 154.5556900 105.7922407  96.1462939 154.8931586 106.1131682
  96.8430396 154.4205880 104.8549544  98.9578707 149.3993688 110.5001591
  98.3043120 149.0842705 109.8758206  98.9159182 148.7769428 111.2261414
 100.0689912 159.6812983 102.4154883  99.1616974 159.4502236 102.6146032
 100.5660944 158.8850602 102.6028865  96.8564007 154.4004127 102.9920314
  95.9793473 154.2792928 102.6282561  97.3321760 153.6090205 102.7399203
  91.5842701 155.9945982 108.4333220  91.8796142 155.0856661 108.3800273
  90.6830737 155.9733722 108.1114222  93.3130542 153.6760080 108.5572545
  92.9843249 152.7957459 108.3747651  93.6669913 153.6207749 109.4448934
  98.4140513 152.4607671 107.1241315  99.1348875 152.8388924 106.6205032
  97.7905817 153.1796548 107.2276293  94.5582475 155.3403130 106.5501969
  93.8651720 155.4147485 105.8942005  94.3134227 154.5763473 107.0723486
 101.4176399 157.4118538 102.8582539 102.3635504 157.2824746 102.9270957
 101.0390644 156.6733200 103.3351967  99.6019316 155.3368514 102.7937424
  98.6950771 155.0401627 102.8700138  99.8795297 155.0398332 101.9271710
 101.2181382 149.8805404 108.9481665 100.4082110 149.5352489 109.3236912
 101.9065799 149.5712948 109.5369277  98.3718101 152.1955449 102.9349403
  99.2337265 152.5210348 103.1945221  98.5568445 151.4086945 102.4222469
  99.3247544 149.4351492 106.2229112  99.3126213 150.3793332 106.3797383
 100.2170965 149.2521638 105.9288574  17.4346012  12.9915785 102.0987938
  18.0724422  12.8722532 101.3951278  17.3166855  13.9396629 102.1575890
  14.2435718  12.9443213 102.0349463  13.9054230  12.8284278 101.1469998
  15.1125486  12.5434378 102.0150469  15.6822093  18.4649657  93.3360819
  15.0310072  19.0503737  92.9494832  16.4766455  18.9955852  93.3955856
  16.9887280  10.7167239  99.1741146  17.7750370  10.2986662  98.8231563
  17.2525985  11.6213331  99.3422794  17.1597358  16.1540089  93.8729803
  16.5243191  16.2274715  94.5850708  16.8294764  16.7433688  93.1948882
  22.3895708  10.6542472 100.0774125  23.1220879  10.0841689 100.3111954
  21.6335063  10.2664072 100.5180630  16.4052647  16.5676592 103.9364646
  16.1053371  17.4701631 103.8280453  16.0603707  16.3008775 104.7885799
  11.3873427  23.3320912  96.9035614  11.3097457  24.2828737  96.9824094
  10.7835071  22.9866785  97.5610540  19.3251601  11.0338744  94.0825816
  20.2369457  11.2666130  93.9073514  18.8161248  11.6175788  93.5200895
  17.9321184  16.0164562 101.4739398  17.3030046  16.1810276 100.7715466
  17.5446846  16.4306172 102.2450362  21.8110415  16.9519000  98.8283762
  21.1261454  17.3317901  98.2780795  21.8954265  17.5614327  99.5615709
  19.0661347  14.5978959 105.4279105  19.2778242  15.2410719 104.7513486
  19.0191095  13.7641276 104.9601035  13.4849145  15.7538970  98.7389483
  13.9487491  16.0326673  97.9494106  13.2205944  14.8522415  98.5562574
  10.3773227  15.3010452 101.6769246  10.9474584  15.7297720 101.0386731
  10.9681338  15.0193036 102.3753432  20.1807175  17.4750914 103.6001463
  21.0024619  17.0731102 103.3184144  20.1769578  17.3719149 104.5517578
  13.9463778  17.0234958 105.7562173  14.0108211  17.4855365 106.5920345
  13.2374702  16.3932323 105.8844483  28.2713168  13.8189663  99.9486434
  27.5176876  13.2497061  99.7930438  28.4060709  13.7852327 100.8957069
  13.6611796  18.6903065  95.6241153  13.5257471  19.5354601  96.0526001
  14.2021609  18.8922343  94.8607087   8.9236078  19.3244260  98.2791832
   9.1002707  20.2462224  98.0912816   9.7192912  19.0102679  98.7086211
  10.0467394  20.8422433 104.2802174  10.5974819  20.7139497 103.5079168
   9.2078870  21.1417322 103.9297067  17.3861511  19.5929432 107.7822897
  17.3679986  20.4138313 107.2903166  18.3081431  19.4683507 108.0073038
  16.9754542  12.2042238  92.6612482  16.4601166  12.9746843  92.9000869
  16.7031851  11.5307374  93.2845543  21.9488817  14.9574593  94.5965655
  21.1718259  14.6185752  94.1520818  22.6280298  14.9627216  93.9220620
  15.2087277  16.2359554  96.1365217  14.6808639  15.5012313  95.8238455
  14.7074780  17.0134230  95.8905185  20.1880123  14.4308574 101.2532263
  19.5303798  15.1207835 101.3412392  20.9920523  14.8205006 101.5966250
  18.9985582  12.7852947  99.3036205  19.5117464  13.4182939  99.8057915
  19.6486806  12.1854142  98.9379565  13.3539878  14.0539764  89.1400190
  12.4466939  13.8229017  89.3391339  13.8510910  13.2577383  89.3274172
  16.2607957  22.7637271  92.0596876  15.5869655  23.0668968  92.6681834
  16.6473778  23.5666351  91.7102333  16.2601461  11.6593818  96.6797226
  17.0073280  12.1715215  96.3704348  16.5293050  11.3377871  97.5401620
  14.5328111  14.1552359  93.6624180  13.6239330  13.8711392  93.7596650
  14.5623195  14.5751437  92.8027487  19.7647378  17.7658948  97.4315348
  19.3109706  16.9249858  97.4880538  19.1341345  18.4020347  97.7690128
  18.2080318  19.6035445  98.3665166  18.5003292  20.1640502  97.6477532
  18.7178938  19.8964006  99.1218325  14.2304199  15.6961102  91.0012259
  13.7923629  14.9796961  90.5417896  14.9714640  15.9237217  90.4397350
  13.1713943  20.3815796  99.4558619  13.1290122  20.6076642  98.5267151
  14.0876642  20.1479171  99.6044420  22.3477314  13.9718299  97.0588577
  22.2095212  14.1619895  96.1309767  21.9913532  14.7337682  97.5156629
  22.3746693  16.0394826 102.0699849  22.8083200  15.9470116 102.9182903
  23.0878274  16.0152327 101.4319865  11.2879744  17.2578825  99.2520582
  12.0820342  16.7629145  99.0503157  10.5771436  16.7296688  98.8888287
  16.1074588  19.6396921 103.6032949  16.1611610  20.2087857 104.3710665
  15.2389370  19.8098806 103.2386987  23.2362243  16.0818527 104.6032734
  23.4298133  16.9864338 104.8492009  23.1362861  15.6225946 105.4371319
  15.0662688  13.8057183 105.1619881  15.9954748  13.9568342 104.9888849
  14.6453718  13.8941203 104.3068528  13.8651020  17.8307847 102.9318419
  13.7262105  17.4626631 103.8044357  13.0765616  18.3455486 102.7602377
  14.4599172  22.9316943  94.2743955  14.6350927  22.4604987  95.0889578
  13.7731960  23.5582710  94.5025216  15.4156235  17.2089450 100.3207257
  15.0806067  17.1690220 101.2164907  14.9160181  16.5434166  99.8477667
  18.3515426  14.5545484  90.5944316  17.7344597  13.8292312  90.4977369
  17.8831915  15.3154844  90.2511391  20.0069558  19.2644392 108.2550097
  19.9482104  18.5803613 107.5880680  20.4089077  20.0063382 107.8030723
   9.0260257  26.0806306 101.0483816   9.2656855  26.7124830 101.7262834
   8.1829453  25.7294346 101.3349175  20.0086965  17.2283976 106.4864076
  19.1213744  16.8909898 106.6090475  20.5785516  16.4967008 106.7232842
  13.5388119  21.8885429 103.4525320  13.4658290  22.6940400 103.9644624
  13.0965512  22.0877395 102.6273341  13.3277898  21.1257199  96.9628141
  12.5445420  21.6678879  97.0566366  14.0270644  21.6431178  97.3622382
  24.4904306  12.6392194 101.2480638  24.4794182  13.5216909 100.8774571
  23.6221685  12.2863745 101.0535175  15.9986802  21.7872263 105.6083478
  16.7114775  22.4219728 105.5359380  15.5076831  21.8836129 104.7923480
  17.7204329  15.6923515  97.1800770  16.7860608  15.8124978  97.0105474
  17.8980998  14.7895982  96.9160780  21.1076881  11.5340835  97.7150804
  21.5737333  12.3668826  97.6411107  21.5584381  11.0685816  98.4196063
  11.0498716  19.5366706 106.4289049  11.7508175  20.1703189 106.5818443
  10.5793831  19.8781438 105.6684688  19.1753112  17.8784656  94.7136956
  19.4512956  17.7641251  95.6230830  18.3057610  17.4802141  94.6749129
  18.8500002  12.0911314 104.2541599  18.1971452  12.3387221 103.5994052
  19.2280382  11.2775452 103.9204077  15.8107176  22.1271007  98.3569770
  15.9929570  21.3092663  98.8197522  16.6340162  22.3438699  97.9194660
  16.1449341  21.0539192  95.6184818  16.6737108  20.5431647  95.0054980
  16.4077561  20.7381722  96.4830351   6.6466434  19.0703061 103.3620152
   7.2319871  18.3246749 103.4948056   6.4491272  19.3807018 104.2456816
   9.5005089  22.1054309  98.3782594   8.8315464  22.5900436  97.8946634
   9.3617959  22.3523529  99.2925973  13.6410358  24.1398052 104.9765253
  14.1928666  24.3029674 105.7414338  13.9816551  24.7302490 104.3045277
  16.7778745  22.0880028 101.9628935  16.6529884  21.2869768 101.4539880
  17.4357836  22.5826221 101.4742905  18.8413653  19.8889048 103.5908485
  17.8943989  19.7694399 103.5186812  19.1896426  19.0011546 103.6734746
  15.8460087  19.6841764  99.7912837  15.6985049  18.7558471  99.9720407
  16.6713580  19.7061855  99.3069912  19.4494209  20.5070323 100.8777710
  20.3740756  20.3013184 100.7402161  19.2809512  20.2586724 101.7867051
  19.2389525  21.0255990  96.2339801  19.4126402  20.4602413  95.4813654
  19.7318416  21.8256885  96.0519291  25.0928916  13.7892413  97.8530101
  25.5360062  13.0399738  97.4549224  24.2155426  13.7802549  97.4703833
  20.2264697  20.3422755  93.3336700  20.9215602  20.9629447  93.5524014
  20.5687847  19.4918106  93.6089077  22.1256120  17.7922460  94.8624030
  22.6507444  18.1309733  94.1373350  22.0378473  16.8569475  94.6787165
  13.7876169  21.7056534 106.9913907  14.0963295  21.4605681 107.8636607
  14.5851651  21.9103172 106.5032777  13.8096781  23.8594443  99.2219283
  13.3701771  23.3670822  99.9152140  14.5604898  23.3167411  98.9811359
   6.2889120  20.0505984  99.2243912   7.1147140  19.7509756  98.8442555
   5.9383172  19.2813607  99.6733700  11.2570653  19.4032452 101.2941585
  10.6350663  18.7403157 100.9943813  11.9275520  19.4293584 100.6115233
  21.8150026  18.4255364 110.1675228  21.0245570  18.4079503 109.6279728
  21.5783381  18.9643657 110.9224265  21.9347901  15.2747830 107.4807957
  21.9845906  15.1097838 108.4223480  21.8261825  14.4075089 107.0905838
  10.8184160  17.9536376  94.7700046  10.9672281  18.6371840  94.1166718
  11.6250604  17.9341466  95.2849501  23.4366098  17.6944772 107.7249978
  23.1450907  18.0574752 108.5613439  22.8238230  16.9811780 107.5463310
  24.6361781  15.2597651 100.2452549  25.4708672  15.6987455 100.4090109
  24.7720909  14.7836305  99.4260794  21.6853287  12.8177386 106.1930036
  22.1607408  13.0105033 105.3848888  20.7618852  12.8736572 105.9473420
  14.3179566  20.4484506  92.2411793  13.7453533  21.0674693  91.7882265
  14.8912359  20.9983868  92.7751715  17.5376825  20.7321656  93.3720375
  18.4707499  20.6667218  93.5753251  17.4500038  21.5677923  92.9134908
  20.1664842  20.0487527  90.3324323  20.0878474  19.7147390  91.2260081
  20.9874509  20.5409295  90.3315795  22.8643033  12.9149266 103.5400642
  22.8319353  11.9765267 103.7260325  23.4743657  12.9933303 102.8066466
  23.0137522   9.7060309 103.5858925  22.4976570   8.9218766 103.3988854
  23.8977470   9.3779026 103.7505444  28.6819583  13.9765273 102.6806678
  29.4122972  13.7150561 103.2414382  28.0726529  13.2393995 102.7208746
  26.7634880  12.1173135 103.2781130  26.0368044  11.9829100 102.6697621
  26.3482167  12.4249964 104.0837848  21.9440117   7.6257368  99.5740621
  22.7200507   8.1153821  99.8465237  21.2188251   8.0515423 100.0312490
  24.3812675   8.3384988 100.6314561  24.9757166   8.0980724  99.9207869
  24.4539259   7.6192118 101.2588097   6.6009831  22.1818599 100.9457726
   6.4664299  21.4218999 100.3795724   6.1841893  22.9059498 100.4786515
  17.7368794  17.3655522  89.9534301  18.4404644  17.5705525  90.5691957
  17.0131443  17.9332284  90.2183385  18.5666604  13.1165383  96.0736571
  18.5101806  13.5733935  95.2344204  19.1194947  12.3556068  95.8959414
  22.3771410   8.9055115  96.8986691  22.1208344   8.5051751  97.7294899
  21.7524278   9.6198909  96.7736830  26.6883748  11.6451188  99.4057982
  26.1283306  11.7144378 100.1789544  26.0827251  11.4692173  98.6857479
   9.7578957  23.0787916 101.1576169   9.6411341  24.0233348 101.0554859
   8.9371403  22.7761477 101.5461968  19.6455491  17.8038051  92.0032761
  20.4801095  17.3719250  91.8210236  19.4839834  17.6320065  92.9309656
  19.3001384  14.3070165  93.3689101  19.2450187  14.1414436  92.4277545
  18.6747439  15.0146198  93.5251290  10.7833471  23.7316177 104.3732097
  11.6860718  23.7639788 104.6898592  10.5570841  22.8016628 104.3878433
  12.5387073  22.4847164 101.0342176  11.5882704  22.4849026 100.9206548
  12.8419559  21.7379899 100.5178210  28.2739766  28.3207702 102.0987938
  28.9118176  28.2014450 101.3951278  28.1560609  29.2688546 102.1575890
  25.0829473  28.2735131 102.0349463  24.7447984  28.1576195 101.1469998
  25.9519241  27.8726296 102.0150469  20.9416288  30.1270607  98.0246354
  20.3781154  30.0360544  97.2562641  20.8268683  29.3070511  98.5048846
  25.5649256  29.4269982 107.9935668  25.5537896  29.0322781 107.1216172
  25.7269895  28.6936055 108.5869440  18.4880720  31.6221799 100.8630574
  19.2802012  31.2812623 100.4476873  18.7277370  31.7316774 101.7832727
  26.5215847  33.7941575  93.3360819  25.8703827  34.3795655  92.9494832
  27.3160210  34.3247770  93.3955856  20.4471474  30.8830712  93.7347953
  21.2202350  30.3359699  93.5960829  20.7996873  31.7474961  93.9462414
  22.2856517  32.2107094 106.9414852  21.9946383  33.1152725 106.8261519
  22.9213501  32.2523622 107.6558922  23.2112724  29.5883943 103.5316212
  23.8076296  29.3639965 102.8173175  23.2687695  28.8468688 104.1341660
  22.7837752  27.0423378  91.3666403  23.0363273  26.5204899  90.6049866
  21.8462311  26.8789523  91.4693086  27.8281035  26.0459156  99.1741146
  28.6144124  25.6278579  98.8231563  28.0919739  26.9505248  99.3422794
  27.9991112  31.4832007  93.8729803  27.3636945  31.5566633  94.5850708
  27.6688519  32.0725605  93.1948882  33.2289462  25.9834389 100.0774125
  33.9614634  25.4133606 100.3111954  32.4728818  25.5955990 100.5180630
  22.5034041  28.9451484  93.5690778  22.3870299  28.2696387  94.2371862
  22.6136301  28.4583858  92.7522931  24.8465582  28.4061631  97.2737467
  24.4823789  27.8792252  97.9850389  25.7032698  28.0160100  97.1003952
  30.7514882  19.6955964 104.5368733  30.4198207  20.5651375 104.3129948
  30.1560496  19.3792248 105.2162764  24.4871069  23.4351531  92.2698816
  24.6545471  24.3031767  92.6369287  24.2968238  23.5978812  91.3460105
  27.2446402  31.8968510 103.9364646  26.9447125  32.7993548 103.8280453
  26.8997461  31.6300693 104.7885799  20.6958883  28.3482306  99.9701350
  19.7709380  28.2158521 100.1779042  20.9443297  29.1276526 100.4671293
  30.6443546  24.4151050 101.6162083  29.7360423  24.3466458 101.3220844
  30.5931141  24.8922995 102.4443909  24.4660290  25.8909188  93.2545482
  24.3459915  26.3366239  94.0930963  23.7712878  26.2394506  92.6959021
  18.0567694  27.9915580 100.8045139  18.1860076  28.2450059 101.7184551
  17.3765146  28.5843288 100.4849795  22.2267182  38.6612830  96.9035614
  22.1491211  39.6120655  96.9824094  21.6228825  38.3158702  97.5610540
  24.7184411  25.8340695 109.5596981  23.9417746  26.3934615 109.5499845
  25.3574975  26.3197478 110.0811851  32.5105192  22.6167488 103.3939957
  31.8679572  22.9100021 102.7479752  32.0060121  22.5020409 104.1993154
  30.1645356  26.3630661  94.0825816  31.0763212  26.5958048  93.9073514
  29.6555003  26.9467706  93.5200895  22.9730784  28.6426149 109.1214948
  23.7145468  29.1811193 108.8449771  22.2667769  29.2692437 109.2786499
  28.4486123  30.7855289 107.7187109  28.8569479  30.3437700 106.9741741
  27.7263385  30.2107917 107.9721302  24.8017193  25.7227896 105.0920666
  25.6478389  26.1467310 105.2355315  24.7415831  25.0661520 105.7859229
  28.7714938  31.3456480 101.4739398  28.1423801  31.5102194 100.7715466
  28.3840600  31.7598089 102.2450362  32.6504170  32.2810918  98.8283762
  31.9655208  32.6609819  98.2780795  32.7348019  32.8906244  99.5615709
  27.9516639  23.3832264 106.7501840  27.7077571  24.1374325 106.2136115
  28.2276569  23.7617612 107.5849087  29.9055102  29.9270877 105.4279105
  30.1171997  30.5702637 104.7513486  29.8584850  29.0933193 104.9601035
  27.5081331  22.5388697 102.3315677  26.6465810  22.8369951 102.6232415
  27.5343765  22.7559096 101.3996710  24.3242900  31.0830888  98.7389483
  24.7881245  31.3618591  97.9494106  24.0599698  30.1814332  98.5562574
  21.2166981  30.6302369 101.6769246  21.7868338  31.0589638 101.0386731
  21.8075093  30.3484954 102.3753432  23.2611786  27.2054040  95.5479048
  23.9635829  27.6575084  96.0152975  22.9292414  26.5637859  96.1758941
  21.7092148  25.7965797 109.9230258  21.0790808  26.4782078 110.1565654
  21.6028235  25.6848878 108.9783396  17.0037120  25.4637593 100.8496182
  16.2136174  25.7195121 100.3736292  17.4948367  26.2785931 100.9548222
  31.0200930  32.8042832 103.6001463  31.8418373  32.4023019 103.3184144
  31.0163332  32.7011066 104.5517578  18.9551865  25.8282172  97.8079658
  18.1583029  25.9400866  98.3263154  18.7277458  26.1668824  96.9420549
  24.7857533  32.3526875 105.7562173  24.8501965  32.8147283 106.5920345
  24.0768457  31.7224240 105.8844483  15.2874823  25.7168083 103.2811173
  15.5382861  26.6015093 103.5468748  15.8234371  25.5372685 102.5086264
  39.1106923  29.1481581  99.9486434  38.3570631  28.5788979  99.7930438
  39.2454464  29.1144245 100.8957069  24.5005551  34.0194983  95.6241153
  24.3651225  34.8646519  96.0526001  25.0415363  34.2214261  94.8607087
  17.9534948  31.5370421  96.1969078  18.4659469  32.3313671  96.3474643
  18.6057661  30.8396711  96.1302680  19.7629833  34.6536177  98.2791832
  19.9396461  35.5754142  98.0912816  20.5586666  34.3394596  98.7086211
  23.9040851  21.5144442 109.8775765  24.6450565  22.1151595 109.7980228
  24.1358774  20.7722080 109.3193808  19.0482189  26.7000809 108.1553995
  18.9335704  25.7986066 108.4561094  18.1926707  26.9464506 107.8038811
  26.1274027  34.6418549 109.7541495  25.6837881  33.8554928 109.4362400
  26.7891241  34.8297700 109.0885386  20.8861148  36.1714351 104.2802174
  21.4368573  36.0431414 103.5079168  20.0472624  36.4709240 103.9297067
  28.2255265  34.9221349 107.7822897  28.2073740  35.7430230 107.2903166
  29.1475185  34.7975425 108.0073038  24.6828319  32.4365479 108.6246405
  25.2156656  31.6753767 108.3945713  24.1542400  32.1439131 109.3670560
  27.8498014  17.5425545 104.1540047  27.5062284  18.4327186 104.0779157
  28.2176977  17.3527202 103.2909632  15.9183865  29.8659075  96.9728649
  16.7559087  30.2756084  96.7562357  16.0962132  28.9258517  96.9428843
  27.8148297  27.5334156  92.6612482  27.2994920  28.3038761  92.9000869
  27.5425605  26.8599292  93.2845543  25.3995408  22.3783857  97.7197720
  24.5437004  21.9890707  97.5403359  25.8122360  22.4575817  96.8597506
  26.9294555  19.9130200 102.1189280  26.4259350  19.8760335 101.3057085
  27.2225161  20.8222943 102.1785937  23.1737440  19.9968930 101.1255462
  24.0390437  19.8011738 100.7661351  23.2414949  19.7679281 102.0524819
  32.7882571  30.2866511  94.5965655  32.0112014  29.9477670  94.1520818
  33.4674052  30.2919134  93.9220620  27.6034600  25.4061248  94.4872263
  27.2984736  25.7207397  95.3382406  28.5565042  25.4842668  94.5299596
  26.0481032  31.5651471  96.1365217  25.5202394  30.8304231  95.8238455
  25.5468535  32.3426148  95.8905185  31.0273878  29.7600492 101.2532263
  30.3697552  30.4499753 101.3412392  31.8314277  30.1496924 101.5966250
  20.7799760  22.2271138  98.4971829  21.3543511  22.0046319  97.7645022
  21.3670742  22.2959832  99.2500430  29.8379337  28.1144864  99.3036205
  30.3511218  28.7474856  99.8057915  30.4880561  27.5146060  98.9379565
  21.1069347  24.2575599  92.5167714  20.2706659  24.5950285  92.8376989
  20.9674116  24.1224578  91.5794851  23.0822427  19.1012386  97.2246898
  22.4286840  18.7861404  96.6003513  23.0402901  18.4788127  97.9506721
  24.1933632  29.3831682  89.1400190  23.2860694  29.1520935  89.3391339
  24.6904664  28.5869301  89.3274172  27.1001711  38.0929189  92.0596876
  26.4263410  38.3960885  92.6681834  27.4867533  38.8958269  91.7102333
  26.3160168  25.5894320 101.5494546  25.3982729  25.8109267 101.3916234
  26.7320311  25.6640630 100.6906253  27.0995215  26.9885736  96.6797226
  27.8467034  27.5007133  96.3704348  27.3686805  26.6669788  97.5401620
  25.3721866  29.4844276  93.6624180  24.4633085  29.2003309  93.7596650
  25.4016949  29.9043355  92.8027487  30.6041133  33.0950866  97.4315348
  30.1503460  32.2541776  97.4880538  29.9735100  33.7312264  97.7690128
  29.5474053  24.0242852  98.6616015  28.8096809  23.5120238  98.9926258
  29.8000826  23.5843234  97.8499292  29.0474072  34.9327363  98.3665166
  29.3397047  35.4932420  97.6477532  29.5572693  35.2255924  99.1218325
  29.6485680  16.8019104  99.2557785  29.9544557  15.9416467  98.9683700
  30.3738285  17.3936724  99.0556778  15.9410036  27.2049791  97.6439382
  15.7434436  26.6119151  96.9190449  15.3856700  26.9002001  98.3615321
  23.9206760  27.0972897  99.7633976  23.9755369  26.1446733  99.6876452
  23.1097962  27.2532336 100.2475274  25.0697953  31.0253020  91.0012259
  24.6317383  30.3088879  90.5417896  25.8108394  31.2529135  90.4397350
  21.8599120  25.7149957  97.5224354  21.0466985  26.0144127  97.9289547
  22.3558114  25.3205646  98.2398837  24.0107697  35.7107714  99.4558619
  23.9683876  35.9368560  98.5267151  24.9270396  35.4771088  99.6044420
  27.4573331  26.1791781 106.3539248  27.8122719  26.4063254 107.2133714
  28.1045462  26.5110158 105.7316504  33.1871068  29.3010217  97.0588577
  33.0488967  29.4911813  96.1309767  32.8307287  30.0629600  97.5156629
  21.3513194  23.2868312 103.1385589  21.9912574  23.1457071 102.4408553
  20.5190725  23.0002826 102.7624191  33.2140448  31.3686744 102.0699849
  33.6476954  31.2762033 102.9182903  33.9272028  31.3444245 101.4319865
  22.1273498  32.5870743  99.2520582  22.9214097  32.0921063  99.0503157
  21.4165191  32.0588606  98.8888287  26.9468343  34.9688838 103.6032949
  27.0005365  35.5379775 104.3710665  26.0783124  35.1390723 103.2386987
  18.4356262  26.7313824  95.3280335  17.5053850  26.6698280  95.5450297
  18.5313734  26.2089777  94.5316976  18.3541811  23.2568637  97.9158576
  18.6148628  24.1713971  97.8067737  19.1758983  22.7893080  98.0655189
  19.8266736  24.6706394 105.0857401  20.4989789  24.4623757 104.4370050
  18.9996523  24.4728480 104.6462633  34.0755997  31.4110445 104.6032734
  34.2691887  32.3156255 104.8492009  33.9756615  30.9517864 105.4371319
  25.7292308  21.2968335 107.1023062  25.0820223  21.9958285 107.0087538
  26.4993323  21.7304479 107.4699310  29.1371106  31.5617188 110.1773615
  28.9856612  31.3327739 109.2603699  29.1275785  32.5187789 110.1904960
  25.9056442  29.1349100 105.1619881  26.8348502  29.2860260 104.9888849
  25.4847472  29.2233121 104.3068528  24.7044774  33.1599765 102.9318419
  24.5655860  32.7918549 103.8044357  23.9159370  33.6747404 102.7602377
  25.2992926  38.2608861  94.2743955  25.4744682  37.7896904  95.0889578
  24.6125714  38.8874627  94.5025216  26.2549989  32.5381367 100.3207257
  25.9199822  32.4982137 101.2164907  25.7553935  31.8726083  99.8477667
  20.2294233  27.9448997 105.8459838  20.0914031  27.2129236 106.4471377
  21.1399157  27.8557898 105.5644026  29.1909181  29.8837402  90.5944316
  28.5738352  29.1584230  90.4977369  28.7225669  30.6446762  90.2511391
  22.8576534  27.6568957 105.3343518  23.5676152  27.0162149 105.2930136
  22.8145842  27.9081852 106.2569698  30.8463313  34.5936310 108.2550097
  30.7875859  33.9095530 107.5880680  31.2482831  35.3355300 107.8030723
  21.5705468  24.6434175 107.1539157  21.0342825  24.1924913 107.8060753
  20.9822176  24.7780083 106.4109621  19.8654011  41.4098224 101.0483816
  20.1050610  42.0416748 101.7262834  19.0223208  41.0586264 101.3349175
  20.9807727  24.1022826  89.7165621  20.1037193  23.9811627  89.3527867
  21.4565480  23.3108904  89.4644509  30.8480720  32.5575894 106.4864076
  29.9607499  32.2201816 106.6090475  31.4179271  31.8258925 106.7232842
  12.5009867  28.8899986  99.8107128  13.1880907  28.5761716  99.2228143
  12.3457996  29.7941350  99.5374379  17.3044589  23.7790182 104.2392152
  17.2202778  23.1715852 103.5042561  16.4827296  24.2699201 104.2401648
  24.3781873  37.2177346 103.4525320  24.3052045  38.0232318 103.9644624
  23.9359266  37.4169312 102.6273341  24.1671653  36.4549116  96.9628141
  23.3839175  36.9970797  97.0566366  24.8664398  36.9723096  97.3622382
  27.4768303  22.2643746  99.6062347  27.9737003  21.5113708  99.2863417
  26.7055285  22.3008063  99.0405556  35.3298060  27.9684111 101.2480638
  35.3187937  28.8508827 100.8774571  34.4615440  27.6155662 101.0535175
  26.8380557  37.1164180 105.6083478  27.5508529  37.7511645 105.5359380
  26.3470585  37.2128046 104.7923480  28.5598084  31.0215433  97.1800770
  27.6254362  31.1416896  97.0105474  28.7374752  30.1187900  96.9160780
  24.0603272  24.4061129  99.3334031  23.6901059  23.8532169 100.0214937
  24.5562364  23.8019262  98.7809031  31.9470635  26.8632752  97.7150804
  32.4131087  27.6960744  97.6411107  32.3978136  26.3977734  98.4196063
  21.8892470  34.8658624 106.4289049  22.5901930  35.4995107 106.5818443
  21.4187585  35.2073355 105.6684688  30.0146866  33.2076574  94.7136956
  30.2906710  33.0933168  95.6230830  29.1451365  32.8094059  94.6749129
  29.9187298  19.2313339 101.7541705  29.0050378  19.4617566 101.9223912
  30.3480399  19.3151783 102.6055738  29.6893756  27.4203231 104.2541599
  29.0365207  27.6679139 103.5994052  30.0674136  26.6067370 103.9204077
  26.6500930  37.4562924  98.3569770  26.8323325  36.6384580  98.8197522
  27.4733916  37.6730617  97.9194660  26.9843096  36.3831110  95.6184818
  27.5130862  35.8723564  95.0054980  27.2471315  36.0673640  96.4830351
  25.7381329  28.1623042 110.7407637  25.0621966  28.0617172 111.4110012
  26.5608963  28.0062256 111.2043634  17.4860188  34.3994979 103.3620152
  18.0713625  33.6538667 103.4948056  17.2885027  34.7098936 104.2456816
  20.3398844  37.4346226  98.3782594  19.6709219  37.9192354  97.8946634
  20.2011713  37.6815447  99.2925973  12.0777843  26.9700579 102.0824595
  12.1161943  26.4364170 102.8761713  11.5718136  26.4435785 101.4635572
  24.4804112  39.4689970 104.9765253  25.0322420  39.6321591 105.7414338
  24.8210306  40.0594408 104.3045277  19.4568605  21.8165120 105.5787137
  19.5209932  22.6779951 105.1664535  19.3935726  21.2039121 104.8459496
  18.9320878  23.8888252 109.2260172  19.5592917  23.5065329 109.8397696
  18.0748797  23.6702454 109.5915864  29.3314987  34.2951227 110.8313907
  29.8754891  34.9081186 110.3368862  28.7501831  34.8530806 111.3480920
  15.7086421  25.6964681  95.1578526  16.0039862  24.7875360  95.1045580
  14.8074456  25.6752421  94.8359529  27.6172499  37.4171945 101.9628935
  27.4923639  36.6161685 101.4539880  28.2751591  37.9118139 101.4742905
  19.2380668  23.7720678 101.1406075  18.5167253  24.3856646 101.0013548
  20.0273923  24.3078443 101.0622721  29.6807408  35.2180965 103.5908485
  28.7337743  35.0986317 103.5186812  30.0290181  34.3303463 103.6734746
  22.0406981  21.1075104 107.4146727  22.5641383  21.3537401 108.1773036
  21.8219315  21.9395139 106.9949864  17.4374262  23.3778779  95.2817851
  17.1086968  22.4976158  95.0992957  17.7913633  23.3226448  96.1694241
  26.6853841  35.0133682  99.7912837  26.5378804  34.0850389  99.9720407
  27.5107335  35.0353772  99.3069912  20.5516085  23.6651749  95.6493329
  20.8912158  24.1937670  94.9271938  20.9988206  24.0032155  96.4251896
  30.2887963  35.8362240 100.8777710  31.2134510  35.6305102 100.7402161
  30.1203266  35.5878642 101.7867051  23.2459526  22.0488799 105.0996397
  22.9056347  21.2496613 105.5017077  22.5398533  22.3490510 104.5273230
  23.8975998  19.1338112 103.5523720  24.7202067  18.6598590 103.4302611
  24.1414062  19.9128596 104.0522407  22.5384233  22.1626370  93.8486622
  23.2592595  22.5407623  93.3450339  21.9149537  22.8815247  93.9521600
  26.6815355  22.8671519  94.7844954  26.8978970  23.7496157  94.4833782
  26.2009423  22.4757733  94.0550596  21.4214577  25.8257233 101.3615699
  21.2759158  26.1397536 102.2539980  20.9439780  26.4442133 100.8086598
  23.2810960  22.8159781 101.4096588  23.2672529  21.9200874 101.0728886
  23.9983388  22.8230444 102.0434874  25.1337090  23.2497121 103.4549716
  24.8754868  24.1714191 103.4534046  24.6022131  22.8527555 104.1450180
  30.0783279  36.3547908  96.2339801  30.2520157  35.7894330  95.4813654
  30.5712170  37.1548803  96.0519291  15.8960239  28.3662577 104.3003360
  15.3513707  29.1422385 104.4323634  16.7739589  28.7133381 104.1422481
  22.6847856  21.6974161  96.6784159  22.8063767  20.7690807  96.8775046
  22.3949898  21.7112847  95.7662474  25.5539046  19.3829071  99.8150878
  25.5760743  19.4468404  98.8602858  25.9707105  18.5433580 100.0091385
  35.9322670  29.1184331  97.8530101  36.3753816  28.3691656  97.4549224
  35.0549181  29.1094467  97.4703833  31.0658452  35.6714672  93.3336700
  31.7609356  36.2921365  93.5524014  31.4081602  34.8210023  93.6089077
  16.6826261  27.4932473 107.1933517  15.9407997  27.6415109 107.7798147
  16.3619005  27.7540739 106.3300266  32.9649875  33.1214378  94.8624030
  33.4901199  33.4601651  94.1373350  32.8772227  32.1861393  94.6787165
  24.6269924  37.0348451 106.9913907  24.9357050  36.7897598 107.8636607
  25.4245406  37.2395090 106.5032777  24.6490536  39.1886361  99.2219283
  24.2095526  38.6962740  99.9152140  25.3998653  38.6459329  98.9811359
  17.1282875  35.3797902  99.2243912  17.9540894  35.0801674  98.8442555
  16.7776927  34.6105524  99.6733700  22.0964408  34.7324370 101.2941585
  21.4744417  34.0695075 100.9943813  22.7669275  34.7585502 100.6115233
  15.3291480  33.2984228 100.1832845  14.4923388  32.8706403 100.0016846
  15.3015125  33.4916672 101.1203636  22.1688935  23.2106158 110.8874091
  22.2177091  24.0868281 110.5051861  22.7111449  22.6683551 110.3145734
  32.6543781  33.7547281 110.1675228  31.8639325  33.7371420 109.6279728
  32.4177135  34.2935575 110.9224265  32.7741656  30.6039748 107.4807957
  32.8239661  30.4389755 108.4223480  32.6655579  29.7367007 107.0905838
  21.6577915  33.2828293  94.7700046  21.8066035  33.9663758  94.1166718
  22.4644358  33.2633384  95.2849501  30.0645418  26.5870676 108.7967263
  30.9655281  26.4477141 108.5051261  30.1393393  26.7525131 109.7365441
  24.3988224  23.9637531 107.6420450  23.5291533  24.2571097 107.3703038
  24.6347704  24.5477976 108.3627713  34.2759853  33.0236689 107.7249978
  33.9844661  33.3866670 108.5613439  33.6631984  32.3103698 107.5463310
  35.4755535  30.5889569 100.2452549  36.3102426  31.0279373 100.4090109
  35.6114664  30.1128222  99.4260794  32.5247041  28.1469304 106.1930036
  33.0001163  28.3396950 105.3848888  31.6012606  28.2028490 105.9473420
  19.4130548  29.3093471  95.7761115  19.1676590  28.4055801  95.9741325
  19.5826462  29.3110622  94.8340593  27.1027258  20.1817147 105.1585870
  27.6209201  20.9178174 104.8332359  26.7482390  20.4881141 105.9932629
  18.6826195  25.0421829  93.2747276  17.9895440  25.1166184  92.6187312
  18.4377947  24.2782172  93.7968793  27.3539852  16.6017430 100.6786767
  27.6341605  15.9340619 101.3047193  28.1390459  16.7946526 100.1661431
  25.1573320  35.7776424  92.2411793  24.5847287  36.3966611  91.7882265
  25.7306114  36.3275786  92.7751715  31.2248710  25.0235064 104.4258342
  32.1766133  25.1233162 104.4470566  31.0552160  24.2313333 104.9356426
  29.2463089  22.1090647 104.6117743  28.6513022  22.3895660 103.9164231
  28.9612786  22.5984548 105.3834484  28.3770580  36.0613574  93.3720375
  29.3101253  35.9959136  93.5753251  28.2893793  36.8969841  92.9134908
  31.0058597  35.3779444  90.3324323  30.9272228  35.0439308  91.2260081
  31.8268263  35.8701212  90.3315795  33.7036788  28.2441184 103.5400642
  33.6713108  27.3057184 103.7260325  34.3137411  28.3225220 102.8066466
  25.5420119  27.1137237  89.5827846  26.4879223  26.9843445  89.6516264
  25.1634364  26.3751899  90.0597274  33.8531276  25.0352227 103.5858925
  33.3370325  24.2510684 103.3988854  34.7371225  24.7070944 103.7505444
  31.5142003  18.7793243  99.5454737  31.3166824  18.4708331 100.4298069
  32.1241709  19.5054882  99.6752667  39.5213338  29.3057191 102.6806678
  40.2516726  29.0442479 103.2414382  38.9120283  28.5685912 102.7208746
  37.6028635  27.4465053 103.2781130  36.8761798  27.3121018 102.6697621
  37.1875922  27.7541882 104.0837848  25.4258811  31.1654983 111.0428503
  26.3461821  31.3433582 111.2368549  25.3908394  30.2211028 110.8908202
  23.7263036  25.0387213  89.5182731  22.8194491  24.7420326  89.5945444
  24.0039017  24.7417031  88.6517017  14.6440976  26.3593576  99.9681777
  14.3243761  25.5058885  99.6756151  14.0974404  26.5742155 100.7239745
  18.4220884  29.0756017 103.6851284  18.6406894  30.0073125 103.7039318
  18.8346658  28.7163992 104.4706088  25.3425102  19.5824103  95.6726972
  24.5325830  19.2371188  96.0482218  26.0309518  19.2731647  96.2614584
  27.2715650  18.6602150  97.2951269  27.8246688  19.0797603  97.9541292
  27.5085736  17.7337898  97.3374225  23.2948749  24.6489223 113.0754033
  23.1945476  25.5983580 113.0066124  23.0770291  24.3207462 112.2030103
  22.4961820  21.8974148  89.6594710  23.3580984  22.2229047  89.9190527
  22.6812165  21.1105644  89.1467776  14.5129236  29.9796488 101.9374899
  13.8192708  29.5650441 101.4244853  15.2602227  30.0217024 101.3408318
  30.6494457  20.7702675  96.8029933  30.0693126  21.4287479  96.4207985
  30.3830390  19.9480019  96.3917351  29.0998023  20.1707732  99.0051253
  29.5997802  20.2824267  98.1965572  29.7433631  19.8668785  99.6452062
  23.1580019  28.0786362 111.8919094  22.6747101  28.8786722 112.0982983
  23.2440958  28.0894307 110.9386538  16.4265979  29.9114742  99.8140914
  16.4036667  30.0102429  98.8622797  16.7366615  30.7579893 100.1358080
  19.0853357  31.9690897 103.9287528  20.0396610  31.9374839 103.8617460
  18.8865880  31.5081521 104.7437754  19.6752739  30.5392013 106.4958326
  20.4945628  31.0336091 106.5193163  19.9489546  29.6223981 106.4675893
  29.4319335  22.9302765  95.8586281  28.5445190  23.2152416  95.6406476
  29.8473324  22.7696529  95.0113558  32.7833871  22.9549286  99.5740621
  33.5594261  23.4445739  99.8465237  32.0582005  23.3807340 100.0312490
  35.2206430  23.6676905 100.6314561  35.8150921  23.4272641  99.9207869
  35.2933013  22.9484036 101.2588097  17.4403585  37.5110516 100.9457726
  17.3058053  36.7510917 100.3795724  17.0235648  38.2351416 100.4786515
  28.5762548  32.6947440  89.9534301  29.2798399  32.8997442  90.5691957
  27.8525197  33.2624202  90.2183385  29.4060359  28.4457301  96.0736571
  29.3495560  28.9025852  95.2344204  29.9588701  27.6847986  95.8959414
  33.2165165  24.2347033  96.8986691  32.9602099  23.8343669  97.7294899
  32.5918033  24.9490827  96.7736830  37.5277502  26.9743106  99.4057982
  36.9677060  27.0436295 100.1789544  36.9221006  26.7984091  98.6857479
  20.5972711  38.4079833 101.1576169  20.4805095  39.3525266 101.0554859
  19.7765158  38.1053395 101.5461968  30.4849246  33.1329969  92.0032761
  31.3194850  32.7011167  91.8210236  30.3233589  32.9611983  92.9309656
  30.1395138  29.6362082  93.3689101  30.0843942  29.4706354  92.4277545
  29.5141193  30.3438115  93.5251290  14.9287653  24.8730147 107.1950523
  15.5746517  24.3629101 107.6837748  14.7204804  25.6098828 107.7693948
  27.4541045  31.9410994 112.6942663  28.3232205  32.1151646 112.3329298
  26.9747797  32.7605411 112.5718393  23.4491263  19.1370191  92.9474419
  23.4369933  20.0812031  93.1042690  24.3414685  18.9540337  92.6533880
  21.6227225  39.0608095 104.3732097  22.5254472  39.0931705 104.6898592
  21.3964595  38.1308546 104.3878433  23.3780827  37.8139082 101.0342176
  22.4276458  37.8140943 100.9206548  23.6813314  37.0671816 100.5178210
  27.2643383  15.7312968  97.2020356  26.4975779  15.1771455  97.3477038
  27.6754088  15.8034837  98.0634507  39.1133521  43.6499620 102.0987938
  39.7511931  43.5306367 101.3951278  38.9954364  44.5980464 102.1575890
  35.9223227  43.6027048 102.0349463  35.5841739  43.4868113 101.1469998
  36.7912995  43.2018213 102.0150469  31.7810043  45.4562525  98.0246354
  31.2174908  45.3652462  97.2562641  31.6662438  44.6362429  98.5048846
  36.4043010  44.7561900 107.9935668  36.3931651  44.3614698 107.1216172
  36.5663650  44.0227973 108.5869440  29.3274475  46.9513716 100.8630574
  30.1195767  46.6104541 100.4476873  29.5671125  47.0608691 101.7832727
  37.3609602  49.1233492  93.3360819  36.7097581  49.7087573  92.9494832
  38.1553964  49.6539687  93.3955856  31.2865229  46.2122629  93.7347953
  32.0596105  45.6651617  93.5960829  31.6390628  47.0766879  93.9462414
  33.1250271  47.5399012 106.9414852  32.8340137  48.4444643 106.8261519
  33.7607256  47.5815539 107.6558922  34.0506478  44.9175860 103.5316212
  34.6470050  44.6931883 102.8173175  34.1081450  44.1760606 104.1341660
  33.6231507  42.3715296  91.3666403  33.8757027  41.8496817  90.6049866
  32.6856066  42.2081441  91.4693086  38.6674789  41.3751074  99.1741146
  39.4537879  40.9570497  98.8231563  38.9313494  42.2797166  99.3422794
  38.8384867  46.8123924  93.8729803  38.2030700  46.8858551  94.5850708
  38.5082273  47.4017523  93.1948882  44.0683217  41.3126307 100.0774125
  44.8008388  40.7425524 100.3111954  43.3122572  40.9247908 100.5180630
  33.3427795  44.2743402  93.5690778  33.2264053  43.5988305  94.2371862
  33.4530055  43.7875775  92.7522931  35.6859336  43.7353549  97.2737467
  35.3217543  43.2084170  97.9850389  36.5426452  43.3452018  97.1003952
  41.5908637  35.0247881 104.5368733  41.2591962  35.8943292 104.3129948
  40.9954250  34.7084165 105.2162764  35.3264823  38.7643448  92.2698816
  35.4939226  39.6323685  92.6369287  35.1361992  38.9270730  91.3460105
  38.0840156  47.2260427 103.9364646  37.7840879  48.1285466 103.8280453
  37.7391216  46.9592610 104.7885799  31.5352638  43.6774224  99.9701350
  30.6103134  43.5450438 100.1779042  31.7837051  44.4568443 100.4671293
  41.4837300  39.7442967 101.6162083  40.5754178  39.6758376 101.3220844
  41.4324896  40.2214912 102.4443909  35.3054044  41.2201106  93.2545482
  35.1853669  41.6658157  94.0930963  34.6106632  41.5686424  92.6959021
  28.8961449  43.3207498 100.8045139  29.0253830  43.5741977 101.7184551
  28.2158900  43.9135206 100.4849795  33.0660936  53.9904748  96.9035614
  32.9884966  54.9412573  96.9824094  32.4622580  53.6450620  97.5610540
  35.5578166  41.1632613 109.5596981  34.7811500  41.7226533 109.5499845
  36.1968729  41.6489396 110.0811851  43.3498947  37.9459406 103.3939957
  42.7073327  38.2391939 102.7479752  42.8453875  37.8312326 104.1993154
  41.0039110  41.6922579  94.0825816  41.9156966  41.9249966  93.9073514
  40.4948757  42.2759623  93.5200895  33.8124538  43.9718066 109.1214948
  34.5539223  44.5103110 108.8449771  33.1061524  44.5984355 109.2786499
  39.2879878  46.1147207 107.7187109  39.6963234  45.6729617 106.9741741
  38.5657139  45.5399834 107.9721302  35.6410948  41.0519814 105.0920666
  36.4872143  41.4759227 105.2355315  35.5809586  40.3953438 105.7859229
  39.6108693  46.6748397 101.4739398  38.9817555  46.8394112 100.7715466
  39.2234355  47.0890007 102.2450362  43.4897924  47.6102835  98.8283762
  42.8048963  47.9901737  98.2780795  43.5741774  48.2198162  99.5615709
  38.7910393  38.7124182 106.7501840  38.5471325  39.4666243 106.2136115
  39.0670324  39.0909530 107.5849087  40.7448856  45.2562794 105.4279105
  40.9565751  45.8994554 104.7513486  40.6978604  44.4225111 104.9601035
  38.3475085  37.8680615 102.3315677  37.4859564  38.1661869 102.6232415
  38.3737520  38.0851014 101.3996710  35.1636654  46.4122806  98.7389483
  35.6275000  46.6910509  97.9494106  34.8993453  45.5106250  98.5562574
  32.0560736  45.9594287 101.6769246  32.6262093  46.3881555 101.0386731
  32.6468847  45.6776872 102.3753432  34.1005540  42.5345958  95.5479048
  34.8029584  42.9867002  96.0152975  33.7686169  41.8929777  96.1758941
  32.5485902  41.1257715 109.9230258  31.9184563  41.8073995 110.1565654
  32.4421990  41.0140796 108.9783396  27.8430874  40.7929511 100.8496182
  27.0529928  41.0487039 100.3736292  28.3342122  41.6077848 100.9548222
  41.8594684  48.1334750 103.6001463  42.6812128  47.7314937 103.3184144
  41.8557087  48.0302984 104.5517578  29.7945620  41.1574090  97.8079658
  28.9976783  41.2692784  98.3263154  29.5671212  41.4960742  96.9420549
  35.6251287  47.6818793 105.7562173  35.6895720  48.1439200 106.5920345
  34.9162211  47.0516158 105.8844483  26.1268577  41.0460001 103.2811173
  26.3776616  41.9307011 103.5468748  26.6628126  40.8664603 102.5086264
  49.9500677  44.4773498  99.9486434  49.1964385  43.9080896  99.7930438
  50.0848218  44.4436163 100.8957069  35.3399305  49.3486901  95.6241153
  35.2044980  50.1938436  96.0526001  35.8809118  49.5506178  94.8607087
  31.8266645  35.4278480 112.2855509  31.4333590  34.8744679 112.9603153
  32.6432785  35.7389059 112.6762026  28.7928703  46.8662339  96.1969078
  29.3053223  47.6605589  96.3474643  29.4451415  46.1688629  96.1302680
  30.6023587  49.9828095  98.2791832  30.7790216  50.9046060  98.0912816
  31.3980421  49.6686514  98.7086211  34.7434606  36.8436360 109.8775765
  35.4844319  37.4443513 109.7980228  34.9752529  36.1013997 109.3193808
  29.8875944  42.0292727 108.1553995  29.7729459  41.1277984 108.4561094
  29.0320461  42.2756424 107.8038811  36.9667781  49.9710467 109.7541495
  36.5231636  49.1846846 109.4362400  37.6284995  50.1589618 109.0885386
  31.7254903  51.5006269 104.2802174  32.2762328  51.3723332 103.5079168
  30.8866379  51.8001158 103.9297067  39.0649020  50.2513267 107.7822897
  39.0467495  51.0722148 107.2903166  39.9868940  50.1267342 108.0073038
  35.5222074  47.7657396 108.6246405  36.0550411  47.0045685 108.3945713
  34.9936155  47.4731048 109.3670560  38.6891769  32.8717462 104.1540047
  38.3456038  33.7619104 104.0779157  39.0570731  32.6819120 103.2909632
  26.7577619  45.1950993  96.9728649  27.5952841  45.6048001  96.7562357
  26.9355887  44.2550435  96.9428843  38.6542051  42.8626074  92.6612482
  38.1388675  43.6330678  92.9000869  38.3819360  42.1891210  93.2845543
  36.2389162  37.7075774  97.7197720  35.3830759  37.3182625  97.5403359
  36.6516114  37.7867735  96.8597506  37.7688309  35.2422118 102.1189280
  37.2653105  35.2052253 101.3057085  38.0618916  36.1514860 102.1785937
  34.0131195  35.3260847 101.1255462  34.8784192  35.1303656 100.7661351
  34.0808704  35.0971199 102.0524819  43.6276326  45.6158428  94.5965655
  42.8505768  45.2769588  94.1520818  44.3067807  45.6211051  93.9220620
  38.4428355  40.7353166  94.4872263  38.1378490  41.0499315  95.3382406
  39.3958797  40.8134586  94.5299596  36.8874786  46.8943389  96.1365217
  36.3596148  46.1596149  95.8238455  36.3862289  47.6718065  95.8905185
  41.8667632  45.0892409 101.2532263  41.2091307  45.7791671 101.3412392
  42.6708032  45.4788841 101.5966250  31.6193514  37.5563055  98.4971829
  32.1937266  37.3338237  97.7645022  32.2064496  37.6251750  99.2500430
  40.6773091  43.4436782  99.3036205  41.1904973  44.0766774  99.8057915
  41.3274315  42.8437978  98.9379565  31.9463101  39.5867516  92.5167714
  31.1100413  39.9242203  92.8376989  31.8067871  39.4516496  91.5794851
  33.9216182  34.4304304  97.2246898  33.2680594  34.1153321  96.6003513
  33.8796656  33.8080045  97.9506721  37.1553922  40.9186238 101.5494546
  36.2376483  41.1401185 101.3916234  37.5714066  40.9932548 100.6906253
  37.9388970  42.3177653  96.6797226  38.6860789  42.8299051  96.3704348
  38.2080559  41.9961706  97.5401620  36.2115620  44.8136194  93.6624180
  35.3026839  44.5295227  93.7596650  36.2410704  45.2335273  92.8027487
  41.4434887  48.4242784  97.4315348  40.9897215  47.5833693  97.4880538
  40.8128854  49.0604182  97.7690128  40.3867807  39.3534770  98.6616015
  39.6490564  38.8412156  98.9926258  40.6394581  38.9135151  97.8499292
  39.8867827  50.2619280  98.3665166  40.1790801  50.8224337  97.6477532
  40.3966447  50.5547841  99.1218325  40.4879434  32.1311022  99.2557785
  40.7938311  31.2708385  98.9683700  41.2132039  32.7228642  99.0556778
  26.7803790  42.5341708  97.6439382  26.5828190  41.9411069  96.9190449
  26.2250454  42.2293918  98.3615321  34.7600514  42.4264815  99.7633976
  34.8149124  41.4738651  99.6876452  33.9491716  42.5824254 100.2475274
  32.6992874  41.0441874  97.5224354  31.8860740  41.3436045  97.9289547
  33.1951868  40.6497563  98.2398837  34.8501452  51.0399631  99.4558619
  34.8077631  51.2660478  98.5267151  35.7664151  50.8063006  99.6044420
  38.2967086  41.5083699 106.3539248  38.6516473  41.7355172 107.2133714
  38.9439217  41.8402076 105.7316504  44.0264823  44.6302135  97.0588577
  43.8882721  44.8203731  96.1309767  43.6701041  45.3921518  97.5156629
  32.1906949  38.6160230 103.1385589  32.8306328  38.4748989 102.4408553
  31.3584479  38.3294743 102.7624191  44.0534202  46.6978662 102.0699849
  44.4870709  46.6053951 102.9182903  44.7665783  46.6736162 101.4319865
  32.9667253  47.9162660  99.2520582  33.7607851  47.4212981  99.0503157
  32.2558945  47.3880524  98.8888287  37.7862097  50.2980756 103.6032949
  37.8399119  50.8671692 104.3710665  36.9176879  50.4682641 103.2386987
  29.2750016  42.0605742  95.3280335  28.3447604  41.9990198  95.5450297
  29.3707488  41.5381695  94.5316976  29.1935565  38.5860555  97.9158576
  29.4542382  39.5005888  97.8067737  30.0152738  38.1184998  98.0655189
  30.6660491  39.9998312 105.0857401  31.3383544  39.7915674 104.4370050
  29.8390277  39.8020398 104.6462633  44.9149752  46.7402362 104.6032734
  45.1085642  47.6448173 104.8492009  44.8150370  46.2809782 105.4371319
  36.5686063  36.6260253 107.1023062  35.9213978  37.3250203 107.0087538
  37.3387078  37.0596397 107.4699310  39.9764860  46.8909105 110.1773615
  39.8250367  46.6619657 109.2603699  39.9669540  47.8479707 110.1904960
  36.7450197  44.4641018 105.1619881  37.6742257  44.6152178 104.9888849
  36.3241227  44.5525039 104.3068528  35.5438529  48.4891682 102.9318419
  35.4049614  48.1210467 103.8044357  34.7553125  49.0039322 102.7602377
  36.1386681  53.5900779  94.2743955  36.3138436  53.1188822  95.0889578
  35.4519469  54.2166545  94.5025216  37.0943744  47.8673285 100.3207257
  36.7593576  47.8274055 101.2164907  36.5947689  47.2018001  99.8477667
  31.0687988  43.2740915 105.8459838  30.9307786  42.5421154 106.4471377
  31.9792911  43.1849815 105.5644026  40.0302935  45.2129319  90.5944316
  39.4132106  44.4876148  90.4977369  39.5619424  45.9738680  90.2511391
  33.6970288  42.9860874 105.3343518  34.4069907  42.3454067 105.2930136
  33.6539597  43.2373769 106.2569698  41.6857067  49.9228228 108.2550097
  41.6269613  49.2387448 107.5880680  42.0876585  50.6647218 107.8030723
  32.4099222  39.9726092 107.1539157  31.8736579  39.5216831 107.8060753
  31.8215931  40.1072001 106.4109621  30.7047766  56.7390142 101.0483816
  30.9444364  57.3708666 101.7262834  29.8616962  56.3878182 101.3349175
  31.8201481  39.4314744  89.7165621  30.9430948  39.3103545  89.3527867
  32.2959234  38.6400822  89.4644509  41.6874474  47.8867812 106.4864076
  40.8001253  47.5493733 106.6090475  42.2573025  47.1550843 106.7232842
  23.3403621  44.2191903  99.8107128  24.0274661  43.9053633  99.2228143
  23.1851750  45.1233268  99.5374379  28.1438344  39.1082100 104.2392152
  28.0596532  38.5007770 103.5042561  27.3221050  39.5991118 104.2401648
  35.2175628  52.5469264 103.4525320  35.1445799  53.3524236 103.9644624
  34.7753021  52.7461230 102.6273341  35.0065407  51.7841034  96.9628141
  34.2232929  52.3262714  97.0566366  35.7058153  52.3015014  97.3622382
  38.3162058  37.5935664  99.6062347  38.8130757  36.8405626  99.2863417
  37.5449039  37.6299980  99.0405556  46.1691815  43.2976029 101.2480638
  46.1581691  44.1800744 100.8774571  45.3009194  42.9447580 101.0535175
  37.6774311  52.4456098 105.6083478  38.3902284  53.0803563 105.5359380
  37.1864340  52.5419964 104.7923480  39.3991838  46.3507351  97.1800770
  38.4648117  46.4708813  97.0105474  39.5768507  45.4479818  96.9160780
  34.8997026  39.7353047  99.3334031  34.5294814  39.1824087 100.0214937
  35.3956119  39.1311180  98.7809031  42.7864390  42.1924670  97.7150804
  43.2524842  43.0252662  97.6411107  43.2371890  41.7269652  98.4196063
  32.7286225  50.1950542 106.4289049  33.4295684  50.8287025 106.5818443
  32.2581340  50.5365273 105.6684688  40.8540621  48.5368491  94.7136956
  41.1300465  48.4225086  95.6230830  39.9845119  48.1385976  94.6749129
  40.7581052  34.5605257 101.7541705  39.8444132  34.7909484 101.9223912
  41.1874154  34.6443701 102.6055738  40.5287511  42.7495149 104.2541599
  39.8758961  42.9971056 103.5994052  40.9067891  41.9359287 103.9204077
  37.4894685  52.7854842  98.3569770  37.6717079  51.9676498  98.8197522
  38.3127671  53.0022534  97.9194660  37.8236850  51.7123027  95.6184818
  38.3524617  51.2015482  95.0054980  38.0865070  51.3965558  96.4830351
  36.5775084  43.4914960 110.7407637  35.9015721  43.3909089 111.4110012
  37.4002718  43.3354174 111.2043634  28.3253943  49.7286897 103.3620152
  28.9107380  48.9830584 103.4948056  28.1278781  50.0390853 104.2456816
  31.1792598  52.7638144  98.3782594  30.5102973  53.2484272  97.8946634
  31.0405468  53.0107364  99.2925973  22.9171598  42.2992497 102.0824595
  22.9555697  41.7656087 102.8761713  22.4111890  41.7727702 101.4635572
  35.3197867  54.7981888 104.9765253  35.8716175  54.9613509 105.7414338
  35.6604060  55.3886325 104.3045277  30.2962360  37.1457037 105.5787137
  30.3603686  38.0071868 105.1664535  30.2329480  36.5331039 104.8459496
  29.7714632  39.2180170 109.2260172  30.3986671  38.8357247 109.8397696
  28.9142551  38.9994372 109.5915864  40.1708741  49.6243145 110.8313907
  40.7148645  50.2373103 110.3368862  39.5895586  50.1822723 111.3480920
  26.5480175  41.0256599  95.1578526  26.8433616  40.1167277  95.1045580
  25.6468211  41.0044338  94.8359529  38.4566254  52.7463863 101.9628935
  38.3317393  51.9453603 101.4539880  39.1145345  53.2410056 101.4742905
  30.0774422  39.1012596 101.1406075  29.3561008  39.7148563 101.0013548
  30.8667678  39.6370360 101.0622721  40.5201162  50.5472883 103.5908485
  39.5731498  50.4278234 103.5186812  40.8683935  49.6595381 103.6734746
  32.8800736  36.4367022 107.4146727  33.4035138  36.6829319 108.1773036
  32.6613069  37.2687057 106.9949864  28.2768017  38.7070697  95.2817851
  27.9480723  37.8268076  95.0992957  28.6307387  38.6518365  96.1694241
  37.5247596  50.3425599  99.7912837  37.3772558  49.4142307  99.9720407
  38.3501089  50.3645690  99.3069912  31.3909840  38.9943666  95.6493329
  31.7305912  39.5229588  94.9271938  31.8381960  39.3324073  96.4251896
  41.1281717  51.1654158 100.8777710  42.0528265  50.9597019 100.7402161
  40.9597021  50.9170559 101.7867051  34.0853281  37.3780717 105.0996397
  33.7450101  36.5788530 105.5017077  33.3792287  37.6782428 104.5273230
  34.7369753  34.4630030 103.5523720  35.5595822  33.9890508 103.4302611
  34.9807816  35.2420513 104.0522407  33.3777987  37.4918288  93.8486622
  34.0986350  37.8699541  93.3450339  32.7543291  38.2107165  93.9521600
  37.5209110  38.1963437  94.7844954  37.7372724  39.0788075  94.4833782
  37.0403177  37.8049650  94.0550596  32.2608331  41.1549150 101.3615699
  32.1152912  41.4689453 102.2539980  31.7833535  41.7734051 100.8086598
  34.1204714  38.1451698 101.4096588  34.1066283  37.2492791 101.0728886
  34.8377142  38.1522362 102.0434874  35.9730845  38.5789038 103.4549716
  35.7148623  39.5006109 103.4534046  35.4415885  38.1819473 104.1450180
  40.9177034  51.6839826  96.2339801  41.0913911  51.1186248  95.4813654
  41.4105925  52.4840720  96.0519291  26.7353994  43.6954495 104.3003360
  26.1907462  44.4714303 104.4323634  27.6133343  44.0425299 104.1422481
  33.5241610  37.0266078  96.6784159  33.6457521  36.0982725  96.8775046
  33.2343653  37.0404764  95.7662474  36.3932801  34.7120989  99.8150878
  36.4154497  34.7760322  98.8602858  36.8100860  33.8725498 100.0091385
  46.7716425  44.4476248  97.8530101  47.2147571  43.6983574  97.4549224
  45.8942935  44.4386385  97.4703833  41.9052206  51.0006590  93.3336700
  42.6003111  51.6213283  93.5524014  42.2475356  50.1501941  93.6089077
  27.5220015  42.8224391 107.1933517  26.7801751  42.9707026 107.7798147
  27.2012760  43.0832656 106.3300266  43.8043629  48.4506295  94.8624030
  44.3294953  48.7893568  94.1373350  43.7165982  47.5153311  94.6787165
  35.4663678  52.3640369 106.9913907  35.7750804  52.1189516 107.8636607
  36.2639160  52.5687008 106.5032777  35.4884290  54.5178279  99.2219283
  35.0489280  54.0254657  99.9152140  36.2392407  53.9751246  98.9811359
  27.9676629  50.7089820  99.2243912  28.7934649  50.4093591  98.8442555
  27.6170681  49.9397442  99.6733700  32.9358162  50.0616288 101.2941585
  32.3138172  49.3986993 100.9943813  33.6063029  50.0877420 100.6115233
  26.1685234  48.6276146 100.1832845  25.3317142  48.1998320 100.0016846
  26.1408880  48.8208589 101.1203636  33.0082690  38.5398076 110.8874091
  33.0570845  39.4160199 110.5051861  33.5505204  37.9975469 110.3145734
  43.4937535  49.0839199 110.1675228  42.7033079  49.0663338 109.6279728
  43.2570890  49.6227493 110.9224265  43.6135410  45.9331665 107.4807957
  43.6633415  45.7681673 108.4223480  43.5049334  45.0658924 107.0905838
  32.4971669  48.6120211  94.7700046  32.6459789  49.2955676  94.1166718
  33.3038113  48.5925301  95.2849501  40.9039173  41.9162593 108.7967263
  41.8049036  41.7769058 108.5051261  40.9787147  42.0817048 109.7365441
  35.2381978  39.2929448 107.6420450  34.3685288  39.5863014 107.3703038
  35.4741459  39.8769893 108.3627713  45.1153607  48.3528607 107.7249978
  44.8238416  48.7158588 108.5613439  44.5025739  47.6395615 107.5463310
  46.3149290  45.9181487 100.2452549  47.1496181  46.3571291 100.4090109
  46.4508418  45.4420140  99.4260794  43.3640796  43.4761222 106.1930036
  43.8394917  43.6688868 105.3848888  42.4406361  43.5320407 105.9473420
  30.2524302  44.6385389  95.7761115  30.0070344  43.7347719  95.9741325
  30.4220217  44.6402539  94.8340593  37.9421012  35.5109065 105.1585870
  38.4602956  36.2470092 104.8332359  37.5876145  35.8173058 105.9932629
  29.5219950  40.3713746  93.2747276  28.8289195  40.4458101  92.6187312
  29.2771702  39.6074090  93.7968793  38.1933606  31.9309348 100.6786767
  38.4735360  31.2632537 101.3047193  38.9784213  32.1238443 100.1661431
  35.9967075  51.1068342  92.2411793  35.4241042  51.7258529  91.7882265
  36.5699868  51.6567703  92.7751715  42.0642465  40.3526982 104.4258342
  43.0159887  40.4525079 104.4470566  41.8945915  39.5605250 104.9356426
  40.0856844  37.4382565 104.6117743  39.4906776  37.7187578 103.9164231
  39.8006541  37.9276466 105.3834484  39.2164334  51.3905492  93.3720375
  40.1495008  51.3251053  93.5753251  39.1287547  52.2261759  92.9134908
  44.5430542  43.5733101 103.5400642  44.5106862  42.6349102 103.7260325
  45.1531166  43.6517138 102.8066466  36.3813873  42.4429154  89.5827846
  37.3272978  42.3135362  89.6516264  36.0028118  41.7043816  90.0597274
  44.6925031  40.3644145 103.5858925  44.1764079  39.5802601 103.3988854
  45.5764979  40.0362861 103.7505444  42.3535758  34.1085160  99.5454737
  42.1560579  33.8000249 100.4298069  42.9635463  34.8346799  99.6752667
  48.4422389  42.7756971 103.2781130  47.7155553  42.6412936 102.6697621
  48.0269676  43.0833799 104.0837848  36.2652566  46.4946900 111.0428503
  37.1855575  46.6725499 111.2368549  36.2302149  45.5502946 110.8908202
  34.5656790  40.3679131  89.5182731  33.6588246  40.0712243  89.5945444
  34.8432771  40.0708949  88.6517017  25.4834731  41.6885494  99.9681777
  25.1637515  40.8350802  99.6756151  24.9368159  41.9034072 100.7239745
  29.2614638  44.4047935 103.6851284  29.4800648  45.3365043 103.7039318
  29.6740412  44.0455910 104.4706088  36.1818856  34.9116020  95.6726972
  35.3719584  34.5663105  96.0482218  36.8703273  34.6023564  96.2614584
  38.1109404  33.9894067  97.2951269  38.6640443  34.4089521  97.9541292
  38.3479491  33.0629815  97.3374225  34.1342504  39.9781141 113.0754033
  34.0339230  40.9275498 113.0066124  33.9164046  39.6499380 112.2030103
  33.3355575  37.2266066  89.6594710  34.1974739  37.5520964  89.9190527
  33.5205919  36.4397562  89.1467776  25.3522991  45.3088406 101.9374899
  24.6586462  44.8942358 101.4244853  26.0995982  45.3508942 101.3408318
  41.4888211  36.0994592  96.8029933  40.9086880  36.7579396  96.4207985
  41.2224144  35.2771937  96.3917351  39.9391778  35.4999650  99.0051253
  40.4391556  35.6116185  98.1965572  40.5827386  35.1960703  99.6452062
  33.9973774  43.4078280 111.8919094  33.5140855  44.2078640 112.0982983
  34.0834713  43.4186225 110.9386538  27.2659733  45.2406659  99.8140914
  27.2430421  45.3394347  98.8622797  27.5760370  46.0871810 100.1358080
  29.9247111  47.2982814 103.9287528  30.8790365  47.2666757 103.8617460
  29.7259635  46.8373438 104.7437754  30.5146493  45.8683930 106.4958326
  31.3339382  46.3628009 106.5193163  30.7883301  44.9515899 106.4675893
  40.2713089  38.2594683  95.8586281  39.3838944  38.5444333  95.6406476
  40.6867079  38.0988446  95.0113558  43.6227626  38.2841204  99.5740621
  44.3988016  38.7737656  99.8465237  42.8975760  38.7099258 100.0312490
  46.0600184  38.9968823 100.6314561  46.6544675  38.7564559  99.9207869
  46.1326768  38.2775954 101.2588097  28.2797340  52.8402434 100.9457726
  28.1451808  52.0802835 100.3795724  27.8629402  53.5643334 100.4786515
  39.4156303  48.0239357  89.9534301  40.1192153  48.2289360  90.5691957
  38.6918952  48.5916119  90.2183385  40.2454113  43.7749219  96.0736571
  40.1889315  44.2317770  95.2344204  40.7982456  43.0139903  95.8959414
  44.0558919  39.5638951  96.8986691  43.7995853  39.1635586  97.7294899
  43.4311787  40.2782745  96.7736830  48.3671257  42.3035024  99.4057982
  47.8070815  42.3728213 100.1789544  47.7614760  42.1276008  98.6857479
  31.4366466  53.7371751 101.1576169  31.3198850  54.6817183 101.0554859
  30.6158912  53.4345313 101.5461968  41.3243000  48.4621887  92.0032761
  42.1588604  48.0303085  91.8210236  41.1627343  48.2903900  92.9309656
  40.9788892  44.9654000  93.3689101  40.9237696  44.7998271  92.4277545
  40.3534948  45.6730033  93.5251290  25.7681407  40.2022064 107.1950523
  26.4140271  39.6921018 107.6837748  25.5598559  40.9390746 107.7693948
  38.2934800  47.2702912 112.6942663  39.1625959  47.4443564 112.3329298
  37.8141551  48.0897329 112.5718393  34.2885018  34.4662109  92.9474419
  34.2763688  35.4103949  93.1042690  35.1808440  34.2832254  92.6533880
  32.4620980  54.3900013 104.3732097  33.3648227  54.4223623 104.6898592
  32.2358350  53.4600464 104.3878433  34.2174582  53.1430999 101.0342176
  33.2670213  53.1432861 100.9206548  34.5207068  52.3963734 100.5178210
  38.1037137  31.0604886  97.2020356  37.3369533  30.5063372  97.3477038
  38.5147842  31.1326754  98.0634507  30.1078898  37.3489681 111.2925537
  30.9710360  36.9926486 111.5028862  29.5344309  37.0103576 111.9800941
  43.9644026  62.8690929 106.9414852  43.6733892  63.7736560 106.8261519
  44.6001010  62.9107457 107.6558922  39.7355203  58.6499415 100.8045139
  39.8647585  58.9033894 101.7184551  39.0552655  59.2427123 100.4849795
  43.9054691  69.3196665  96.9035614  43.8278720  70.2704490  96.9824094
  43.3016334  68.9742538  97.5610540  46.3971920  56.4924531 109.5596981
  45.6205255  57.0518451 109.5499845  47.0362484  56.9781314 110.0811851
  44.6518293  59.3009984 109.1214948  45.3932977  59.8395028 108.8449771
  43.9455278  59.9276273 109.2786499  49.6304148  54.0416100 106.7501840
  49.3865080  54.7958160 106.2136115  49.9064078  54.4201447 107.5849087
  43.3879657  56.4549632 109.9230258  42.7578317  57.1365913 110.1565654
  43.2815744  56.3432714 108.9783396  38.6824629  56.1221428 100.8496182
  37.8923683  56.3778957 100.3736292  39.1735876  56.9369766 100.9548222
  36.9662332  56.3751919 103.2811173  37.2170370  57.2598929 103.5468748
  37.5021880  56.1956520 102.5086264  42.6660399  50.7570398 112.2855509
  42.2727345  50.2036597 112.9603153  43.4826540  51.0680977 112.6762026
  45.5828360  52.1728277 109.8775765  46.3238074  52.7735430 109.7980228
  45.8146283  51.4305915 109.3193808  40.7269698  57.3584644 108.1553995
  40.6123213  56.4569902 108.4561094  39.8714216  57.6048341 107.8038811
  47.8061536  65.3002385 109.7541495  47.3625390  64.5138763 109.4362400
  48.4678750  65.4881535 109.0885386  49.9042774  65.5805185 107.7822897
  49.8861249  66.4014066 107.2903166  50.8262694  65.4559260 108.0073038
  46.3615828  63.0949314 108.6246405  46.8944165  62.3337602 108.3945713
  45.8329909  62.8022966 109.3670560  48.6082064  50.5714035 102.1189280
  48.1046859  50.5344170 101.3057085  48.9012670  51.4806778 102.1785937
  44.8524949  50.6552765 101.1255462  45.7177946  50.4595574 100.7661351
  44.9202458  50.4263117 102.0524819  42.4587269  52.8854973  98.4971829
  43.0331020  52.6630154  97.7645022  43.0458251  52.9543667  99.2500430
  44.7609936  49.7596222  97.2246898  44.1074349  49.4445239  96.6003513
  44.7190410  49.1371962  97.9506721  37.6197545  57.8633626  97.6439382
  37.4221945  57.2702987  96.9190449  37.0644209  57.5585836  98.3615321
  45.6895206  66.3691549  99.4558619  45.6471385  66.5952395  98.5267151
  46.6057905  66.1354924  99.6044420  43.0300703  53.9452148 103.1385589
  43.6700083  53.8040907 102.4408553  42.1978234  53.6586661 102.7624191
  40.1143771  57.3897660  95.3280335  39.1841359  57.3282115  95.5450297
  40.2101243  56.8673613  94.5316976  40.0329320  53.9152473  97.9158576
  40.2936137  54.8297806  97.8067737  40.8546492  53.4476915  98.0655189
  41.5054245  55.3290230 105.0857401  42.1777298  55.1207592 104.4370050
  40.6784032  55.1312316 104.6462633  47.4079817  51.9552171 107.1023062
  46.7607732  52.6542120 107.0087538  48.1780832  52.3888315 107.4699310
  41.9081742  58.6032833 105.8459838  41.7701540  57.8713072 106.4471377
  42.8186666  58.5141733 105.5644026  44.5364043  58.3152792 105.3343518
  45.2463661  57.6745984 105.2930136  44.4933351  58.5665687 106.2569698
  52.5250822  65.2520145 108.2550097  52.4663368  64.5679366 107.5880680
  52.9270340  65.9939135 107.8030723  43.2492977  55.3018010 107.1539157
  42.7130334  54.8508748 107.8060753  42.6609685  55.4363919 106.4109621
  41.5441520  72.0682059 101.0483816  41.7838119  72.7000583 101.7262834
  40.7010717  71.7170099 101.3349175  34.1797376  59.5483821  99.8107128
  34.8668416  59.2345551  99.2228143  34.0245505  60.4525186  99.5374379
  38.9832098  54.4374018 104.2392152  38.8990287  53.8299687 103.5042561
  38.1614805  54.9283036 104.2401648  46.0569382  67.8761182 103.4525320
  45.9839554  68.6816153 103.9644624  45.6146775  68.0753148 102.6273341
  45.8459162  67.1132952  96.9628141  45.0626684  67.6554632  97.0566366
  46.5451907  67.6306931  97.3622382  48.5168066  67.7748016 105.6083478
  49.2296038  68.4095481 105.5359380  48.0258094  67.8711882 104.7923480
  43.5679979  65.5242459 106.4289049  44.2689439  66.1578942 106.5818443
  43.0975094  65.8657191 105.6684688  47.4168838  58.8206878 110.7407637
  46.7409475  58.7201007 111.4110012  48.2396472  58.6646091 111.2043634
  42.0186353  68.0930062  98.3782594  41.3496728  68.5776189  97.8946634
  41.8799222  68.3399282  99.2925973  33.7565352  57.6284414 102.0824595
  33.7949452  57.0948005 102.8761713  33.2505645  57.1019620 101.4635572
  46.1591621  70.1273805 104.9765253  46.7109929  70.2905427 105.7414338
  46.4997815  70.7178243 104.3045277  41.1356114  52.4748955 105.5787137
  41.1997441  53.3363786 105.1664535  41.0723235  51.8622957 104.8459496
  40.6108387  54.5472088 109.2260172  41.2380426  54.1649165 109.8397696
  39.7536306  54.3286289 109.5915864  51.0102496  64.9535063 110.8313907
  51.5542399  65.5665021 110.3368862  50.4289340  65.5114641 111.3480920
  40.9168177  54.4304513 101.1406075  40.1954762  55.0440481 101.0013548
  41.7061432  54.9662278 101.0622721  43.7194490  51.7658940 107.4146727
  44.2428892  52.0121236 108.1773036  43.5006823  52.5978975 106.9949864
  39.1161771  54.0362614  95.2817851  38.7874477  53.1559993  95.0992957
  39.4701142  53.9810283  96.1694241  42.2303594  54.3235584  95.6493329
  42.5699667  54.8521505  94.9271938  42.6775715  54.6615990  96.4251896
  44.9247035  52.7072635 105.0996397  44.5843856  51.9080448 105.5017077
  44.2186042  53.0074346 104.5273230  45.5763507  49.7921947 103.5523720
  46.3989576  49.3182425 103.4302611  45.8201571  50.5712431 104.0522407
  43.1002086  56.4841068 101.3615699  42.9546667  56.7981371 102.2539980
  42.6227289  57.1025968 100.8086598  37.5747748  59.0246412 104.3003360
  37.0301216  59.8006220 104.4323634  38.4527098  59.3717217 104.1422481
  44.3635365  52.3557996  96.6784159  44.4851276  51.4274642  96.8775046
  44.0737407  52.3696682  95.7662474  38.3613770  58.1516309 107.1933517
  37.6195506  58.2998944 107.7798147  38.0406514  58.4124574 106.3300266
  46.3057433  67.6932287 106.9913907  46.6144559  67.4481434 107.8636607
  47.1032915  67.8978925 106.5032777  46.3278045  69.8470196  99.2219283
  45.8883035  69.3546575  99.9152140  47.0786162  69.3043164  98.9811359
  38.8070384  66.0381737  99.2243912  39.6328403  65.7385509  98.8442555
  38.4564436  65.2689360  99.6733700  37.0078989  63.9568064 100.1832845
  36.1710897  63.5290238 100.0016846  36.9802634  64.1500507 101.1203636
  43.8476444  53.8689994 110.8874091  43.8964600  54.7452116 110.5051861
  44.3898958  53.3267387 110.3145734  54.3331290  64.4131117 110.1675228
  53.5426834  64.3955256 109.6279728  54.0964644  64.9519410 110.9224265
  46.0775733  54.6221366 107.6420450  45.2079042  54.9154932 107.3703038
  46.3135213  55.2061811 108.3627713  55.9547362  63.6820525 107.7249978
  55.6632170  64.0450505 108.5613439  55.3419493  62.9687533 107.5463310
  48.7814766  50.8400983 105.1585870  49.2996710  51.5762010 104.8332359
  48.4269899  51.1464976 105.9932629  49.0327361  47.2601265 100.6786767
  49.3129114  46.5924454 101.3047193  49.8177968  47.4530361 100.1661431
  61.2000847  59.9641026 102.6806678  61.9304235  59.7026314 103.2414382
  60.5907792  59.2269748 102.7208746  47.1046320  61.8238818 111.0428503
  48.0249330  62.0017417 111.2368549  47.0695903  60.8794864 110.8908202
  36.3228485  57.0177412  99.9681777  36.0031270  56.1642720  99.6756151
  35.7761913  57.2325990 100.7239745  44.9736258  55.3073059 113.0754033
  44.8732985  56.2567416 113.0066124  44.7557800  54.9791297 112.2030103
  36.1916745  60.6380323 101.9374899  35.4980217  60.2234276 101.4244853
  36.9389736  60.6800860 101.3408318  44.8367528  58.7370197 111.8919094
  44.3534610  59.5370558 112.0982983  44.9228467  58.7478142 110.9386538
  38.1053488  60.5698577  99.8140914  38.0824176  60.6686264  98.8622797
  38.4154124  61.4163728 100.1358080  39.1191094  68.1694352 100.9457726
  38.9845562  67.4094753 100.3795724  38.7023157  68.8935251 100.4786515
  42.2760220  69.0663669 101.1576169  42.1592604  70.0109101 101.0554859
  41.4552667  68.7637230 101.5461968  36.6075162  55.5313982 107.1950523
  37.2534026  55.0212936 107.6837748  36.3992313  56.2682664 107.7693948
  49.1328554  62.5994830 112.6942663  50.0019714  62.7735482 112.3329298
  48.6535306  63.4189246 112.5718393  43.3014734  69.7191931 104.3732097
  44.2041981  69.7515541 104.6898592  43.0752104  68.7892381 104.3878433
  45.0568336  68.4722917 101.0342176  44.1063967  68.4724779 100.9206548
  45.3600823  67.7255652 100.5178210  40.9472653  52.6781599 111.2925537
  41.8104115  52.3218404 111.5028862  40.3738064  52.3395494 111.9800941
  60.7921030  74.3083455 102.0987938  61.4299440  74.1890203 101.3951278
  60.6741873  75.2564299 102.1575890  57.6010736  74.2610884 102.0349463
  57.2629248  74.1451948 101.1469998  58.4700504  73.8602049 102.0150469
  53.4597552  76.1146360  98.0246354  52.8962417  76.0236297  97.2562641
  53.3449947  75.2946264  98.5048846  58.0830519  75.4145735 107.9935668
  58.0719160  75.0198534 107.1216172  58.2451159  74.6811808 108.5869440
  51.0061984  77.6097552 100.8630574  51.7983276  77.2688376 100.4476873
  51.2458634  77.7192527 101.7832727  59.0397111  79.7817328  93.3360819
  58.3885090  80.3671408  92.9494832  59.8341473  80.3123523  93.3955856
  52.9652738  76.8706465  93.7347953  53.7383614  76.3235452  93.5960829
  53.3178137  77.7350714  93.9462414  54.8037780  78.1982847 106.9414852
  54.5127646  79.1028478 106.8261519  55.4394765  78.2399375 107.6558922
  55.7293987  75.5759696 103.5316212  56.3257559  75.3515718 102.8173175
  55.7868959  74.8344441 104.1341660  55.3019016  73.0299131  91.3666403
  55.5544536  72.5080652  90.6049866  54.3643575  72.8665276  91.4693086
  60.3462298  72.0334909  99.1741146  61.1325388  71.6154332  98.8231563
  60.6101003  72.9381001  99.3422794  60.5172376  77.4707760  93.8729803
  59.8818209  77.5442386  94.5850708  60.1869782  78.0601358  93.1948882
  65.7470726  71.9710143 100.0774125  66.4795897  71.4009359 100.3111954
  64.9910081  71.5831743 100.5180630  55.0215304  74.9327237  93.5690778
  54.9051562  74.2572140  94.2371862  55.1317564  74.4459611  92.7522931
  57.3646845  74.3937384  97.2737467  57.0005052  73.8668005  97.9850389
  58.2213961  74.0035853  97.1003952  63.2696146  65.6831717 104.5368733
  62.9379471  66.5527128 104.3129948  62.6741759  65.3668001 105.2162764
  59.7627665  77.8844263 103.9364646  59.4628388  78.7869301 103.8280453
  59.4178725  77.6176446 104.7885799  53.2140147  74.3358059  99.9701350
  52.2890643  74.2034274 100.1779042  53.4624560  75.1152279 100.4671293
  56.9841553  71.8784941  93.2545482  56.8641178  72.3241992  94.0930963
  56.2894141  72.2270259  92.6959021  50.5748958  73.9791333 100.8045139
  50.7041339  74.2325812 101.7184551  49.8946409  74.5719041 100.4849795
  54.7448445  84.6488583  96.9035614  54.6672475  85.5996408  96.9824094
  54.1410089  84.3034455  97.5610540  57.2365675  71.8216448 109.5596981
  56.4599009  72.3810369 109.5499845  57.8756238  72.3073231 110.0811851
  55.4912047  74.6301902 109.1214948  56.2326732  75.1686946 108.8449771
  54.7849033  75.2568190 109.2786499  60.9667387  76.7731042 107.7187109
  61.3750743  76.3313453 106.9741741  60.2444648  76.1983670 107.9721302
  57.3198457  71.7103649 105.0920666  58.1659652  72.1343063 105.2355315
  57.2597095  71.0537273 105.7859229  61.2896202  77.3332233 101.4739398
  60.6605064  77.4977947 100.7715466  60.9021864  77.7473842 102.2450362
  65.1685433  78.2686671  98.8283762  64.4836472  78.6485572  98.2780795
  65.2529283  78.8781997  99.5615709  60.4697902  69.3708017 106.7501840
  60.2258834  70.1250078 106.2136115  60.7457833  69.7493365 107.5849087
  62.4236365  75.9146630 105.4279105  62.6353260  76.5578390 104.7513486
  62.3766113  75.0808946 104.9601035  56.8424163  77.0706641  98.7389483
  57.3062509  77.3494344  97.9494106  56.5780962  76.1690086  98.5562574
  53.7348244  76.6178122 101.6769246  54.3049602  77.0465391 101.0386731
  54.3256356  76.3360707 102.3753432  55.7793049  73.1929793  95.5479048
  56.4817093  73.6450837  96.0152975  55.4473678  72.5513612  96.1758941
  54.2273411  71.7841550 109.9230258  53.5972072  72.4657831 110.1565654
  54.1209499  71.6724632 108.9783396  49.5218383  71.4513346 100.8496182
  48.7317437  71.7070874 100.3736292  50.0129631  72.2661684 100.9548222
  63.5382193  78.7918585 103.6001463  64.3599637  78.3898772 103.3184144
  63.5344596  78.6886819 104.5517578  57.3038796  78.3402628 105.7562173
  57.3683229  78.8023036 106.5920345  56.5949720  77.7099993 105.8844483
  47.8056086  71.7043836 103.2811173  48.0564125  72.5890846 103.5468748
  48.3415635  71.5248438 102.5086264  57.0186814  80.0070736  95.6241153
  56.8832489  80.8522272  96.0526001  57.5596627  80.2090014  94.8607087
  53.5054154  66.0862316 112.2855509  53.1121099  65.5328514 112.9603153
  54.3220294  66.3972894 112.6762026  50.4716211  77.5246174  96.1969078
  50.9840732  78.3189424  96.3474643  51.1238924  76.8272464  96.1302680
  52.2811096  80.6411930  98.2791832  52.4577725  81.5629895  98.0912816
  53.0767930  80.3270349  98.7086211  56.4222115  67.5020195 109.8775765
  57.1631828  68.1027348 109.7980228  56.6540038  66.7597833 109.3193808
  51.5663453  72.6876562 108.1553995  51.4516968  71.7861819 108.4561094
  50.7107970  72.9340259 107.8038811  58.6455290  80.6294302 109.7541495
  58.2019145  79.8430681 109.4362400  59.3072504  80.8173453 109.0885386
  53.4042412  82.1590104 104.2802174  53.9549837  82.0307167 103.5079168
  52.5653888  82.4584993 103.9297067  60.7436529  80.9097102 107.7822897
  60.7255004  81.7305983 107.2903166  61.6656449  80.7851178 108.0073038
  57.2009583  78.4241232 108.6246405  57.7337919  77.6629520 108.3945713
  56.6723664  78.1314884 109.3670560  60.3679278  63.5301298 104.1540047
  60.0243547  64.4202939 104.0779157  60.7358240  63.3402955 103.2909632
  48.4365128  75.8534828  96.9728649  49.2740350  76.2631837  96.7562357
  48.6143396  74.9134270  96.9428843  59.4475818  65.9005953 102.1189280
  58.9440614  65.8636088 101.3057085  59.7406425  66.8098696 102.1785937
  58.5662295  77.5527224  96.1365217  58.0383657  76.8179984  95.8238455
  58.0649798  78.3301901  95.8905185  63.5455141  75.7476245 101.2532263
  62.8878816  76.4375506 101.3412392  64.3495541  76.1372677 101.5966250
  62.3560600  74.1020617  99.3036205  62.8692482  74.7350609  99.8057915
  63.0061824  73.5021813  98.9379565  56.7114896  75.3707435  89.1400190
  55.8041957  75.1396688  89.3391339  57.2085928  74.5745054  89.3274172
  59.6182974  84.0804942  92.0596876  58.9444673  84.3836639  92.6681834
  60.0048796  84.8834022  91.7102333  58.8341431  71.5770073 101.5494546
  57.9163992  71.7985020 101.3916234  59.2501575  71.6516384 100.6906253
  59.6176479  72.9761489  96.6797226  60.3648298  73.4882886  96.3704348
  59.8868068  72.6545541  97.5401620  57.8903129  75.4720029  93.6624180
  56.9814348  75.1879062  93.7596650  57.9198213  75.8919108  92.8027487
  63.1222396  79.0826619  97.4315348  62.6684724  78.2417529  97.4880538
  62.4916363  79.7188017  97.7690128  61.5655336  80.9203116  98.3665166
  61.8578310  81.4808173  97.6477532  62.0753956  81.2131677  99.1218325
  62.1666943  62.7894857  99.2557785  62.4725820  61.9292220  98.9683700
  62.8919548  63.3812477  99.0556778  48.4591299  73.1925544  97.6439382
  48.2615699  72.5994904  96.9190449  47.9037963  72.8877754  98.3615321
  56.4388023  73.0848650  99.7633976  56.4936633  72.1322486  99.6876452
  55.6279225  73.2408089 100.2475274  57.5879217  77.0128773  91.0012259
  57.1498647  76.2964632  90.5417896  58.3289658  77.2404888  90.4397350
  54.3780383  71.7025710  97.5224354  53.5648249  72.0019880  97.9289547
  54.8739377  71.3081399  98.2398837  56.5288961  81.6983467  99.4558619
  56.4865140  81.9244313  98.5267151  57.4451660  81.4646841  99.6044420
  59.9754595  72.1667534 106.3539248  60.3303982  72.3939007 107.2133714
  60.6226726  72.4985911 105.7316504  53.8694458  69.2744065 103.1385589
  54.5093837  69.1332824 102.4408553  53.0371988  68.9878579 102.7624191
  65.7321711  77.3562497 102.0699849  66.1658218  77.2637786 102.9182903
  66.4453292  77.3319998 101.4319865  54.6454762  78.5746496  99.2520582
  55.4395360  78.0796816  99.0503157  53.9346454  78.0464359  98.8888287
  59.4649606  80.9564591 103.6032949  59.5186628  81.5255528 104.3710665
  58.5964387  81.1266476 103.2386987  50.9537525  72.7189577  95.3280335
  50.0235113  72.6574033  95.5450297  51.0494997  72.1965530  94.5316976
  52.3447999  70.6582147 105.0857401  53.0171053  70.4499510 104.4370050
  51.5177786  70.4604233 104.6462633  66.5937261  77.3986198 104.6032734
  66.7873151  78.3032008 104.8492009  66.4937879  76.9393617 105.4371319
  58.2473572  67.2844088 107.1023062  57.6001487  67.9834038 107.0087538
  59.0174587  67.7180232 107.4699310  61.6552369  77.5492941 110.1773615
  61.5037876  77.3203492 109.2603699  61.6457049  78.5063542 110.1904960
  58.4237706  75.1224853 105.1619881  59.3529766  75.2736013 104.9888849
  58.0028736  75.2108874 104.3068528  57.2226038  79.1475518 102.9318419
  57.0837123  78.7794302 103.8044357  56.4340634  79.6623157 102.7602377
  57.8174190  84.2484614  94.2743955  57.9925945  83.7772657  95.0889578
  57.1306978  84.8750380  94.5025216  58.7731253  78.5257120 100.3207257
  58.4381085  78.4857890 101.2164907  58.2735198  77.8601836  99.8477667
  52.7475497  73.9324750 105.8459838  52.6095295  73.2004989 106.4471377
  53.6580420  73.8433651 105.5644026  55.3757797  73.6444710 105.3343518
  56.0857416  73.0037902 105.2930136  55.3327106  73.8957605 106.2569698
  63.3644576  80.5812063 108.2550097  63.3057122  79.8971283 107.5880680
  63.7664094  81.3231053 107.8030723  54.0886731  70.6309928 107.1539157
  53.5524088  70.1800666 107.8060753  53.5003440  70.7655836 106.4109621
  52.3835275  87.3973977 101.0483816  52.6231873  88.0292501 101.7262834
  51.5404471  87.0462017 101.3349175  63.3661983  78.5451647 106.4864076
  62.4788762  78.2077569 106.6090475  63.9360534  77.8134678 106.7232842
  45.0191130  74.8775739  99.8107128  45.7062170  74.5637469  99.2228143
  44.8639259  75.7817103  99.5374379  49.8225853  69.7665935 104.2392152
  49.7384041  69.1591605 103.5042561  49.0008559  70.2574954 104.2401648
  56.8963137  83.2053099 103.4525320  56.8233308  84.0108071 103.9644624
  56.4540530  83.4045065 102.6273341  56.6852916  82.4424869  96.9628141
  55.9020438  82.9846550  97.0566366  57.3845662  82.9598849  97.3622382
  67.8479324  73.9559864 101.2480638  67.8369200  74.8384580 100.8774571
  66.9796703  73.6031415 101.0535175  59.3561820  83.1039933 105.6083478
  60.0689792  83.7387398 105.5359380  58.8651849  83.2003799 104.7923480
  61.0779347  77.0091186  97.1800770  60.1435626  77.1292649  97.0105474
  61.2556016  76.1063653  96.9160780  56.5784535  70.3936882  99.3334031
  56.2082323  69.8407922 100.0214937  57.0743628  69.7895015  98.7809031
  54.4073734  80.8534377 106.4289049  55.1083193  81.4870860 106.5818443
  53.9368849  81.1949108 105.6684688  62.5328130  79.1952327  94.7136956
  62.8087974  79.0808921  95.6230830  61.6632628  78.7969812  94.6749129
  62.2075020  73.4078984 104.2541599  61.5546470  73.6554892 103.5994052
  62.5855400  72.5943123 103.9204077  59.1682194  83.4438678  98.3569770
  59.3504588  82.6260333  98.8197522  59.9915180  83.6606370  97.9194660
  59.5024359  82.3706863  95.6184818  60.0312126  81.8599317  95.0054980
  59.7652579  82.0549393  96.4830351  58.2562593  74.1498795 110.7407637
  57.5803230  74.0492925 111.4110012  59.0790227  73.9938009 111.2043634
  50.0041452  80.3870732 103.3620152  50.5894889  79.6414420 103.4948056
  49.8066290  80.6974689 104.2456816  52.8580107  83.4221979  98.3782594
  52.1890482  83.9068107  97.8946634  52.7192977  83.6691200  99.2925973
  44.5959107  72.9576332 102.0824595  44.6343206  72.4239923 102.8761713
  44.0899399  72.4311538 101.4635572  56.9985376  85.4565723 104.9765253
  57.5503684  85.6197344 105.7414338  57.3391569  86.0470161 104.3045277
  51.9749869  67.8040873 105.5787137  52.0391195  68.6655704 105.1664535
  51.9116989  67.1914874 104.8459496  51.4502141  69.8764005 109.2260172
  52.0774180  69.4941083 109.8397696  50.5930060  69.6578207 109.5915864
  61.8496250  80.2826980 110.8313907  62.3936154  80.8956939 110.3368862
  61.2683095  80.8406559 111.3480920  60.1353763  83.4047698 101.9628935
  60.0104902  82.6037438 101.4539880  60.7932854  83.8993892 101.4742905
  51.7561931  69.7596431 101.1406075  51.0348517  70.3732399 101.0013548
  52.5455187  70.2954196 101.0622721  62.1988671  81.2056718 103.5908485
  61.2519007  81.0862070 103.5186812  62.5471444  80.3179217 103.6734746
  54.5588245  67.0950857 107.4146727  55.0822647  67.3413154 108.1773036
  54.3400578  67.9270892 106.9949864  59.2035105  81.0009435  99.7912837
  59.0560067  80.0726142  99.9720407  60.0288598  81.0229525  99.3069912
  62.8069226  81.8237993 100.8777710  63.7315774  81.6180855 100.7402161
  62.6384530  81.5754395 101.7867051  55.7640790  68.0364552 105.0996397
  55.4237610  67.2372366 105.5017077  55.0579796  68.3366263 104.5273230
  53.9395840  71.8132986 101.3615699  53.7940421  72.1273289 102.2539980
  53.4621044  72.4317886 100.8086598  55.7992223  68.8035534 101.4096588
  55.7853792  67.9076627 101.0728886  56.5164651  68.8106197 102.0434874
  57.6518354  69.2372874 103.4549716  57.3936132  70.1589944 103.4534046
  57.1203394  68.8403308 104.1450180  62.5964543  82.3423661  96.2339801
  62.7701420  81.7770083  95.4813654  63.0893434  83.1424556  96.0519291
  48.4141502  74.3538330 104.3003360  47.8694971  75.1298138 104.4323634
  49.2920852  74.7009134 104.1422481  49.2007524  73.4808226 107.1933517
  48.4589260  73.6290862 107.7798147  48.8800269  73.7416492 106.3300266
  57.1451187  83.0224204 106.9913907  57.4538313  82.7773351 107.8636607
  57.9426669  83.2270843 106.5032777  57.1671799  85.1762114  99.2219283
  56.7276789  84.6838493  99.9152140  57.9179916  84.6335082  98.9811359
  49.6464138  81.3673655  99.2243912  50.4722158  81.0677427  98.8442555
  49.2958190  80.5981277  99.6733700  54.6145671  80.7200123 101.2941585
  53.9925680  80.0570828 100.9943813  55.2850538  80.7461255 100.6115233
  47.8472743  79.2859981 100.1832845  47.0104651  78.8582156 100.0016846
  47.8196389  79.4792425 101.1203636  54.6870199  69.1981911 110.8874091
  54.7358354  70.0744034 110.5051861  55.2292713  68.6559304 110.3145734
  65.1725044  79.7423034 110.1675228  64.3820588  79.7247173 109.6279728
  64.9358399  80.2811328 110.9224265  65.2922919  76.5915501 107.4807957
  65.3420924  76.4265508 108.4223480  65.1836843  75.7242760 107.0905838
  54.1759178  79.2704047  94.7700046  54.3247298  79.9539511  94.1166718
  54.9825622  79.2509137  95.2849501  62.5826682  72.5746429 108.7967263
  63.4836545  72.4352894 108.5051261  62.6574656  72.7400884 109.7365441
  56.9169487  69.9513284 107.6420450  56.0472797  70.2446850 107.3703038
  57.1528967  70.5353729 108.3627713  66.7941116  79.0112442 107.7249978
  66.5025925  79.3742423 108.5613439  66.1813248  78.2979451 107.5463310
  65.0428304  74.1345057 106.1930036  65.5182426  74.3272703 105.3848888
  64.1193870  74.1904243 105.9473420  51.9311811  75.2969224  95.7761115
  51.6857853  74.3931554  95.9741325  52.1007726  75.2986375  94.8340593
  59.6208521  66.1692901 105.1585870  60.1390465  66.9053927 104.8332359
  59.2663654  66.4756894 105.9932629  59.8721115  62.5893183 100.6786767
  60.1522869  61.9216372 101.3047193  60.6571722  62.7822279 100.1661431
  57.6754584  81.7652177  92.2411793  57.1028551  82.3842364  91.7882265
  58.2487377  82.3151539  92.7751715  63.7429973  71.0110817 104.4258342
  64.6947396  71.1108915 104.4470566  63.5733424  70.2189086 104.9356426
  61.7644353  68.0966400 104.6117743  61.1694285  68.3771413 103.9164231
  61.4794050  68.5860301 105.3834484  60.8951843  82.0489327  93.3720375
  61.8282517  81.9834889  93.5753251  60.8075056  82.8845594  92.9134908
  66.2218051  74.2316937 103.5400642  66.1894371  73.2932937 103.7260325
  66.8318675  74.3100973 102.8066466  66.3712540  71.0227980 103.5858925
  65.8551588  70.2386437 103.3988854  67.2552488  70.6946697 103.7505444
  64.0323267  64.7668996  99.5454737  63.8348088  64.4584084 100.4298069
  64.6422972  65.4930635  99.6752667  72.0394601  75.2932944 102.6806678
  72.7697990  75.0318232 103.2414382  71.4301547  74.5561666 102.7208746
  70.1209898  73.4340806 103.2781130  69.3943062  73.2996771 102.6697621
  69.7057185  73.7417635 104.0837848  57.9440075  77.1530736 111.0428503
  58.8643084  77.3309335 111.2368549  57.9089658  76.2086781 110.8908202
  47.1622240  72.3469330  99.9681777  46.8425024  71.4934638  99.6756151
  46.6155668  72.5617908 100.7239745  50.9402147  75.0631771 103.6851284
  51.1588157  75.9948878 103.7039318  51.3527921  74.7039745 104.4706088
  55.8130013  70.6364976 113.0754033  55.7126739  71.5859333 113.0066124
  55.5951555  70.3083215 112.2030103  47.0310500  75.9672241 101.9374899
  46.3373971  75.5526194 101.4244853  47.7783491  76.0092778 101.3408318
  55.6761283  74.0662115 111.8919094  55.1928364  74.8662475 112.0982983
  55.7622222  74.0770060 110.9386538  48.9447242  75.8990495  99.8140914
  48.9217930  75.9978182  98.8622797  49.2547879  76.7455646 100.1358080
  51.6034620  77.9566650 103.9287528  52.5577874  77.9250592 103.8617460
  51.4047144  77.4957274 104.7437754  52.1934002  76.5267766 106.4958326
  53.0126891  77.0211845 106.5193163  52.4670810  75.6099734 106.4675893
  49.9584849  83.4986269 100.9457726  49.8239317  82.7386670 100.3795724
  49.5416911  84.2227169 100.4786515  61.0943812  78.6823193  89.9534301
  61.7979662  78.8873195  90.5691957  60.3706461  79.2499955  90.2183385
  53.1153975  84.3955586 101.1576169  52.9986359  85.3401019 101.0554859
  52.2946421  84.0929148 101.5461968  63.0030509  79.1205722  92.0032761
  63.8376113  78.6886921  91.8210236  62.8414852  78.9487736  92.9309656
  47.4468916  70.8605900 107.1950523  48.0927780  70.3504854 107.6837748
  47.2386068  71.5974581 107.7693948  59.9722309  77.9286747 112.6942663
  60.8413468  78.1027399 112.3329298  59.4929060  78.7481164 112.5718393
  54.1408489  85.0483848 104.3732097  55.0435736  85.0807458 104.6898592
  53.9145859  84.1184299 104.3878433  55.8962091  83.8014835 101.0342176
  54.9457722  83.8016696 100.9206548  56.1994577  83.0547569 100.5178210
  51.7866407  68.0073517 111.2925537  52.6497869  67.6510322 111.5028862
  51.2131818  67.6687412 111.9800941  68.4404491  89.5902801 102.0349463
  68.1023002  89.4743866 101.1469998  69.3094259  89.1893966 102.0150469
  64.2991306  91.4438278  98.0246354  63.7356171  91.3528215  97.2562641
  64.1843701  90.6238182  98.5048846  68.9224274  90.7437653 107.9935668
  68.9112914  90.3490451 107.1216172  69.0844913  90.0103726 108.5869440
  61.8455738  92.9389469 100.8630574  62.6377030  92.5980294 100.4476873
  62.0852388  93.0484444 101.7832727  65.6431535  93.5274765 106.9414852
  65.3521401  94.4320396 106.8261519  66.2788519  93.5691292 107.6558922
  66.5687742  90.9051613 103.5316212  67.1651314  90.6807636 102.8173175
  66.6262713  90.1636359 104.1341660  66.1412770  88.3591049  91.3666403
  66.3938291  87.8372570  90.6049866  65.2037329  88.1957194  91.4693086
  71.1856053  87.3626827  99.1741146  71.9719142  86.9446250  98.8231563
  71.4494757  88.2672919  99.3422794  68.2040600  89.7229302  97.2737467
  67.8398807  89.1959923  97.9850389  69.0607716  89.3327771  97.1003952
  74.1089900  81.0123634 104.5368733  73.7773225  81.8819045 104.3129948
  73.5135514  80.6959918 105.2162764  64.0533901  89.6649977  99.9701350
  63.1284398  89.5326191 100.1779042  64.3018315  90.4444196 100.4671293
  74.0018564  85.7318720 101.6162083  73.0935441  85.6634129 101.3220844
  73.9506159  86.2090665 102.4443909  67.8235308  87.2076859  93.2545482
  67.7034933  87.6533910  94.0930963  67.1287896  87.5562177  92.6959021
  61.4142712  89.3083251 100.8045139  61.5435094  89.5617730 101.7184551
  60.7340164  89.9010959 100.4849795  65.5842200  99.9780501  96.9035614
  65.5066229 100.9288326  96.9824094  64.9803843  99.6326373  97.5610540
  68.0759429  87.1508366 109.5596981  67.2992763  87.7102286 109.5499845
  68.7149992  87.6365149 110.0811851  75.8680210  83.9335159 103.3939957
  75.2254590  84.2267692 102.7479752  75.3635139  83.8188079 104.1993154
  66.3305802  89.9593819 109.1214948  67.0720486  90.4978863 108.8449771
  65.6242787  90.5860108 109.2786499  68.1592211  87.0395567 105.0920666
  69.0053407  87.4634980 105.2355315  68.0990849  86.3829191 105.7859229
  71.3091657  84.6999935 106.7501840  71.0652589  85.4541996 106.2136115
  71.5851587  85.0785283 107.5849087  70.8656348  83.8556368 102.3315677
  70.0040828  84.1537622 102.6232415  70.8918783  84.0726767 101.3996710
  67.6817918  92.3998559  98.7389483  68.1456263  92.6786262  97.9494106
  67.4174716  91.4982003  98.5562574  64.5741999  91.9470040 101.6769246
  65.1443356  92.3757309 101.0386731  65.1650111  91.6652625 102.3753432
  66.6186804  88.5221711  95.5479048  67.3210847  88.9742755  96.0152975
  66.2867432  87.8805530  96.1758941  65.0667165  87.1133468 109.9230258
  64.4365826  87.7949748 110.1565654  64.9603253  87.0016549 108.9783396
  60.3612138  86.7805264 100.8496182  59.5711192  87.0362792 100.3736292
  60.8523385  87.5953601 100.9548222  62.3126883  87.1449843  97.8079658
  61.5158047  87.2568537  98.3263154  62.0852476  87.4836495  96.9420549
  68.1432551  93.6694546 105.7562173  68.2076983  94.1314953 106.5920345
  67.4343475  93.0391911 105.8844483  58.6449841  87.0335754 103.2811173
  58.8957879  87.9182764 103.5468748  59.1809389  86.8540356 102.5086264
  64.3447908  81.4154233 112.2855509  63.9514854  80.8620432 112.9603153
  65.1614049  81.7264812 112.6762026  61.3109966  92.8538092  96.1969078
  61.8234487  93.6481342  96.3474643  61.9632679  92.1564382  96.1302680
  63.1204851  95.9703848  98.2791832  63.2971479  96.8921813  98.0912816
  63.9161684  95.6562267  98.7086211  67.2615869  82.8312113 109.8775765
  68.0025583  83.4319266 109.7980228  67.4933792  82.0889750 109.3193808
  62.4057207  88.0168480 108.1553995  62.2910722  87.1153737 108.4561094
  61.5501725  88.2632177 107.8038811  64.2436166  97.4882022 104.2802174
  64.7943591  97.3599085 103.5079168  63.4047642  97.7876911 103.9297067
  68.0403337  93.7533150 108.6246405  68.5731674  92.9921438 108.3945713
  67.5117418  93.4606801 109.3670560  71.2073032  78.8593215 104.1540047
  70.8637302  79.7494857 104.0779157  71.5751995  78.6694873 103.2909632
  59.2758883  91.1826746  96.9728649  60.1134105  91.5923754  96.7562357
  59.4537150  90.2426188  96.9428843  68.7570426  83.6951527  97.7197720
  67.9012022  83.3058378  97.5403359  69.1697378  83.7743488  96.8597506
  70.2869573  81.2297871 102.1189280  69.7834368  81.1928006 101.3057085
  70.5800179  82.1390613 102.1785937  66.5312458  81.3136600 101.1255462
  67.3965455  81.1179409 100.7661351  66.5989967  81.0846952 102.0524819
  69.4056050  92.8819142  96.1365217  68.8777411  92.1471902  95.8238455
  68.9043553  93.6593818  95.8905185  64.1374777  83.5438808  98.4971829
  64.7118529  83.3213990  97.7645022  64.7245760  83.6127503  99.2500430
  66.4397445  80.4180057  97.2246898  65.7861858  80.1029074  96.6003513
  66.3977919  79.7955798  97.9506721  69.6735186  86.9061991 101.5494546
  68.7557747  87.1276938 101.3916234  70.0895329  86.9808301 100.6906253
  72.9049070  85.3410523  98.6616015  72.1671827  84.8287909  98.9926258
  73.1575844  84.9010904  97.8499292  73.0060698  78.1186775  99.2557785
  73.3119575  77.2584138  98.9683700  73.7313303  78.7104395  99.0556778
  59.2985054  88.5217461  97.6439382  59.1009454  87.9286822  96.9190449
  58.7431718  88.2169671  98.3615321  67.2781778  88.4140568  99.7633976
  67.3330387  87.4614404  99.6876452  66.4672980  88.5700007 100.2475274
  65.2174137  87.0317627  97.5224354  64.4042003  87.3311798  97.9289547
  65.7133132  86.6373316  98.2398837  67.3682715  97.0275384  99.4558619
  67.3258894  97.2536231  98.5267151  68.2845414  96.7938759  99.6044420
  70.8148349  87.4959452 106.3539248  71.1697737  87.7230925 107.2133714
  71.4620480  87.8277829 105.7316504  64.7088212  84.6035983 103.1385589
  65.3487592  84.4624742 102.4408553  63.8765743  84.3170496 102.7624191
  65.4848516  93.9038413  99.2520582  66.2789115  93.4088734  99.0503157
  64.7740209  93.3756277  98.8888287  61.7931280  88.0481495  95.3280335
  60.8628868  87.9865951  95.5450297  61.8888752  87.5257448  94.5316976
  61.7116829  84.5736308  97.9158576  61.9723646  85.4881641  97.8067737
  62.5334001  84.1060751  98.0655189  63.1841754  85.9874065 105.0857401
  63.8564807  85.7791427 104.4370050  62.3571541  85.7896151 104.6462633
  69.0867326  82.6136006 107.1023062  68.4395241  83.3125956 107.0087538
  69.8568341  83.0472150 107.4699310  72.4946124  92.8784858 110.1773615
  72.3431630  92.6495410 109.2603699  72.4850803  93.8355460 110.1904960
  63.5869251  89.2616668 105.8459838  63.4489049  88.5296907 106.4471377
  64.4974175  89.1725568 105.5644026  66.2151552  88.9736627 105.3343518
  66.9251170  88.3329820 105.2930136  66.1720860  89.2249522 106.2569698
  64.9280486  85.9601845 107.1539157  64.3917843  85.5092584 107.8060753
  64.3397194  86.0947754 106.4109621  63.2229029 102.7265895 101.0483816
  63.4625628 103.3584419 101.7262834  62.3798226 102.3753935 101.3349175
  55.8584885  90.2067656  99.8107128  56.5455925  89.8929387  99.2228143
  55.7033014  91.1109021  99.5374379  60.6619607  85.0957853 104.2392152
  60.5777796  84.4883523 103.5042561  59.8402314  85.5866871 104.2401648
  67.7356891  98.5345017 103.4525320  67.6627063  99.3399989 103.9644624
  67.2934284  98.7336983 102.6273341  67.5246671  97.7716787  96.9628141
  66.7414193  98.3138467  97.0566366  68.2239416  98.2890767  97.3622382
  70.8343321  83.5811417  99.6062347  71.3312021  82.8281379  99.2863417
  70.0630302  83.6175733  99.0405556  71.9173102  92.3383104  97.1800770
  70.9829380  92.4584566  97.0105474  72.0949770  91.4355571  96.9160780
  67.4178290  85.7228800  99.3334031  67.0476077  85.1699840 100.0214937
  67.9137382  85.1186933  98.7809031  65.2467488  96.1826295 106.4289049
  65.9476948  96.8162778 106.5818443  64.7762603  96.5241026 105.6684688
  73.2762316  80.5481010 101.7541705  72.3625396  80.7785237 101.9223912
  73.7055417  80.6319454 102.6055738  69.0956347  89.4790713 110.7407637
  68.4196984  89.3784842 111.4110012  69.9183981  89.3229927 111.2043634
  60.8435206  95.7162650 103.3620152  61.4288643  94.9706338 103.4948056
  60.6460045  96.0266606 104.2456816  63.6973862  98.7513897  98.3782594
  63.0284237  99.2360025  97.8946634  63.5586731  98.9983117  99.2925973
  55.4352861  88.2868250 102.0824595  55.4736961  87.7531841 102.8761713
  54.9293154  87.7603455 101.4635572  67.8379130 100.7857641 104.9765253
  68.3897438 100.9489262 105.7414338  68.1785324 101.3762078 104.3045277
  62.8143623  83.1332790 105.5787137  62.8784950  83.9947621 105.1664535
  62.7510744  82.5206792 104.8459496  62.2895896  85.2055923 109.2260172
  62.9167935  84.8233000 109.8397696  61.4323815  84.9870125 109.5915864
  72.6890004  95.6118898 110.8313907  73.2329908  96.2248856 110.3368862
  72.1076849  96.1698476 111.3480920  59.0661439  87.0132352  95.1578526
  59.3614880  86.1043030  95.1045580  58.1649474  86.9920091  94.8359529
  62.5955686  85.0888349 101.1406075  61.8742271  85.7024316 101.0013548
  63.3848941  85.6246113 101.0622721  65.3981999  82.4242775 107.4146727
  65.9216401  82.6705072 108.1773036  65.1794332  83.2562810 106.9949864
  60.7949280  84.6946450  95.2817851  60.4661986  83.8143829  95.0992957
  61.1488651  84.6394118  96.1694241  70.0428859  96.3301352  99.7912837
  69.8953822  95.4018060  99.9720407  70.8682353  96.3521443  99.3069912
  63.9091103  84.9819419  95.6493329  64.2487176  85.5105341  94.9271938
  64.3563224  85.3199826  96.4251896  66.6034544  83.3656470 105.0996397
  66.2631365  82.5664283 105.5017077  65.8973551  83.6658181 104.5273230
  67.2551016  80.4505783 103.5523720  68.0777085  79.9766261 103.4302611
  67.4989080  81.2296266 104.0522407  64.7789595  87.1424903 101.3615699
  64.6334176  87.4565206 102.2539980  64.3014798  87.7609804 100.8086598
  66.6385978  84.1327451 101.4096588  66.6247546  83.2368545 101.0728886
  67.3558406  84.1398115 102.0434874  68.4912108  84.5664791 103.4549716
  68.2329886  85.4881862 103.4534046  67.9597149  84.1695226 104.1450180
  59.2535257  89.6830248 104.3003360  58.7088725  90.4590056 104.4323634
  60.1314607  90.0301052 104.1422481  66.0422874  83.0141831  96.6784159
  66.1638785  82.0858478  96.8775046  65.7524916  83.0280517  95.7662474
  68.9114064  80.6996742  99.8150878  68.9335761  80.7636075  98.8602858
  69.3282123  79.8601251 100.0091385  60.0401279  88.8100144 107.1933517
  59.2983015  88.9582779 107.7798147  59.7194023  89.0708410 106.3300266
  68.0065554 100.5054032  99.2219283  67.5670544 100.0130410  99.9152140
  68.7573670  99.9626999  98.9811359  60.4857893  96.6965573  99.2243912
  61.3115912  96.3969344  98.8442555  60.1351945  95.9273195  99.6733700
  65.4539426  96.0492041 101.2941585  64.8319435  95.3862746 100.9943813
  66.1244293  96.0753173 100.6115233  58.6866498  94.6151899 100.1832845
  57.8498406  94.1874073 100.0016846  58.6590143  94.8084342 101.1203636
  65.5263953  84.5273829 110.8874091  65.5752109  85.4035952 110.5051861
  66.0686467  83.9851222 110.3145734  76.0118799  95.0714952 110.1675228
  75.2214343  95.0539091 109.6279728  75.7752153  95.6103246 110.9224265
  73.4220436  87.9038347 108.7967263  74.3230299  87.7644811 108.5051261
  73.4968411  88.0692801 109.7365441  67.7563242  85.2805201 107.6420450
  66.8866551  85.5738767 107.3703038  67.9922722  85.8645646 108.3627713
  62.7705566  90.6261142  95.7761115  62.5251608  89.7223472  95.9741325
  62.9401480  90.6278292  94.8340593  70.4602275  81.4984818 105.1585870
  70.9784219  82.2345845 104.8332359  70.1057408  81.8048811 105.9932629
  62.0401213  86.3589499  93.2747276  61.3470458  86.4333854  92.6187312
  61.7952965  85.5949843  93.7968793  70.7114870  77.9185101 100.6786767
  70.9916623  77.2508290 101.3047193  71.4965477  78.1114196 100.1661431
  74.5823728  86.3402735 104.4258342  75.5341151  86.4400832 104.4470566
  74.4127178  85.5481003 104.9356426  72.6038107  83.4258318 104.6117743
  72.0088040  83.7063331 103.9164231  72.3187804  83.9152219 105.3834484
  77.2106294  86.3519898 103.5858925  76.6945343  85.5678354 103.3988854
  78.0946243  86.0238614 103.7505444  74.8717021  80.0960913  99.5454737
  74.6741842  79.7876002 100.4298069  75.4816727  80.8222552  99.6752667
  68.7833829  92.4822654 111.0428503  69.7036839  92.6601253 111.2368549
  68.7483412  91.5378699 110.8908202  58.0015994  87.6761247  99.9681777
  57.6818779  86.8226555  99.6756151  57.4549422  87.8909825 100.7239745
  61.7795902  90.3923688 103.6851284  61.9981911  91.3240796 103.7039318
  62.1921676  90.0331663 104.4706088  66.6523767  85.9656894 113.0754033
  66.5520494  86.9151251 113.0066124  66.4345309  85.6375133 112.2030103
  57.8704254  91.2964159 101.9374899  57.1767726  90.8818111 101.4244853
  58.6177245  91.3384695 101.3408318  74.0069475  82.0870345  96.8029933
  73.4268144  82.7455149  96.4207985  73.7405408  81.2647690  96.3917351
  72.4573041  81.4875403  99.0051253  72.9572820  81.5991938  98.1965572
  73.1008649  81.1836456  99.6452062  66.5155037  89.3954033 111.8919094
  66.0322119  90.1954393 112.0982983  66.6015976  89.4061978 110.9386538
  59.7840997  91.2282412  99.8140914  59.7611685  91.3270100  98.8622797
  60.0941633  92.0747563 100.1358080  62.4428375  93.2858567 103.9287528
  63.3971628  93.2542510 103.8617460  62.2440898  92.8249191 104.7437754
  63.0327757  91.8559684 106.4958326  63.8520646  92.3503762 106.5193163
  63.3064564  90.9391652 106.4675893  76.1408889  84.2716957  99.5740621
  76.9169279  84.7613409  99.8465237  75.4157023  84.6975011 100.0312490
  78.5781448  84.9844576 100.6314561  79.1725938  84.7440312  99.9207869
  78.6508031  84.2651707 101.2588097  60.7978603  98.8278187 100.9457726
  60.6633071  98.0678588 100.3795724  60.3810666  99.5519087 100.4786515
  63.9547729  99.7247504 101.1576169  63.8380113 100.6692936 101.0554859
  63.1340175  99.4221066 101.5461968  58.2862671  86.1897817 107.1950523
  58.9321535  85.6796771 107.6837748  58.0779822  86.9266499 107.7693948
  70.8116063  93.2578665 112.6942663  71.6807223  93.4319317 112.3329298
  70.3322815  94.0773082 112.5718393  64.9802243 100.3775766 104.3732097
  65.8829490 100.4099376 104.6898592  64.7539613  99.4476217 104.3878433
  66.7355845  99.1306752 101.0342176  65.7851476  99.1308614 100.9206548
  67.0388332  98.3839487 100.5178210  62.6260162  83.3365434 111.2925537
  63.4891623  82.9802239 111.5028862  62.0525573  82.9979329 111.9800941
  75.9060920 102.4425385 109.9230258  75.2759581 103.1241666 110.1565654
  75.7997008 102.3308467 108.9783396  69.4843595 102.3627672 103.2811173
  69.7351634 103.2474682 103.5468748  70.0203144 102.1832273 102.5086264
  75.1841663  96.7446151 112.2855509  74.7908608  96.1912350 112.9603153
  76.0007803  97.0556730 112.6762026  73.2450962 103.3460397 108.1553995
  73.1304477 102.4445655 108.4561094  72.3895479 103.5924094 107.8038811
  66.6978639 105.5359574  99.8107128  67.3849679 105.2221304  99.2228143
  66.5426768 106.4400939  99.5374379  71.6828961 111.0454567 103.3620152
  72.2682398 110.2998255 103.4948056  71.4853799 111.3558524 104.2456816
  66.2746616 103.6160168 102.0824595  66.3130715 103.0823758 102.8761713
  65.7686908 103.0895373 101.4635572  70.8795033 104.1392062 107.1933517
  70.1376769 104.2874697 107.7798147  70.5587778 104.4000327 106.3300266
  71.3251647 112.0257490  99.2243912  72.1509667 111.7261262  98.8442555
  70.9745699 111.2565113  99.6733700  69.5260252 109.9443817 100.1832845
  68.6892160 109.5165991 100.0016846  69.4983897 110.1376260 101.1203636
  76.3657708  99.8565747 110.8874091  76.4145863 100.7327869 110.5051861
  76.9080222  99.3143140 110.3145734  68.8409749 103.0053165  99.9681777
  68.5212533 102.1518473  99.6756151  68.2943177 103.2201743 100.7239745
  77.4917522 101.2948812 113.0754033  77.3914248 102.2443169 113.0066124
  77.2739064 100.9667051 112.2030103  68.7098009 106.6256076 101.9374899
  68.0161480 106.2110029 101.4244853  69.4571000 106.6676613 101.3408318
  70.6234751 106.5574330  99.8140914  70.6005439 106.6562017  98.8622797
  70.9335388 107.4039481 100.1358080  73.4653916  98.6657352 111.2925537
  74.3285378  98.3094157 111.5028862  72.8919327  98.3271247 111.9800941
  87.2629709 130.6364336  96.9035614  87.1853738 131.5872161  96.9824094
  86.6591352 130.2910208  97.5610540  89.7546938 117.8092201 109.5596981
  88.9780272 118.3686122 109.5499845  90.3937501 118.2948984 110.0811851
 104.1469450 121.1233087  99.9486434 103.3933158 120.5540485  99.7930438
 104.2816991 121.0895751 100.8957069  92.1364238 130.0680695  92.0596876
  91.4625937 130.3712392  92.6681834  92.5230060 130.8709775  91.7102333
  98.2502975 123.3438250 102.0699849  98.6839481 123.2513539 102.9182903
  98.9634555 123.3195751 101.4319865  99.1118524 123.3861951 104.6032734
  99.3054414 124.2907761 104.8492009  99.0119142 122.9269370 105.4371319
  94.1733633 123.5368694 110.1773615  94.0219139 123.3079245 109.2603699
  94.1638312 124.4939295 110.1904960  90.3355453 130.2360367  94.2743955
  90.5107209 129.7648410  95.0889578  89.6488241 130.8626133  94.5025216
  95.8825840 126.5687816 108.2550097  95.8238386 125.8847036 107.5880680
  96.2845358 127.3106806 107.8030723  84.9016538 133.3849730 101.0483816
  85.1413137 134.0168254 101.7262834  84.0585735 133.0337770 101.3349175
  95.8843247 124.5327400 106.4864076  94.9970026 124.1953322 106.6090475
  96.4541798 123.8010431 106.7232842 100.3660587 119.9435617 101.2480638
 100.3550464 120.8260333 100.8774571  99.4977967 119.5907168 101.0535175
  92.0205623 128.3582616  95.6184818  92.5493389 127.8475070  95.0054980
  92.2833842 128.0425146  96.4830351  90.7743856 120.1374548 110.7407637
  90.0984493 120.0368678 111.4110012  91.5971490 119.9813762 111.2043634
  94.3677513 126.2702733 110.8313907  94.9117417 126.8832692 110.3368862
  93.7864358 126.8282312 111.3480920  94.7169935 127.1932471 103.5908485
  93.7700270 127.0737823 103.5186812  95.0652708 126.3054970 103.6734746
  95.3250490 127.8113746 100.8777710  96.2497037 127.6056608 100.7402161
  95.1565793 127.5630148 101.7867051 100.9685197 121.0935837  97.8530101
 101.4116343 120.3443162  97.4549224 100.0911708 121.0845973  97.4703833
  96.1020979 127.6466178  93.3336700  96.7971883 128.2672871  93.5524014
  96.4444129 126.7961530  93.6089077  97.6906308 125.7298787 110.1675228
  96.9001852 125.7122926 109.6279728  97.4539662 126.2687081 110.9224265
  97.8104183 122.5791254 107.4807957  97.8602188 122.4141261 108.4223480
  97.7018106 121.7118513 107.0905838  99.3122380 124.9988195 107.7249978
  99.0207188 125.3618176 108.5613439  98.6994511 124.2855204 107.5463310
 100.5118062 122.5641075 100.2452549 101.3464953 123.0030879 100.4090109
 100.6477191 122.0879728  99.4260794  98.7399315 120.2192690 103.5400642
  98.7075635 119.2808690 103.7260325  99.3499938 120.2976726 102.8066466
  98.8893803 117.0103733 103.5858925  98.3732852 116.2262190 103.3988854
  99.7733752 116.6822450 103.7505444 104.5575865 121.2808697 102.6806678
 105.2879253 121.0193985 103.2414382 103.9482810 120.5437419 102.7208746
 102.6391162 119.4216559 103.2781130 101.9124325 119.2872524 102.6697621
 102.2238449 119.7293388 104.0837848  88.3311276 116.6240729 113.0754033
  88.2308003 117.5735086 113.0066124  88.1132818 116.2958968 112.2030103
  88.1942546 120.0537868 111.8919094  87.7109628 120.8538228 112.0982983
  88.2803485 120.0645813 110.9386538 102.5640029 118.9494612  99.4057982
 102.0039587 119.0187802 100.1789544 101.9583533 118.7735597  98.6857479
  92.4903572 123.9162500 112.6942663  93.3594732 124.0903153 112.3329298
  92.0110324 124.7356917 112.5718393 104.1496048 135.6251126 102.0987938
 104.7874458 135.5057874 101.3951278 104.0316891 136.5731970 102.1575890
 100.9585754 135.5778554 102.0349463 100.6204266 135.4619619 101.1469998
 101.8275522 135.1769719 102.0150469  96.8172570 137.4314031  98.0246354
  96.2537435 137.3403968  97.2562641  96.7024965 136.6113935  98.5048846
 101.4405537 136.7313406 107.9935668 101.4294178 136.3366204 107.1216172
 101.6026177 135.9979479 108.5869440  94.3637002 138.9265222 100.8630574
  95.1558294 138.5856047 100.4476873  94.6033652 139.0360197 101.7832727
 102.3972129 141.0984998  93.3360819 101.7460108 141.6839079  92.9494832
 103.1916491 141.6291193  93.3955856  96.3227756 138.1874136  93.7347953
  97.0958632 137.6403123  93.5960829  96.6753155 139.0518385  93.9462414
  98.1612798 139.5150518 106.9414852  97.8702664 140.4196149 106.8261519
  98.7969783 139.5567045 107.6558922  99.0869005 136.8927366 103.5316212
  99.6832577 136.6683389 102.8173175  99.1443977 136.1512112 104.1341660
  98.6594034 134.3466802  91.3666403  98.9119554 133.8248323  90.6049866
  97.7218593 134.1832947  91.4693086 103.7037316 133.3502580  99.1741146
 104.4900406 132.9322003  98.8231563 103.9676021 134.2548672  99.3422794
 103.8747394 138.7875430  93.8729803 103.2393227 138.8610057  94.5850708
 103.5444800 139.3769029  93.1948882 109.1045743 133.2877813 100.0774125
 109.8370915 132.7177030 100.3111954 108.3485099 132.8999414 100.5180630
  98.3790322 136.2494908  93.5690778  98.2626580 135.5739811  94.2371862
  98.4892582 135.7627282  92.7522931 100.7221863 135.7105055  97.2737467
 100.3580070 135.1835676  97.9850389 101.5788979 135.3203524  97.1003952
 106.6271164 126.9999387 104.5368733 106.2954489 127.8694798 104.3129948
 106.0316777 126.6835671 105.2162764 100.3627350 130.7394954  92.2698816
 100.5301753 131.6075191  92.6369287 100.1724519 130.9022236  91.3460105
 103.1202683 139.2011933 103.9364646 102.8203406 140.1036972 103.8280453
 102.7753743 138.9344117 104.7885799  96.5715165 135.6525730  99.9701350
  95.6465661 135.5201944 100.1779042  96.8199578 136.4319949 100.4671293
 106.5199827 131.7194474 101.6162083 105.6116704 131.6509882 101.3220844
 106.4687423 132.1966418 102.4443909 100.3416571 133.1952612  93.2545482
 100.2216196 133.6409663  94.0930963  99.6469159 133.5437930  92.6959021
  93.9323976 135.2959004 100.8045139  94.0616357 135.5493483 101.7184551
  93.2521427 135.8886712 100.4849795  98.1023463 145.9656254  96.9035614
  98.0247493 146.9164079  96.9824094  97.4985107 145.6202126  97.5610540
 100.5940693 133.1384119 109.5596981  99.8174027 133.6978039 109.5499845
 101.2331256 133.6240902 110.0811851 108.3861474 129.9210912 103.3939957
 107.7435854 130.2143445 102.7479752 107.8816402 129.8063832 104.1993154
 106.0401637 133.6674085  94.0825816 106.9519493 133.9001472  93.9073514
 105.5311284 134.2511129  93.5200895  98.8487065 135.9469572 109.1214948
  99.5901750 136.4854616 108.8449771  98.1424051 136.5735861 109.2786499
 104.3242405 138.0898713 107.7187109 104.7325761 137.6481123 106.9741741
 103.6019666 137.5151340 107.9721302 100.6773475 133.0271320 105.0920666
 101.5234670 133.4510733 105.2355315 100.6172113 132.3704944 105.7859229
 104.6471219 138.6499904 101.4739398 104.0180082 138.8145618 100.7715466
 104.2596882 139.0641513 102.2450362 108.5260451 139.5854341  98.8283762
 107.8411490 139.9653243  98.2780795 108.6104301 140.1949668  99.5615709
 103.8272920 130.6875688 106.7501840 103.5833852 131.4417749 106.2136115
 104.1032851 131.0661036 107.5849087 105.7811383 137.2314300 105.4279105
 105.9928278 137.8746060 104.7513486 105.7341131 136.3976617 104.9601035
 103.3837612 129.8432121 102.3315677 102.5222091 130.1413375 102.6232415
 103.4100047 130.0602520 101.3996710 100.1999181 138.3874312  98.7389483
 100.6637527 138.6662015  97.9494106  99.9355979 137.4857756  98.5562574
  97.0923262 137.9345793 101.6769246  97.6624620 138.3633062 101.0386731
  97.6831374 137.6528378 102.3753432  99.1368067 134.5097464  95.5479048
  99.8392111 134.9618508  96.0152975  98.8048696 133.8681283  96.1758941
  97.5848429 133.1009221 109.9230258  96.9547090 133.7825501 110.1565654
  97.4784517 132.9892302 108.9783396  92.8793401 132.7681017 100.8496182
  92.0892455 133.0238545 100.3736292  93.3704649 133.5829355 100.9548222
 106.8957211 140.1086256 103.6001463 107.7174655 139.7066443 103.3184144
 106.8919614 140.0054490 104.5517578  94.8308147 133.1325596  97.8079658
  94.0339310 133.2444290  98.3263154  94.6033739 133.4712248  96.9420549
 100.6613814 139.6570299 105.7562173 100.7258247 140.1190706 106.5920345
  99.9524738 139.0267664 105.8844483 114.9863204 136.4525004  99.9486434
 114.2326912 135.8832402  99.7930438 115.1210745 136.4187669 100.8957069
 100.3761832 141.3238407  95.6241153 100.2407507 142.1689942  96.0526001
 100.9171645 141.5257684  94.8607087  96.8629172 127.4029986 112.2855509
  96.4696117 126.8496185 112.9603153  97.6795312 127.7140565 112.6762026
  93.8291229 138.8413845  96.1969078  94.3415750 139.6357095  96.3474643
  94.4813942 138.1440135  96.1302680  95.6386114 141.9579601  98.2791832
  95.8152742 142.8797566  98.0912816  96.4342948 141.6438020  98.7086211
  99.7797133 128.8187866 109.8775765 100.5206846 129.4195019 109.7980228
 100.0115056 128.0765503 109.3193808  94.9238471 134.0044233 108.1553995
  94.8091986 133.1029490 108.4561094  94.0682988 134.2507930 107.8038811
 102.0030308 141.9461973 109.7541495 101.5594163 141.1598352 109.4362400
 102.6647522 142.1341124 109.0885386  96.7617430 143.4757775 104.2802174
  97.3124855 143.3474838 103.5079168  95.9228906 143.7752664 103.9297067
 104.1011546 142.2264773 107.7822897 104.0830022 143.0473654 107.2903166
 105.0231467 142.1018848 108.0073038 100.5584601 139.7408903 108.6246405
 101.0912937 138.9797191 108.3945713 100.0298682 139.4482554 109.3670560
 103.7254296 124.8468969 104.1540047 103.3818565 125.7370610 104.0779157
 104.0933258 124.6570626 103.2909632  91.7940146 137.1702499  96.9728649
  92.6315368 137.5799507  96.7562357  91.9718414 136.2301941  96.9428843
 103.6904578 134.8377580  92.6612482 103.1751202 135.6082184  92.9000869
 103.4181887 134.1642716  93.2845543 101.2751689 129.6827280  97.7197720
 100.4193286 129.2934131  97.5403359 101.6878641 129.7619241  96.8597506
 102.8050836 127.2173624 102.1189280 102.3015632 127.1803759 101.3057085
 103.0981443 128.1266366 102.1785937  99.0493722 127.3012353 101.1255462
  99.9146719 127.1055162 100.7661351  99.1171231 127.0722705 102.0524819
 108.6638852 137.5909934  94.5965655 107.8868295 137.2521094  94.1520818
 109.3430333 137.5962557  93.9220620 103.4790882 132.7104672  94.4872263
 103.1741017 133.0250821  95.3382406 104.4321324 132.7886092  94.5299596
 101.9237313 138.8694895  96.1365217 101.3958675 138.1347655  95.8238455
 101.4224816 139.6469571  95.8905185 106.9030159 137.0643916 101.2532263
 106.2453834 137.7543177 101.3412392 107.7070559 137.4540347 101.5966250
  96.6556041 129.5314561  98.4971829  97.2299793 129.3089743  97.7645022
  97.2427023 129.6003256  99.2500430 105.7135618 135.4188288  99.3036205
 106.2267500 136.0518280  99.8057915 106.3636842 134.8189484  98.9379565
  96.9825628 131.5619022  92.5167714  96.1462940 131.8993709  92.8376989
  96.8430398 131.4268002  91.5794851  98.9578709 126.4055810  97.2246898
  98.3043121 126.0904827  96.6003513  98.9159183 125.7831551  97.9506721
 100.0689914 136.6875105  89.1400190  99.1616975 136.4564359  89.3391339
 100.5660946 135.8912725  89.3274172 102.9757992 145.3972612  92.0596876
 102.3019691 145.7004309  92.6681834 103.3623814 146.2001693  91.7102333
 102.1916449 132.8937744 101.5494546 101.2739010 133.1152691 101.3916234
 102.6076593 132.9684054 100.6906253 102.9751497 134.2929159  96.6797226
 103.7223316 134.8050557  96.3704348 103.2443086 133.9713212  97.5401620
 101.2478147 136.7887700  93.6624180 100.3389366 136.5046733  93.7596650
 101.2773231 137.2086779  92.8027487 106.4797414 140.3994290  97.4315348
 106.0259741 139.5585200  97.4880538 105.8491381 141.0355688  97.7690128
 105.4230334 131.3286276  98.6616015 104.6853091 130.8163662  98.9926258
 105.6757107 130.8886657  97.8499292 104.9230354 142.2370786  98.3665166
 105.2153328 142.7975843  97.6477532 105.4328974 142.5299347  99.1218325
 105.5241961 124.1062528  99.2557785 105.8300838 123.2459891  98.9683700
 106.2494566 124.6980148  99.0556778  91.8166317 134.5093214  97.6439382
  91.6190717 133.9162575  96.9190449  91.2612981 134.2045424  98.3615321
  99.7963041 134.4016321  99.7633976  99.8511651 133.4490157  99.6876452
  98.9854243 134.5575760 100.2475274 100.9454235 138.3296444  91.0012259
 100.5073665 137.6132303  90.5417896 101.6864676 138.5572559  90.4397350
  97.7355401 133.0193380  97.5224354  96.9223266 133.3187551  97.9289547
  98.2314395 132.6249069  98.2398837  99.8863979 143.0151137  99.4558619
  99.8440158 143.2411984  98.5267151 100.8026678 142.7814512  99.6044420
 103.3329613 133.4835205 106.3539248 103.6879000 133.7106678 107.2133714
 103.9801744 133.8153582 105.7316504 109.0627350 136.6053641  97.0588577
 108.9245248 136.7955237  96.1309767 108.7063568 137.3673024  97.5156629
  97.2269476 130.5911736 103.1385589  97.8668855 130.4500495 102.4408553
  96.3947006 130.3046249 102.7624191 109.0896729 138.6730168 102.0699849
 109.5233236 138.5805457 102.9182903 109.8028310 138.6487668 101.4319865
  98.0029780 139.8914166  99.2520582  98.7970378 139.3964487  99.0503157
  97.2921472 139.3632030  98.8888287 102.8224624 142.2732262 103.6032949
 102.8761646 142.8423198 104.3710665 101.9539405 142.4434147 103.2386987
  94.3112543 134.0357248  95.3280335  93.3810131 133.9741704  95.5450297
  94.4070015 133.5133201  94.5316976  94.2298092 130.5612061  97.9158576
  94.4904909 131.4757394  97.8067737  95.0515264 130.0936504  98.0655189
  95.7023017 131.9749818 105.0857401  96.3746071 131.7667180 104.4370050
  94.8752804 131.7771904 104.6462633 109.9512279 138.7153869 104.6032734
 110.1448169 139.6199679 104.8492009 109.8512897 138.2561288 105.4371319
 101.6048589 128.6011759 107.1023062 100.9576505 129.3001709 107.0087538
 102.3749605 129.0347903 107.4699310 105.0127387 138.8660611 110.1773615
 104.8612894 138.6371163 109.2603699 105.0032067 139.8231213 110.1904960
 101.7812724 136.4392524 105.1619881 102.7104784 136.5903684 104.9888849
 101.3603754 136.5276545 104.3068528 100.5801056 140.4643188 102.9318419
 100.4412141 140.0961973 103.8044357  99.7915652 140.9790828 102.7602377
 101.1749208 145.5652285  94.2743955 101.3500963 145.0940328  95.0889578
 100.4881996 146.1918051  94.5025216 102.1306271 139.8424791 100.3207257
 101.7956103 139.8025561 101.2164907 101.6310216 139.1769507  99.8477667
  96.1050515 135.2492421 105.8459838  95.9670313 134.5172660 106.4471377
  97.0155438 135.1601321 105.5644026 105.0665462 137.1880825  90.5944316
 104.4494633 136.4627654  90.4977369 104.5981951 137.9490186  90.2511391
  98.7332815 134.9612380 105.3343518  99.4432434 134.3205573 105.2930136
  98.6902124 135.2125275 106.2569698 106.7219594 141.8979734 108.2550097
 106.6632140 141.2138954 107.5880680 107.1239112 142.6398724 107.8030723
  97.4461749 131.9477598 107.1539157  96.9099106 131.4968337 107.8060753
  96.8578458 132.0823507 106.4109621  95.7410293 148.7141648 101.0483816
  95.9806891 149.3460172 101.7262834  94.8979489 148.3629688 101.3349175
  96.8564008 131.4066250  89.7165621  95.9793475 131.2855051  89.3527867
  97.3321761 130.6152328  89.4644509 106.7237001 139.8619318 106.4864076
 105.8363780 139.5245240 106.6090475 107.2935552 139.1302349 106.7232842
  88.3766148 136.1943409  99.8107128  89.0637188 135.8805140  99.2228143
  88.2214277 137.0984774  99.5374379 100.2538155 144.5220770 103.4525320
 100.1808326 145.3275742 103.9644624  99.8115548 144.7212736 102.6273341
 100.0427934 143.7592540  96.9628141  99.2595456 144.3014220  97.0566366
 100.7420680 144.2766520  97.3622382 103.3524584 129.5687170  99.6062347
 103.8493284 128.8157132  99.2863417 102.5811566 129.6051486  99.0405556
 111.2054342 135.2727535 101.2480638 111.1944218 136.1552251 100.8774571
 110.3371721 134.9199086 101.0535175 102.7136838 144.4207604 105.6083478
 103.4264810 145.0555069 105.5359380 102.2226867 144.5171470 104.7923480
 104.4354365 138.3258857  97.1800770 103.5010644 138.4460319  97.0105474
 104.6131034 137.4231324  96.9160780  99.9359553 131.7104553  99.3334031
  99.5657341 131.1575593 100.0214937 100.4318646 131.1062686  98.7809031
 107.8226916 134.1676176  97.7150804 108.2887369 135.0004168  97.6411107
 108.2734417 133.7021158  98.4196063  97.7648752 142.1702048 106.4289049
  98.4658211 142.8038531 106.5818443  97.2943867 142.5116779 105.6684688
 105.8903148 140.5119997  94.7136956 106.1662991 140.3976592  95.6230830
 105.0207646 140.1137482  94.6749129 105.7943579 126.5356763 101.7541705
 104.8806659 126.7660990 101.9223912 106.2236681 126.6195207 102.6055738
 105.5650038 134.7246655 104.2541599 104.9121488 134.9722562 103.5994052
 105.9430418 133.9110793 103.9204077 102.5257212 144.7606348  98.3569770
 102.7079606 143.9428004  98.8197522 103.3490198 144.9774040  97.9194660
 102.8599377 143.6874533  95.6184818 103.3887144 143.1766988  95.0054980
 103.1227597 143.3717064  96.4830351 101.6137611 135.4666466 110.7407637
 100.9378248 135.3660595 111.4110012 102.4365245 135.3105680 111.2043634
  93.3616470 141.7038403 103.3620152  93.9469907 140.9582091 103.4948056
  93.1641308 142.0142359 104.2456816  96.2155125 144.7389650  98.3782594
  95.5465500 145.2235778  97.8946634  96.0767995 144.9858870  99.2925973
 100.3560394 146.7733394 104.9765253 100.9078702 146.9365015 105.7414338
 100.6966587 147.3637831 104.3045277  95.3324887 129.1208543 105.5787137
  95.3966213 129.9823374 105.1664535  95.2692007 128.5082545 104.8459496
  94.8077159 131.1931676 109.2260172  95.4349198 130.8108753 109.8397696
  93.9505078 130.9745878 109.5915864 105.2071268 141.5994651 110.8313907
 105.7511172 142.2124609 110.3368862 104.6258113 142.1574229 111.3480920
  91.5842702 133.0008105  95.1578526  91.8796143 132.0918783  95.1045580
  90.6830738 132.9795844  94.8359529 103.4928781 144.7215369 101.9628935
 103.3679920 143.9205109 101.4539880 104.1507872 145.2161562 101.4742905
  95.1136949 131.0764102 101.1406075  94.3923535 131.6900069 101.0013548
  95.9030205 131.6121866 101.0622721 105.5563689 142.5224389 103.5908485
 104.6094025 142.4029740 103.5186812 105.9046462 141.6346887 103.6734746
  97.9163263 128.4118528 107.4146727  98.4397664 128.6580825 108.1773036
  97.6975596 129.2438563 106.9949864  93.3130544 130.6822203  95.2817851
  92.9843250 129.8019582  95.0992957  93.6669914 130.6269871  96.1694241
 102.5610123 142.3177105  99.7912837 102.4135085 141.3893813  99.9720407
 103.3863616 142.3397196  99.3069912  96.4272367 130.9695172  95.6493329
  96.7668439 131.4981094  94.9271938  96.8744487 131.3075579  96.4251896
 106.1644244 143.1405664 100.8777710 107.0890792 142.9348525 100.7402161
 105.9959548 142.8922065 101.7867051  99.1215808 129.3532223 105.0996397
  98.7812628 128.5540036 105.5017077  98.4154814 129.6533934 104.5273230
  99.7732280 126.4381536 103.5523720 100.5958349 125.9642014 103.4302611
 100.0170343 127.2172019 104.0522407  98.4140514 129.4669794  93.8486622
  99.1348877 129.8451047  93.3450339  97.7905818 130.1858671  93.9521600
 102.5571637 130.1714943  94.7844954 102.7735251 131.0539581  94.4833782
 102.0765704 129.7801156  94.0550596  97.2970858 133.1300656 101.3615699
  97.1515439 133.4440959 102.2539980  96.8196062 133.7485557 100.8086598
  99.1567241 130.1203204 101.4096588  99.1428810 129.2244298 101.0728886
  99.8739669 130.1273868 102.0434874 101.0093372 130.5540544 103.4549716
 100.7511150 131.4757615 103.4534046 100.4778412 130.1570979 104.1450180
 105.9539561 143.6591332  96.2339801 106.1276438 143.0937754  95.4813654
 106.4468452 144.4592226  96.0519291  98.5604137 129.0017585  96.6784159
  98.6820048 128.0734231  96.8775046  98.2706179 129.0156270  95.7662474
 101.4295327 126.6872495  99.8150878 101.4517024 126.7511828  98.8602858
 101.8463387 125.8477004 100.0091385 111.8078952 136.4227755  97.8530101
 112.2510098 135.6735080  97.4549224 110.9305462 136.4137891  97.4703833
 106.9414733 142.9758096  93.3336700 107.6365638 143.5964789  93.5524014
 107.2837883 142.1253447  93.6089077  92.5582542 134.7975897 107.1933517
  91.8164278 134.9458532 107.7798147  92.2375287 135.0584163 106.3300266
 108.8406156 140.4257802  94.8624030 109.3657480 140.7645074  94.1373350
 108.7528509 139.4904817  94.6787165 100.5026205 144.3391875 106.9913907
 100.8113331 144.0941022 107.8636607 101.3001687 144.5438514 106.5032777
 100.5246817 146.4929785  99.2219283 100.0851807 146.0006163  99.9152140
 101.2754934 145.9502752  98.9811359  93.0039156 142.6841326  99.2243912
  93.8297176 142.3845098  98.8442555  92.6533208 141.9148948  99.6733700
  97.9720689 142.0367794 101.2941585  97.3500698 141.3738499 100.9943813
  98.6425556 142.0628926 100.6115233  91.2047761 140.6027652 100.1832845
  90.3679669 140.1749826 100.0016846  91.1771406 140.7960095 101.1203636
  98.0445217 130.5149582 110.8874091  98.0933372 131.3911705 110.5051861
  98.5867731 129.9726975 110.3145734 108.5300062 141.0590705 110.1675228
 107.7395606 141.0414844 109.6279728 108.2933417 141.5978999 110.9224265
 108.6497937 137.9083172 107.4807957 108.6995942 137.7433179 108.4223480
 108.5411861 137.0410431 107.0905838  97.5334196 140.5871717  94.7700046
  97.6822316 141.2707182  94.1166718  98.3400640 140.5676807  95.2849501
 105.9401700 133.8914100 108.7967263 106.8411563 133.7520564 108.5051261
 106.0149674 134.0568554 109.7365441 100.2744505 131.2680954 107.6420450
  99.4047814 131.5614520 107.3703038 100.5103985 131.8521399 108.3627713
 110.1516134 140.3280113 107.7249978 109.8600943 140.6910094 108.5613439
 109.5388265 139.6147121 107.5463310 111.3511817 137.8932993 100.2452549
 112.1858708 138.3322797 100.4090109 111.4870945 137.4171646  99.4260794
 108.4003322 135.4512728 106.1930036 108.8757444 135.6440374 105.3848888
 107.4768888 135.5071913 105.9473420  95.2886829 136.6136895  95.7761115
  95.0432871 135.7099225  95.9741325  95.4582744 136.6154045  94.8340593
 102.9783539 127.4860571 105.1585870 103.4965483 128.2221598 104.8332359
 102.6238672 127.7924565 105.9932629  94.5582477 132.3465252  93.2747276
  93.8651722 132.4209607  92.6187312  94.3134228 131.5825596  93.7968793
 103.2296133 123.9060854 100.6786767 103.5097887 123.2384043 101.3047193
 104.0146740 124.0989949 100.1661431 101.0329602 143.0819848  92.2411793
 100.4603569 143.7010035  91.7882265 101.6062395 143.6319209  92.7751715
 107.1004991 132.3278488 104.4258342 108.0522414 132.4276585 104.4470566
 106.9308442 131.5356756 104.9356426 105.1219371 129.4134071 104.6117743
 104.5269303 129.6939084 103.9164231 104.8369068 129.9027972 105.3834484
 104.2526861 143.3656998  93.3720375 105.1857535 143.3002559  93.5753251
 104.1650074 144.2013265  92.9134908 106.8814878 142.6822868  90.3324323
 106.8028510 142.3482732  91.2260081 107.7024545 143.1744636  90.3315795
 109.5793069 135.5484607 103.5400642 109.5469389 134.6100608 103.7260325
 110.1893693 135.6268644 102.8066466 101.4176400 134.4180660  89.5827846
 102.3635505 134.2886869  89.6516264 101.0390645 133.6795322  90.0597274
 109.7287558 132.3395651 103.5858925 109.2126606 131.5554108 103.3988854
 110.6127506 132.0114367 103.7505444 107.3898285 126.0836666  99.5454737
 107.1923106 125.7751755 100.4298069 107.9997990 126.8098305  99.6752667
 115.3969619 136.6100614 102.6806678 116.1273008 136.3485902 103.2414382
 114.7876565 135.8729336 102.7208746 113.4784916 134.7508477 103.2781130
 112.7518080 134.6164442 102.6697621 113.0632203 135.0585305 104.0837848
 101.3015093 138.4698407 111.0428503 102.2218102 138.6477006 111.2368549
 101.2664676 137.5254452 110.8908202  99.6019317 132.3430637  89.5182731
  98.6950773 132.0463750  89.5945444  99.8795298 132.0460455  88.6517017
  94.2977165 136.3799441 103.6851284  94.5163175 137.3116549 103.7039318
  94.7102939 136.0207416 104.4706088 101.2181383 126.8867527  95.6726972
 100.4082111 126.5414611  96.0482218 101.9065800 126.5775070  96.2614584
 103.1471931 125.9645573  97.2951269 103.7002970 126.3841027  97.9541292
 103.3842018 125.0381321  97.3374225  99.1705030 131.9532647 113.0754033
  99.0701757 132.9027004 113.0066124  98.9526573 131.6250886 112.2030103
  98.3718102 129.2017572  89.6594710  99.2337266 129.5272470  89.9190527
  98.5568446 128.4149068  89.1467776  90.3885518 137.2839912 101.9374899
  89.6948989 136.8693864 101.4244853  91.1358509 137.3260448 101.3408318
 106.5250738 128.0746098  96.8029933 105.9449407 128.7330903  96.4207985
 106.2586671 127.2523443  96.3917351 104.9754305 127.4751156  99.0051253
 105.4754083 127.5867691  98.1965572 105.6189913 127.1712209  99.6452062
  99.0336301 135.3829786 111.8919094  98.5503382 136.1830146 112.0982983
  99.1197240 135.3937731 110.9386538  92.3022260 137.2158165  99.8140914
  92.2792948 137.3145853  98.8622797  92.6122897 138.0623316 100.1358080
  94.9609638 139.2734321 103.9287528  95.9152892 139.2418263 103.8617460
  94.7622162 138.8124944 104.7437754  95.5509020 137.8435437 106.4958326
  96.3701909 138.3379515 106.5193163  95.8245828 136.9267405 106.4675893
 105.3075616 130.2346189  95.8586281 104.4201471 130.5195839  95.6406476
 105.7229605 130.0739952  95.0113558 108.6590153 130.2592710  99.5740621
 109.4350543 130.7489162  99.8465237 107.9338287 130.6850764 100.0312490
 111.0962711 130.9720329 100.6314561 111.6907202 130.7316065  99.9207869
 111.1689295 130.2527460 101.2588097  93.3159867 144.8153940 100.9457726
  93.1814335 144.0554341 100.3795724  92.8991929 145.5394840 100.4786515
 104.4518830 139.9990864  89.9534301 105.1554680 140.2040866  90.5691957
 103.7281479 140.5667625  90.2183385 105.2816640 135.7500725  96.0736571
 105.2251842 136.2069276  95.2344204 105.8344983 134.9891409  95.8959414
 109.0921446 131.5390457  96.8986691 108.8358380 131.1387092  97.7294899
 108.4674314 132.2534251  96.7736830 113.4033784 134.2786530  99.4057982
 112.8433342 134.3479719 100.1789544 112.7977287 134.1027515  98.6857479
  96.4728993 145.7123257 101.1576169  96.3561377 146.6568690 101.0554859
  95.6521439 145.4096819 101.5461968 106.3605527 140.4373393  92.0032761
 107.1951131 140.0054591  91.8210236 106.1989870 140.2655406  92.9309656
 106.0151419 136.9405506  93.3689101 105.9600223 136.7749777  92.4277545
 105.3897475 137.6481539  93.5251290 103.3297327 139.2454418 112.6942663
 104.1988486 139.4195070 112.3329298 102.8504078 140.0648835 112.5718393
  99.3247545 126.4413615  92.9474419  99.3126215 127.3855455  93.1042690
 100.2170967 126.2583760  92.6533880  97.4983507 146.3651519 104.3732097
  98.4010754 146.3975129 104.6898592  97.2720877 145.4351970 104.3878433
  99.2537109 145.1182505 101.0342176  98.3032740 145.1184367 100.9206548
  99.5569595 144.3715240 100.5178210 103.1399664 123.0356392  97.2020356
 102.3732060 122.4814878  97.3477038 103.5510369 123.1078260  98.0634507
  95.1441425 129.3241187 111.2925537  96.0072887 128.9677992 111.5028862
  94.5706836 128.9855082 111.9800941 111.7979509 150.9070472 102.0349463
 111.4598020 150.7911537 101.1469998 112.6669277 150.5061637 102.0150469
 107.6566324 152.7605948  98.0246354 107.0931189 152.6695885  97.2562641
 107.5418719 151.9405853  98.5048846 105.2030756 154.2557140 100.8630574
 105.9952048 153.9147965 100.4476873 105.4427406 154.3652115 101.7832727
 107.1621510 153.5166053  93.7347953 107.9352386 152.9695040  93.5960829
 107.5146909 154.3810303  93.9462414 109.9262760 152.2219284 103.5316212
 110.5226332 151.9975306 102.8173175 109.9837731 151.4804029 104.1341660
 109.4987788 149.6758719  91.3666403 109.7513309 149.1540241  90.6049866
 108.5612347 149.5124865  91.4693086 114.5431071 148.6794498  99.1741146
 115.3294160 148.2613921  98.8231563 114.8069775 149.5840590  99.3422794
 109.2184077 151.5786825  93.5690778 109.1020335 150.9031729  94.2371862
 109.3286337 151.0919199  92.7522931 111.5615618 151.0396972  97.2737467
 111.1973825 150.5127593  97.9850389 112.4182734 150.6495441  97.1003952
 117.4664918 142.3291305 104.5368733 117.1348243 143.1986716 104.3129948
 116.8710532 142.0127589 105.2162764 111.2021105 146.0686872  92.2698816
 111.3695507 146.9367108  92.6369287 111.0118274 146.2314154  91.3460105
 107.4108919 150.9817648  99.9701350 106.4859416 150.8493862 100.1779042
 107.6593333 151.7611867 100.4671293 117.3593582 147.0486391 101.6162083
 116.4510459 146.9801800 101.3220844 117.3081177 147.5258336 102.4443909
 111.1810326 148.5244530  93.2545482 111.0609951 148.9701580  94.0930963
 110.4862914 148.8729847  92.6959021 104.7717730 150.6250921 100.8045139
 104.9010112 150.8785400 101.7184551 104.0915182 151.2178629 100.4849795
 119.2255228 145.2502830 103.3939957 118.5829608 145.5435363 102.7479752
 118.7210157 145.1355750 104.1993154 111.5167229 148.3563237 105.0920666
 112.3628425 148.7802651 105.2355315 111.4565867 147.6996862 105.7859229
 114.2231366 145.1724039 102.3315677 113.3615845 145.4705292 102.6232415
 114.2493801 145.3894438 101.3996710 107.9317017 153.2637711 101.6769246
 108.5018374 153.6924979 101.0386731 108.5225129 152.9820296 102.3753432
 109.9761822 149.8389382  95.5479048 110.6785865 150.2910425  96.0152975
 109.6442450 149.1973201  96.1758941 103.7187156 148.0972934 100.8496182
 102.9286210 148.3530463 100.3736292 104.2098403 148.9121272 100.9548222
 105.6701901 148.4617514  97.8079658 104.8733065 148.5736208  98.3263154
 105.4427493 148.8004166  96.9420549 102.0024859 148.3503425 103.2811173
 102.2532897 149.2350435 103.5468748 102.5384407 148.1708026 102.5086264
 104.6684984 154.1705762  96.1969078 105.1809504 154.9649013  96.3474643
 105.3207697 153.4732053  96.1302680 105.7632225 149.3336151 108.1553995
 105.6485740 148.4321408 108.4561094 104.9076743 149.5799847 107.8038811
 114.5648050 140.1760886 104.1540047 114.2212319 141.0662528 104.0779157
 114.9327013 139.9862544 103.2909632 102.6333901 152.4994417  96.9728649
 103.4709123 152.9091425  96.7562357 102.8112168 151.5593859  96.9428843
 112.1145444 145.0119198  97.7197720 111.2587040 144.6226048  97.5403359
 112.5272396 145.0911159  96.8597506 113.6444590 142.5465541 102.1189280
 113.1409386 142.5095676 101.3057085 113.9375197 143.4558284 102.1785937
 109.8887476 142.6304271 101.1255462 110.7540473 142.4347080 100.7661351
 109.9564985 142.4014623 102.0524819 114.3184636 148.0396589  94.4872263
 114.0134772 148.3542739  95.3382406 115.2715078 148.1178009  94.5299596
 107.4949795 144.8606479  98.4971829 108.0693547 144.6381660  97.7645022
 108.0820778 144.9295173  99.2500430 107.8219383 146.8910940  92.5167714
 106.9856695 147.2285627  92.8376989 107.6824152 146.7559920  91.5794851
 109.7972463 141.7347728  97.2246898 109.1436876 141.4196745  96.6003513
 109.7552937 141.1123468  97.9506721 110.9083668 152.0167023  89.1400190
 110.0010730 151.7856276  89.3391339 111.4054700 151.2204642  89.3274172
 113.0310204 148.2229661 101.5494546 112.1132765 148.4444608 101.3916234
 113.4470347 148.2975972 100.6906253 116.2624088 146.6578193  98.6616015
 115.5246845 146.1455580  98.9926258 116.5150862 146.2178575  97.8499292
 116.3635716 139.4354445  99.2557785 116.6694593 138.5751809  98.9683700
 117.0888321 140.0272066  99.0556778 102.6560072 149.8385132  97.6439382
 102.4584472 149.2454493  96.9190449 102.1006736 149.5337342  98.3615321
 110.6356796 149.7308238  99.7633976 110.6905405 148.7782075  99.6876452
 109.8247998 149.8867678 100.2475274 108.5749155 148.3485298  97.5224354
 107.7617021 148.6479469  97.9289547 109.0708150 147.9540987  98.2398837
 108.0663230 145.9203654 103.1385589 108.7062610 145.7792413 102.4408553
 107.2340761 145.6338167 102.7624191 105.1506298 149.3649166  95.3280335
 104.2203886 149.3033621  95.5450297 105.2463770 148.8425119  94.5316976
 105.0691847 145.8903979  97.9158576 105.3298664 146.8049312  97.8067737
 105.8909019 145.4228421  98.0655189 106.5416772 147.3041736 105.0857401
 107.2139825 147.0959098 104.4370050 105.7146558 147.1063822 104.6462633
 112.4442344 143.9303677 107.1023062 111.7970259 144.6293626 107.0087538
 113.2143359 144.3639821 107.4699310 106.9444269 150.5784339 105.8459838
 106.8064067 149.8464578 106.4471377 107.8549193 150.4893239 105.5644026
 108.2855504 147.2769516 107.1539157 107.7492861 146.8260254 107.8060753
 107.6972212 147.4115425 106.4109621 107.6957763 146.7358167  89.7165621
 106.8187229 146.6146968  89.3527867 108.1715516 145.9444246  89.4644509
  99.2159903 151.5235327  99.8107128  99.9030943 151.2097057  99.2228143
  99.0608032 152.4276692  99.5374379 104.0194625 146.4125524 104.2392152
 103.9352814 145.8051193 103.5042561 103.1977331 146.9034542 104.2401648
 114.1918339 144.8979087  99.6062347 114.6887038 144.1449050  99.2863417
 113.4205320 144.9343404  99.0405556 110.7753308 147.0396470  99.3334031
 110.4051095 146.4867511 100.0214937 111.2712400 146.4354604  98.7809031
 116.6337334 141.8648681 101.7541705 115.7200414 142.0952908 101.9223912
 117.0630435 141.9487125 102.6055738 104.2010224 157.0330320 103.3620152
 104.7863661 156.2874008 103.4948056 104.0035063 157.3434277 104.2456816
  98.7927879 149.6035921 102.0824595  98.8311979 149.0699511 102.8761713
  98.2868172 149.0771126 101.4635572 106.1718641 144.4500461 105.5787137
 106.2359968 145.3115292 105.1664535 106.1085762 143.8374463 104.8459496
 105.6470914 146.5223594 109.2260172 106.2742953 146.1400671 109.8397696
 104.7898833 146.3037796 109.5915864 102.4236457 148.3300023  95.1578526
 102.7189898 147.4210701  95.1045580 101.5224492 148.3087762  94.8359529
 105.9530704 146.4056019 101.1406075 105.2317289 147.0191987 101.0013548
 106.7423959 146.9413784 101.0622721 108.7557017 143.7410446 107.4146727
 109.2791419 143.9872742 108.1773036 108.5369350 144.5730481 106.9949864
 104.1524298 146.0114120  95.2817851 103.8237004 145.1311499  95.0992957
 104.5063669 145.9561789  96.1694241 107.2666121 146.2987090  95.6493329
 107.6062194 146.8273011  94.9271938 107.7138242 146.6367496  96.4251896
 109.9609562 144.6824141 105.0996397 109.6206383 143.8831954 105.5017077
 109.2548568 144.9825852 104.5273230 110.6126034 141.7673453 103.5523720
 111.4352103 141.2933931 103.4302611 110.8564098 142.5463937 104.0522407
 109.2534269 144.7961712  93.8486622 109.9742631 145.1742965  93.3450339
 108.6299573 145.5150589  93.9521600 113.3965391 145.5006861  94.7844954
 113.6129006 146.3831499  94.4833782 112.9159459 145.1093074  94.0550596
 108.1364613 148.4592574 101.3615699 107.9909194 148.7732877 102.2539980
 107.6589816 149.0777474 100.8086598 109.9960996 145.4495122 101.4096588
 109.9822564 144.5536215 101.0728886 110.7133424 145.4565786 102.0434874
 111.8487126 145.8832462 103.4549716 111.5904904 146.8049533 103.4534046
 111.3172167 145.4862897 104.1450180 102.6110275 150.9997918 104.3003360
 102.0663743 151.7757726 104.4323634 103.4889625 151.3468723 104.1422481
 109.3997892 144.3309502  96.6784159 109.5213803 143.4026148  96.8775046
 109.1099934 144.3448188  95.7662474 112.2689082 142.0164413  99.8150878
 112.2910779 142.0803746  98.8602858 112.6857141 141.1768921 100.0091385
 103.3976297 150.1267815 107.1933517 102.6558033 150.2750450 107.7798147
 103.0769041 150.3876080 106.3300266 102.0441516 155.9319570 100.1832845
 101.2073424 155.5041744 100.0016846 102.0165161 156.1252013 101.1203636
 106.1280584 151.9428813  95.7761115 105.8826625 151.0391143  95.9741325
 106.2976498 151.9445963  94.8340593 113.8177293 142.8152489 105.1585870
 114.3359237 143.5513516 104.8332359 113.4632426 143.1216482 105.9932629
 105.3976231 147.6757170  93.2747276 104.7045476 147.7501525  92.6187312
 105.1527983 146.9117514  93.7968793 114.0689888 139.2352771 100.6786767
 114.3491641 138.5675961 101.3047193 114.8540495 139.4281867 100.1661431
 115.9613125 144.7425989 104.6117743 115.3663058 145.0231001 103.9164231
 115.6762822 145.2319890 105.3834484 112.2570155 149.7472578  89.5827846
 113.2029259 149.6178786  89.6516264 111.8784400 149.0087240  90.0597274
 118.2292039 141.4128584  99.5454737 118.0316860 141.1043672 100.4298069
 118.8391745 142.1390223  99.6752667 110.4413072 147.6722554  89.5182731
 109.5344527 147.3755667  89.5945444 110.7189053 147.3752373  88.6517017
 101.3591012 148.9928918  99.9681777 101.0393796 148.1394226  99.6756151
 100.8124440 149.2077496 100.7239745 105.1370920 151.7091359 103.6851284
 105.3556929 152.6408467 103.7039318 105.5496693 151.3499333 104.4706088
 112.0575137 142.2159444  95.6726972 111.2475866 141.8706529  96.0482218
 112.7459554 141.9066988  96.2614584 113.9865686 141.2937491  97.2951269
 114.5396724 141.7132944  97.9541292 114.2235772 140.3673239  97.3374225
 109.2111856 144.5309490  89.6594710 110.0731020 144.8564388  89.9190527
 109.3962201 143.7440986  89.1467776 101.2279272 152.6131829 101.9374899
 100.5342744 152.1985782 101.4244853 101.9752263 152.6552366 101.3408318
 117.3644493 143.4038016  96.8029933 116.7843162 144.0622820  96.4207985
 117.0980426 142.5815361  96.3917351 115.8148059 142.8043074  99.0051253
 116.3147838 142.9159608  98.1965572 116.4583667 142.5004127  99.6452062
 103.1416015 152.5450083  99.8140914 103.1186703 152.6437770  98.8622797
 103.4516651 153.3915234 100.1358080 105.8003393 154.6026238 103.9287528
 106.7546646 154.5710181 103.8617460 105.6015916 154.1416862 104.7437754
 116.1469371 145.5638107  95.8586281 115.2595226 145.8487757  95.6406476
 116.5623360 145.4031870  95.0113558 119.4983907 145.5884628  99.5740621
 120.2744297 146.0781080  99.8465237 118.7732041 146.0142682 100.0312490
 101.6437689 147.5065488 107.1950523 102.2896552 146.9964442 107.6837748
 101.4354840 148.2434170 107.7693948 110.1641299 141.7705533  92.9474419
 110.1519969 142.7147373  93.1042690 111.0564721 141.5875678  92.6533880
 113.9793419 138.3648309  97.2020356 113.2125815 137.8106796  97.3477038
 114.3904124 138.4370178  98.0634507  28.2739768   5.3269825  88.8233245
  28.9118178   5.2076572  88.1196585  28.1560611   6.2750669  88.8821197
  25.0829474   5.2797253  88.7594769  24.7447985   5.1638318  87.8715304
  25.9519242   4.8788418  88.7395776  25.5649257   6.4332105  94.7180975
  25.5537898   6.0384903  93.8461479  25.7269896   5.6998177  95.3114746
  26.5215848  10.8003697  80.0606125  25.8703828  11.3857778  79.6740139
  27.3160211  11.3309892  80.1201163  22.2856518   9.2169217  93.6660159
  21.9946384  10.1214848  93.5506825  22.9213502   9.2585744  94.3804228
  27.8281036   3.0521279  85.8986453  28.6144125   2.6340702  85.5476870
  28.0919740   3.9567371  86.0668101  27.9991114   8.4894129  80.5975110
  27.3636946   8.5628756  81.3096014  27.6688520   9.0787728  79.9194189
  33.2289463   2.9896512  86.8019431  33.9614635   2.4195729  87.0357261
  32.4728819   2.6018113  87.2425937  27.2446403   8.9030632  90.6609953
  26.9447126   9.8055671  90.5525760  26.8997463   8.6362815  91.5131105
  22.2267183  15.6674953  83.6280920  22.1491213  16.6182778  83.7069401
  21.6228827  15.3220825  84.2855847  30.1645357   3.3692784  80.8071123
  31.0763213   3.6020171  80.6318821  29.6555004   3.9529828  80.2446202
  28.4486125   7.7917412  94.4432416  28.8569481   7.3499822  93.6987048
  27.7263386   7.2170039  94.6966609  28.7714939   8.3518602  88.1984705
  28.1423802   8.5164317  87.4960772  28.3840601   8.7660212  88.9695669
  32.6504171   9.2873040  85.5529068  31.9655209   9.6671942  85.0026102
  32.7348021   9.8968367  86.2861016  29.9055103   6.9332999  92.1524412
  30.1171998   7.5764759  91.4758793  29.8584851   6.0995316  91.6846342
  24.3242901   8.0893010  85.4634790  24.7881247   8.3680713  84.6739412
  24.0599699   7.1876455  85.2807880  21.2166982   7.6364492  88.4014553
  21.7868339   8.0651760  87.7632037  21.8075094   7.3547077  89.0998739
  31.0200931   9.8104955  90.3246769  31.8418375   9.4085142  90.0429451
  31.0163334   9.7073189  91.2762885  24.7857534   9.3588998  92.4807480
  24.8501967   9.8209405  93.3165652  24.0768458   8.7286363  92.6089790
  39.1106924   6.1543703  86.6731741  38.3570632   5.5851101  86.5175745
  39.2454465   6.1206368  87.6202375  24.5005552  11.0257105  82.3486460
  24.3651227  11.8708641  82.7771308  25.0415364  11.2276383  81.5852394
  19.7629834  11.6598300  85.0037138  19.9396462  12.5816264  84.8158122
  20.5586667  11.3456719  85.4331518  26.1274028  11.6480672  96.4786802
  25.6837882  10.8617051  96.1607707  26.7891242  11.8359822  95.8130693
  20.8861149  13.1776474  91.0047481  21.4368575  13.0493537  90.2324475
  20.0472625  13.4771363  90.6542373  28.2255266  11.9283472  94.5068203
  28.2073742  12.7492353  94.0148473  29.1475186  11.8037547  94.7318345
  24.6828320   9.4427601  95.3491712  25.2156657   8.6815890  95.1191020
  24.1542402   9.1501253  96.0915866  27.8148298   4.5396278  79.3857789
  27.2994922   5.3100883  79.6246176  27.5425607   3.8661415  80.0090850
  32.7882572   7.2928633  81.3210962  32.0112015   6.9539793  80.8766124
  33.4674053   7.2981256  80.6465927  26.0481033   8.5713594  82.8610524
  25.5202395   7.8366353  82.5483761  25.5468536   9.3488270  82.6150492
  31.0273879   6.7662614  87.9777570  30.3697554   7.4561876  88.0657699
  31.8314278   7.1559046  88.3211556  29.8379338   5.1206987  86.0281512
  30.3511220   5.7536979  86.5303222  30.4880562   4.5208183  85.6624872
  24.1933633   6.3893804  75.8645497  23.2860695   6.1583058  76.0636646
  24.6904665   5.5931423  76.0519478  27.1001712  15.0991311  78.7842183
  26.4263411  15.4023008  79.3927141  27.4867534  15.9020392  78.4347640
  27.0995217   3.9947858  83.4042533  27.8467036   4.5069256  83.0949655
  27.3686806   3.6731911  84.2646926  25.3721867   6.4906399  80.3869487
  24.4633086   6.2065432  80.4841957  25.4016951   6.9105478  79.5272794
  30.6041134  10.1012989  84.1560654  30.1503461   9.2603898  84.2125845
  29.9735101  10.7374387  84.4935435  29.0474073  11.9389485  85.0910473
  29.3397048  12.4994542  84.3722838  29.5572694  12.2318046  85.8463632
  25.0697955   8.0315143  77.7257565  24.6317385   7.3151002  77.2663203
  25.8108395   8.2591258  77.1642657  24.0107699  12.7169836  86.1803926
  23.9683877  12.9430683  85.2512458  24.9270398  12.4833211  86.3289727
  27.4573332   3.1853904  93.0784555  27.8122720   3.4125377  93.9379021
  28.1045464   3.5172281  92.4561810  33.1871069   6.3072340  83.7833884
  33.0488968   6.4973936  82.8555073  32.8307288   7.0691723  84.2401935
  33.2140449   8.3748867  88.7945156  33.6476956   8.2824156  89.6428210
  33.9272030   8.3506367  88.1565172  22.1273499   9.5932865  85.9765889
  22.9214098   9.0983185  85.7748463  21.4165192   9.0650728  85.6133594
  26.9468344  11.9750961  90.3278256  27.0005366  12.5441897  91.0955972
  26.0783125  12.1452846  89.9632293  34.0755999   8.4172567  91.3278041
  34.2691889   9.3218378  91.5737316  33.9756617   7.9579986  92.1616626
  29.1371107   8.5679310  96.9018922  28.9856614   8.3389862  95.9849005
  29.1275787   9.5249912  96.9150267  25.9056444   6.1411223  91.8865188
  26.8348504   6.2922382  91.7134155  25.4847474   6.2295244  91.0313834
  24.7044775  10.1661887  89.6563726  24.5655861   9.7980672  90.5289664
  23.9159372  10.6809527  89.4847683  25.2992927  15.2670984  80.9989262
  25.4744683  14.7959027  81.8134885  24.6125715  15.8936750  81.2270523
  26.2549991   9.5443490  87.0452563  25.9199823   9.5044260  87.9410213
  25.7553936   8.8788206  86.5722974  29.1909182   6.8899524  77.3189623
  28.5738353   6.1646352  77.2222676  28.7225671   7.6508885  76.9756697
  30.8463314  11.5998433  94.9795403  30.7875860  10.9157653  94.3125986
  31.2482832  12.3417423  94.5276029  19.8654013  18.4160347  87.7729122
  20.1050611  19.0478871  88.4508141  19.0223209  18.0648387  88.0594482
  30.8480721   9.5638017  93.2109383  29.9607500   9.2263938  93.3335782
  31.4179272   8.8321048  93.4478148  24.3781875  14.2239469  90.1770626
  24.3052046  15.0294440  90.6889931  23.9359268  14.4231435  89.3518648
  24.1671654  13.4611239  83.6873448  23.3839176  14.0032919  83.7811672
  24.8664399  13.9785219  84.0867689  35.3298062   4.9746234  87.9725945
  35.3187938   5.8570949  87.6019878  34.4615441   4.6217785  87.7780482
  26.8380558  14.1226303  92.3328785  27.5508530  14.7573768  92.2604686
  26.3470587  14.2190169  91.5168787  28.5598085   8.0277556  83.9046077
  27.6254364   8.1479018  83.7350781  28.7374753   7.1250022  83.6406086
  31.9470636   3.8694875  84.4396111  32.4131089   4.7022867  84.3656413
  32.3978137   3.4039857  85.1441369  21.8892472  11.8720746  93.1534356
  22.5901931  12.5057229  93.3063750  21.4187587  12.2135478  92.3929995
  30.0146867  10.2138696  81.4382263  30.2906711  10.0995291  82.3476137
  29.1451366   9.8156181  81.3994436  29.6893758   4.4265354  90.9786906
  29.0365208   4.6741261  90.3239359  30.0674137   3.6129492  90.6449383
  26.6500931  14.4625047  85.0815076  26.8323326  13.6446703  85.5442829
  27.4733917  14.6792739  84.6439966  26.9843097  13.3893232  82.3430125
  27.5130863  12.8785687  81.7300287  27.2471317  13.0735762  83.2075658
  25.7381331   5.1685165  97.4652943  25.0621968   5.0679294  98.1355318
  26.5608964   5.0124379  97.9288940  17.4860190  11.4057102  90.0865458
  18.0713626  10.6600789  90.2193363  17.2885028  11.7161058  90.9702122
  20.3398845  14.4408349  85.1027901  19.6709220  14.9254477  84.6191941
  20.2011715  14.6877569  86.0171279  24.4804113  16.4752092  91.7010559
  25.0322421  16.6383714  92.4659644  24.8210307  17.0656530  91.0290584
  29.3314988  11.3013350  97.5559214  29.8754892  11.9143308  97.0614168
  28.7501833  11.8592928  98.0726227  27.6172501  14.4234068  88.6874241
  27.4923640  13.6223808  88.1785187  28.2751592  14.9180261  88.1988211
  29.6807409  12.2243088  90.3153791  28.7337745  12.1048439  90.2432118
  30.0290182  11.3365586  90.3980053  26.6853842  12.0195804  86.5158144
  26.5378805  11.0912512  86.6965714  27.5107336  12.0415895  86.0315219
  30.2887964  12.8424363  87.6023016  31.2134512  12.6367224  87.4647468
  30.1203268  12.5940764  88.5112358  30.0783280  13.3610030  82.9585108
  30.2520158  12.7956453  82.2058960  30.5712172  14.1610925  82.7764598
  35.9322672   6.1246453  84.5775408  36.3753818   5.3753779  84.1794531
  35.0549182   6.1156590  84.1949140  31.0658453  12.6776795  80.0582006
  31.7609358  13.2983488  80.2769321  31.4081603  11.8272146  80.3334384
  32.9649876  10.1276500  81.5869337  33.4901200  10.4663773  80.8618657
  32.8772229   9.1923516  81.4032472  24.6269925  14.0410574  93.7159214
  24.9357051  13.7959721  94.5881913  25.4245407  14.2457212  93.2278084
  24.6490537  16.1948484  85.9464590  24.2095527  15.7024862  86.6397447
  25.3998654  15.6521451  85.7056665  17.1282876  12.3860024  85.9489218
  17.9540896  12.0863796  85.5687862  16.7776928  11.6167647  86.3979007
  22.0964409  11.7386493  88.0186892  21.4744418  11.0757198  87.7189120
  22.7669276  11.7647625  87.3360540  32.6543782  10.7609404  96.8920535
  31.8639326  10.7433543  96.3525034  32.4177137  11.2997698  97.6469571
  32.7741657   7.6101870  94.2053263  32.8239662   7.4451878  95.1468786
  32.6655581   6.7429129  93.8151144  21.6577916  10.2890416  81.4945352
  21.8066036  10.9725880  80.8412025  22.4644359  10.2695506  82.0094808
  30.0645420   3.5932798  95.5212570  30.9655282   3.4539263  95.2296568
  30.1393394   3.7587253  96.4610748  34.2759854  10.0298812  94.4495285
  33.9844662  10.3928792  95.2858746  33.6631985   9.3165820  94.2708617
  35.4755536   7.5951692  86.9697855  36.3102428   8.0341496  87.1335416
  35.6114665   7.1190345  86.1506101  32.5247042   5.1531427  92.9175343
  33.0001164   5.3459073  92.1094194  31.6012608   5.2090612  92.6718727
  25.1573321  12.7838547  78.9657100  24.5847289  13.4028734  78.5127572
  25.7306115  13.3337908  79.4997022  31.2248711   2.0297187  91.1503649
  32.1766134   2.1295284  91.1715873  31.0552162   1.2375455  91.6601733
  28.3770581  13.0675697  80.0965682  29.3101254  13.0021258  80.2998558
  28.2893794  13.9031963  79.6380215  31.0058598  12.3841567  77.0569630
  30.9272229  12.0501431  77.9505387  31.8268265  12.8763335  77.0561102
  33.7036789   5.2503306  90.2645948  33.6713109   4.3119307  90.4505632
  34.3137413   5.3287343  89.5311773  33.8531278   2.0414350  90.3104231
  33.3370326   1.2572806  90.1234160  34.7371226   1.7133066  90.4750751
  39.5213339   6.3119313  89.4051985  40.2516727   6.0504601  89.9659688
  38.9120284   5.5748035  89.4454053  37.6028636   4.4527176  90.0026436
  36.8761800   4.3183141  89.3942928  37.1875923   4.7604004  90.8083154
  25.4258812   8.1717105  97.7673809  26.3461822   8.3495704  97.9613856
  25.3908395   7.2273151  97.6153508  32.7833872  -0.0388591  86.2985927
  33.5594262   0.4507861  86.5710544  32.0582006   0.3869463  86.7557797
  35.2206431   0.6739028  87.3559868  35.8150922   0.4334764  86.6453176
  35.2933015  -0.0453842  87.9833404  17.4403587  14.5172639  87.6703033
  17.3058055  13.7573040  87.1041031  17.0235649  15.2413539  87.2031821
  28.5762550   9.7009562  76.6779608  29.2798400   9.9059565  77.2937264
  27.8525198  10.2686324  76.9428691  29.4060360   5.4519424  82.7981878
  29.3495561   5.9087975  81.9589510  29.9588702   4.6910108  82.6204721
  33.2165166   1.2409156  83.6231998  32.9602100   0.8405791  84.4540205
  32.5918034   1.9552949  83.4982137  37.5277504   3.9805229  86.1303289
  36.9677062   4.0498418  86.9034851  36.9221007   3.8046213  85.4102785
  20.5972713  15.4141956  87.8821475  20.4805097  16.3587388  87.7800166
  19.7765159  15.1115517  88.2707274  30.4849247  10.1392092  78.7278068
  31.3194851   9.7073290  78.5455543  30.3233590   9.9674105  79.6554962
  30.1395139   6.6424205  80.0934407  30.0843943   6.4768476  79.1522851
  29.5141195   7.3500238  80.2496597  27.4541046   8.9473117  99.4187970
  28.3232206   9.1213769  99.0574605  26.9747798   9.7667534  99.2963699
  21.6227227  16.0670218  91.0977404  22.5254473  16.0993828  91.4143899
  21.3964597  15.1370669  91.1123739  23.3780829  14.8201204  87.7587482
  22.4276460  14.8203066  87.6451855  23.6813315  14.0733939  87.2423517
  39.1133522  20.6561743  88.8233245  39.7511932  20.5368490  88.1196585
  38.9954365  21.6042587  88.8821197  35.9223228  20.6089171  88.7594769
  35.5841740  20.4930236  87.8715304  36.7912997  20.2080336  88.7395776
  31.7810044  22.4624647  84.7491660  31.2174909  22.3714584  83.9807948
  31.6662439  21.6424552  85.2294153  36.4043011  21.7624023  94.7180975
  36.3931652  21.3676821  93.8461479  36.5663651  21.0290095  95.3114746
  29.3274476  23.9575839  87.5875881  30.1195768  23.6166663  87.1722180
  29.5671126  24.0670814  88.5078034  37.3609603  26.1295615  80.0606125
  36.7097583  26.7149695  79.6740139  38.1553966  26.6601810  80.1201163
  31.2865230  23.2184752  80.4593260  32.0596106  22.6713739  80.3206135
  31.6390629  24.0829001  80.6707721  33.1250273  24.5461134  93.6660159
  32.8340139  25.4506765  93.5506825  33.7607257  24.5877662  94.3804228
  34.0506479  21.9237983  90.2561519  34.6470052  21.6994005  89.5418481
  34.1081451  21.1822728  90.8586966  33.6231508  19.3777418  78.0911710
  33.8757029  18.8558939  77.3295173  32.6856067  19.2143564  78.1938393
  38.6674791  18.3813197  85.8986453  39.4537880  17.9632620  85.5476870
  38.9313495  19.2859289  86.0668101  38.8384868  23.8186047  80.5975110
  38.2030701  23.8920673  81.3096014  38.5082274  24.4079646  79.9194189
  44.0683218  18.3188430  86.8019431  44.8008390  17.7487647  87.0357261
  43.3122573  17.9310030  87.2425937  33.3427797  21.2805524  80.2936084
  33.2264055  20.6050428  80.9617169  33.4530056  20.7937898  79.4768238
  35.6859337  20.7415671  83.9982774  35.3217545  20.2146292  84.7095695
  36.5426453  20.3514140  83.8249259  41.5908638  12.0310004  91.2614040
  41.2591963  12.9005415  91.0375255  40.9954252  11.7146288  91.9408070
  35.3264824  15.7705571  78.9944122  35.4939227  16.6385807  79.3614593
  35.1361994  15.9332853  78.0705411  38.0840158  24.2322550  90.6609953
  37.7840881  25.1347589  90.5525760  37.7391217  23.9654733  91.5131105
  31.5352639  20.6836347  86.6946657  30.6103136  20.5512561  86.9024349
  31.7837052  21.4630566  87.1916599  41.4837301  16.7505090  88.3407390
  40.5754179  16.6820498  88.0466151  41.4324897  17.2277035  89.1689215
  35.3054045  18.2263228  79.9790789  35.1853671  18.6720279  80.8176269
  34.6106634  18.5748546  79.4204327  28.8961450  20.3269620  87.5290446
  29.0253831  20.5804099  88.4429858  28.2158901  20.9197328  87.2095101
  33.0660937  30.9966870  83.6280920  32.9884967  31.9474695  83.7069401
  32.4622581  30.6512743  84.2855847  35.5578167  18.1694736  96.2842287
  34.7811501  18.7288656  96.2745152  36.1968730  18.6551519  96.8057157
  43.3498948  14.9521528  90.1185264  42.7073328  15.2454062  89.4725058
  42.8453876  14.8374449  90.9238460  33.8124540  20.9780189  95.8460254
  34.5539224  21.5165233  95.5695078  33.1061525  21.6046478  96.0031806
  39.2879879  23.1209329  94.4432416  39.6963235  22.6791740  93.6987048
  38.5657141  22.5461957  94.6966609  35.6410949  18.0581936  91.8165973
  36.4872144  18.4821350  91.9600622  35.5809587  17.4015561  92.5104536
  39.6108694  23.6810520  88.1984705  38.9817556  23.8456234  87.4960772
  39.2234356  24.0952130  88.9695669  43.4897926  24.6164958  85.5529068
  42.8048964  24.9963859  85.0026102  43.5741775  25.2260285  86.2861016
  38.7910395  15.7186305  93.4747146  38.5471326  16.4728365  92.9381422
  39.0670325  16.0971652  94.3094393  40.7448857  22.2624917  92.1524412
  40.9565753  22.9056677  91.4758793  40.6978606  21.4287234  91.6846342
  38.3475086  14.8742738  89.0560984  37.4859565  15.1723991  89.3477722
  38.3737521  15.0913136  88.1242017  35.1636656  23.4184928  85.4634790
  35.6275001  23.6972631  84.6739412  34.8993454  22.5168373  85.2807880
  32.0560737  22.9656410  88.4014553  32.6262094  23.3943678  87.7632037
  32.6468849  22.6838994  89.0998739  34.1005542  19.5408081  82.2724355
  34.8029585  19.9929124  82.7398281  33.7686170  18.8991899  82.9004248
  32.5485903  18.1319837  96.6475564  31.9184564  18.8136118  96.8810961
  32.4421991  18.0202919  95.7028702  27.8430876  17.7991633  87.5741488
  27.0529930  18.0549162  87.0981599  28.3342123  18.6139971  87.6793529
  41.8594685  25.1396872  90.3246769  42.6812129  24.7377060  90.0429451
  41.8557088  25.0365107  91.2762885  29.7945621  18.1636212  84.5324965
  28.9976784  18.2754907  85.0508461  29.5671213  18.5022865  83.6665856
  35.6251289  24.6880916  92.4807480  35.6895721  25.1501323  93.3165652
  34.9162213  24.0578281  92.6089790  26.1268579  18.0522124  90.0056479
  26.3776617  18.9369134  90.2714055  26.6628127  17.8726725  89.2331571
  35.3399306  26.3549023  82.3486460  35.2044981  27.2000559  82.7771308
  35.8809119  26.5568301  81.5852394  31.8266646  12.4340603  99.0100815
  31.4333592  11.8806802  99.6848459  32.6432786  12.7451181  99.4007333
  28.7928704  23.8724461  82.9214385  29.3053224  24.6667711  83.0719950
  29.4451417  23.1750752  82.8547987  30.6023588  26.9890217  85.0037138
  30.7790217  27.9108182  84.8158122  31.3980422  26.6748637  85.4331518
  34.7434607  13.8498482  96.6021072  35.4844320  14.4505635  96.5225534
  34.9752530  13.1076120  96.0439114  29.8875945  19.0354849  94.8799301
  29.7729460  18.1340107  95.1806400  29.0320463  19.2818546  94.5284118
  36.9667783  26.9772590  96.4786802  36.5231637  26.1908968  96.1607707
  37.6284996  27.1651740  95.8130693  31.7254904  28.5068391  91.0047481
  32.2762329  28.3785455  90.2324475  30.8866380  28.8063280  90.6542373
  39.0649021  27.2575390  94.5068203  39.0467496  28.0784271  94.0148473
  39.9868941  27.1329465  94.7318345  35.5222075  24.7719519  95.3491712
  36.0550412  24.0107807  95.1191020  34.9936156  24.4793171  96.0915866
  38.6891770   9.8779585  90.8785353  38.3456039  10.7681227  90.8024464
  39.0570733   9.6881243  90.0154938  26.7577621  22.2013115  83.6973956
  27.5952843  22.6110124  83.4807663  26.9355888  21.2612558  83.6674150
  38.6542053  19.8688196  79.3857789  38.1388676  20.6392801  79.6246176
  38.3819361  19.1953332  80.0090850  36.2389164  14.7137897  84.4443027
  35.3830760  14.3244747  84.2648666  36.6516115  14.7929858  83.5842812
  37.7688310  12.2484240  88.8434587  37.2653106  12.2114375  88.0302392
  38.0618917  13.1576983  88.9031243  34.0131196  12.3322970  87.8500768
  34.8784193  12.1365779  87.4906658  34.0808705  12.1033322  88.7770125
  38.4428356  17.7415288  81.2117570  38.1378491  18.0561437  82.0627713
  39.3958798  17.8196708  81.2544903  36.8874788  23.9005512  82.8610524
  36.3596149  23.1658271  82.5483761  36.3862290  24.6780188  82.6150492
  41.8667634  22.0954532  87.9777570  41.2091308  22.7853793  88.0657699
  42.6708033  22.4850964  88.3211556  31.6193515  14.5625178  85.2217135
  32.1937267  14.3400359  84.4890328  32.2064498  14.6313872  85.9745737
  40.6773093  20.4498905  86.0281512  41.1904974  21.0828897  86.5303222
  41.3274316  19.8500100  85.6624872  31.9463102  16.5929639  79.2413021
  31.1100415  16.9304325  79.5622295  31.8067872  16.4578619  78.3040158
  33.9216183  11.4366427  83.9492205  33.2680595  11.1215444  83.3248819
  33.8796657  10.8142167  84.6752028  35.0327388  21.7185722  75.8645497
  34.1254450  21.4874975  76.0636646  35.5298420  20.9223341  76.0519478
  37.9395467  30.4283229  78.7842183  37.2657166  30.7314926  79.3927141
  38.3261289  31.2312309  78.4347640  37.1553923  17.9248360  88.2739852
  36.2376485  18.1463307  88.1161540  37.5714067  17.9994671  87.4151560
  37.9388971  19.3239776  83.4042533  38.6860790  19.8361173  83.0949655
  38.2080561  19.0023829  84.2646926  36.2115621  21.8198317  80.3869487
  35.3026841  21.5357350  80.4841957  36.2410705  22.2397395  79.5272794
  41.4434889  25.4304906  84.1560654  40.9897216  24.5895816  84.2125845
  40.8128855  26.0666305  84.4935435  40.3867808  16.3596892  85.3861322
  39.6490565  15.8474278  85.7171564  40.6394582  15.9197274  84.5744599
  39.8867828  27.2681403  85.0910473  40.1790802  27.8286460  84.3722838
  40.3966449  27.5609964  85.8463632  40.4879436   9.1373144  85.9803091
  40.7938312   8.2770508  85.6929006  41.2132040   9.7290764  85.7802085
  26.7803792  19.5403831  84.3684689  26.5828191  18.9473192  83.6435756
  26.2250456  19.2356041  85.0860628  34.7600515  19.4326937  86.4879282
  34.8149125  18.4800774  86.4121759  33.9491717  19.5886376  86.9720581
  35.9091709  23.3607060  77.7257565  35.4711139  22.6442919  77.2663203
  36.6502150  23.5883175  77.1642657  32.6992875  18.0503997  84.2469661
  31.8860741  18.3498168  84.6534853  33.1951869  17.6559686  84.9644143
  34.8501453  28.0461754  86.1803926  34.8077632  28.2722600  85.2512458
  35.7664152  27.8125129  86.3289727  38.2967087  18.5145822  93.0784555
  38.6516475  18.7417295  93.9379021  38.9439218  18.8464198  92.4561810
  32.1906950  15.6222353  89.8630896  32.8306329  15.4811112  89.1653859
  31.3584481  15.3356866  89.4869498  44.0534203  23.7040784  88.7945156
  44.4870710  23.6116074  89.6428210  44.7665784  23.6798285  88.1565172
  32.9667254  24.9224783  85.9765889  33.7607852  24.4275103  85.7748463
  32.2558946  24.3942646  85.6133594  37.7862098  27.3042879  90.3278256
  37.8399121  27.8733815  91.0955972  36.9176880  27.4744764  89.9632293
  29.2750017  19.0667865  82.0525641  28.3447605  19.0052320  82.2695603
  29.3707489  18.5443817  81.2562282  29.1935566  15.5922678  84.6403883
  29.4542384  16.5068011  84.5313043  30.0152739  15.1247120  84.7900496
  30.6660492  17.0060435  91.8102707  31.3383545  16.7977797  91.1615356
  29.8390278  16.8082521  91.3707940  44.9149753  23.7464485  91.3278041
  45.1085643  24.6510296  91.5737316  44.8150371  23.2871904  92.1616626
  36.5686064  13.6322376  93.8268368  35.9213979  14.3312325  93.7332845
  37.3387079  14.0658520  94.1944616  39.9764862  23.8971228  96.9018922
  39.8250368  23.6681780  95.9849005  39.9669541  24.8541829  96.9150267
  36.7450198  21.4703141  91.8865188  37.6742258  21.6214300  91.7134155
  36.3241228  21.5587161  91.0313834  35.5438530  25.4953805  89.6563726
  35.4049616  25.1272589  90.5289664  34.7553126  26.0101444  89.4847683
  36.1386682  30.5962901  80.9989262  36.3138438  30.1250945  81.8134885
  35.4519470  31.2228668  81.2270523  37.0943745  24.8735408  87.0452563
  36.7593578  24.8336178  87.9410213  36.5947691  24.2080124  86.5722974
  31.0687989  20.2803038  92.5705145  30.9307787  19.5483277  93.1716684
  31.9792912  20.1911938  92.2889332  40.0302937  22.2191442  77.3189623
  39.4132107  21.4938270  77.2222676  39.5619425  22.9800802  76.9756697
  33.6970290  19.9922997  92.0588824  34.4069908  19.3516189  92.0175443
  33.6539598  20.2435892  92.9815005  41.6857068  26.9290350  94.9795403
  41.6269615  26.2449570  94.3125986  42.0876587  27.6709340  94.5276029
  32.4099224  16.9788215  93.8784464  31.8736581  16.5278953  94.5306060
  31.8215932  17.1134124  93.1354928  30.7047767  33.7452264  87.7729122
  30.9444365  34.3770788  88.4508141  29.8616964  33.3940304  88.0594482
  31.8201483  16.4376866  76.4410927  30.9430949  16.3165667  76.0773174
  32.2959236  15.6462945  76.1889816  41.6874476  24.8929934  93.2109383
  40.8001254  24.5555856  93.3335782  42.2573027  24.1612966  93.4478148
  23.3403623  21.2254026  86.5352434  24.0274663  20.9115756  85.9473450
  23.1851751  22.1295391  86.2619686  28.1438345  16.1144223  90.9637458
  28.0596534  15.5069892  90.2287868  27.3221051  16.6053241  90.9646954
  35.2175629  29.5531387  90.1770626  35.1445801  30.3586358  90.6889931
  34.7753022  29.7523352  89.3518648  35.0065409  28.7903157  83.6873448
  34.2232931  29.3324837  83.7811672  35.7058154  29.3077136  84.0867689
  38.3162059  14.5997786  86.3307653  38.8130758  13.8467748  86.0108723
  37.5449040  14.6362103  85.7650863  37.6774313  29.4518221  92.3328785
  38.3902285  30.0865685  92.2604686  37.1864341  29.5482087  91.5168787
  39.3991839  23.3569473  83.9046077  38.4648118  23.4770936  83.7350781
  39.5768508  22.4541940  83.6406086  34.8997028  16.7415169  86.0579338
  34.5294815  16.1886210  86.7460243  35.3956120  16.1373303  85.5054338
  42.7864391  19.1986793  84.4396111  43.2524843  20.0314784  84.3656413
  43.2371891  18.7331774  85.1441369  32.7286226  27.2012664  93.1534356
  33.4295686  27.8349147  93.3063750  32.2581341  27.5427396  92.3929995
  40.8540622  25.5430614  81.4382263  41.1300466  25.4287209  82.3476137
  39.9845121  25.1448099  81.3994436  40.7581054  11.5667380  88.4787012
  39.8444133  11.7971606  88.6469219  41.1874155  11.6505824  89.3301044
  40.5287512  19.7557272  90.9786906  39.8758962  20.0033179  90.3239359
  40.9067892  18.9421410  90.6449383  37.4894686  29.7916965  85.0815076
  37.6717080  28.9738621  85.5442829  38.3127672  30.0084657  84.6439966
  37.8236851  28.7185150  82.3430125  38.3524618  28.2077604  81.7300287
  38.0865071  28.4027680  83.2075658  36.5775085  20.4977083  97.4652943
  35.9015722  20.3971212  98.1355318  37.4002719  20.3416296  97.9288940
  28.3253944  26.7349019  90.0865458  28.9107381  25.9892707  90.2193363
  28.1278783  27.0452976  90.9702122  31.1792599  29.7700267  85.1027901
  30.5102975  30.2546394  84.6191941  31.0405469  30.0169487  86.0171279
  22.9171599  19.3054619  88.8069902  22.9555698  18.7718210  89.6007020
  22.4111892  18.7789825  88.1880879  35.3197868  31.8044010  91.7010559
  35.8716176  31.9675632  92.4659644  35.6604061  32.3948448  91.0290584
  30.2962361  14.1519160  92.3032444  30.3603688  15.0133991  91.8909842
  30.2329481  13.5393162  91.5704802  29.7714634  16.2242292  95.9505478
  30.3986673  15.8419370  96.5643002  28.9142553  16.0056494  96.3161171
  40.1708742  26.6305268  97.5559214  40.7148646  27.2435226  97.0614168
  39.5895587  27.1884846  98.0726227  26.5480176  18.0318722  81.8823833
  26.8433618  17.1229400  81.8290887  25.6468212  18.0106461  81.5604835
  38.4566255  29.7525986  88.6874241  38.3317395  28.9515725  88.1785187
  39.1145346  30.2472179  88.1988211  30.0774423  16.1074718  87.8651382
  29.3561009  16.7210686  87.7258855  30.8667679  16.6432483  87.7868028
  40.5201164  27.5535006  90.3153791  39.5731499  27.4340357  90.2432118
  40.8683937  26.6657504  90.3980053  32.8800737  13.4429145  94.1392033
  33.4035139  13.6891441  94.9018343  32.6613070  14.2749179  93.7195171
  28.2768018  15.7132819  82.0063158  27.9480724  14.8330198  81.8238264
  28.6307389  15.6580488  82.8939547  37.5247597  27.3487722  86.5158144
  37.3772559  26.4204429  86.6965714  38.3501090  27.3707813  86.0315219
  31.3909841  16.0005789  82.3738636  31.7305914  16.5291710  81.6517244
  31.8381962  16.3386195  83.1497202  41.1281719  28.1716281  87.6023016
  42.0528266  27.9659142  87.4647468  40.9597022  27.9232682  88.5112358
  34.0853282  14.3842840  91.8241704  33.7450102  13.5850653  92.2262384
  33.3792288  14.6844551  91.2518537  34.7369754  11.4692152  90.2769027
  35.5595823  10.9952630  90.1547917  34.9807817  12.2482636  90.7767713
  33.3777988  14.4980411  80.5731929  34.0986351  14.8761663  80.0695645
  32.7543292  15.2169287  80.6766907  37.5209111  15.2025560  81.5090261
  37.7372726  16.0850197  81.2079089  37.0403178  14.8111773  80.7795903
  32.2608333  18.1611273  88.0861005  32.1152913  18.4751576  88.9785287
  31.7833536  18.7796173  87.5331904  34.1204715  15.1513821  88.1341895
  34.1066284  14.2554914  87.7974193  34.8377144  15.1584485  88.7680181
  35.9730846  15.5851161  90.1795022  35.7148624  16.5068232  90.1779353
  35.4415887  15.1881596  90.8695487  40.9177035  28.6901948  82.9585108
  41.0913913  28.1248371  82.2058960  41.4105926  29.4902843  82.7764598
  26.7353995  20.7016617  91.0248667  26.1907463  21.4776425  91.1568941
  27.6133345  21.0487422  90.8667788  33.5241611  14.0328201  83.4029465
  33.6457523  13.1044847  83.6020353  33.2343654  14.0466887  82.4907781
  36.3932802  11.7183111  86.5396185  36.4154499  11.7822445  85.5848165
  36.8100861  10.8787620  86.7336691  41.9052207  28.0068713  80.0582006
  42.6003112  28.6275405  80.2769321  42.2475358  27.1564064  80.3334384
  27.5220017  19.8286513  93.9178824  26.7801753  19.9769149  94.5043454
  27.2012761  20.0894779  93.0545573  35.4663679  29.3702492  93.7159214
  35.7750806  29.1251638  94.5881913  36.2639161  29.5749130  93.2278084
  35.4884291  31.5240401  85.9464590  35.0489282  31.0316780  86.6397447
  36.2392408  30.9813369  85.7056665  27.9676630  27.7151942  85.9489218
  28.7934650  27.4155714  85.5687862  27.6170682  26.9459565  86.3979007
  32.9358163  27.0678410  88.0186892  32.3138173  26.4049115  87.7189120
  33.6063030  27.0939542  87.3360540  26.1685235  25.6338269  86.9078152
  25.3317144  25.2060443  86.7262153  26.1408881  25.8270712  87.8448943
  33.0082691  15.5460198  97.6119398  33.0570846  16.4222321  97.2297167
  33.5505205  15.0037591  97.0391041  43.4937537  26.0901322  96.8920535
  42.7033080  26.0725461  96.3525034  43.2570891  26.6289615  97.6469571
  43.6135412  22.9393788  94.2053263  43.6633417  22.7743795  95.1468786
  43.5049335  22.0721047  93.8151144  32.4971670  25.6182334  81.4945352
  32.6459791  26.3017798  80.8412025  33.3038114  25.5987424  82.0094808
  40.9039174  18.9224716  95.5212570  41.8049037  18.7831181  95.2296568
  40.9787149  19.0879171  96.4610748  35.2381979  16.2991571  94.3665756
  34.3685289  16.5925137  94.0948345  35.4741460  16.8832016  95.0873020
  45.1153609  25.3590730  94.4495285  44.8238417  25.7220710  95.2858746
  44.5025740  24.6457738  94.2708617  43.3640797  20.4823344  92.9175343
  43.8394918  20.6750991  92.1094194  42.4406362  20.5382530  92.6718727
  30.2524303  21.6447511  82.5006421  30.0070345  20.7409841  82.6986631
  30.4220218  21.6464662  81.5585899  37.9421013  12.5171188  91.8831177
  38.4602957  13.2532215  91.5577665  37.5876146  12.8235181  92.7177936
  29.5219951  17.3775869  79.9992583  28.8289196  17.4520224  79.3432619
  29.2771703  16.6136213  80.5214100  38.1933607   8.9371470  87.4032073
  38.4735361   8.2694659  88.0292500  38.9784214   9.1300566  86.8906737
  35.9967076  28.1130464  78.9657100  35.4241043  28.7320651  78.5127572
  36.5699870  28.6629826  79.4997022  42.0642466  17.3589104  91.1503649
  43.0159889  17.4587202  91.1715873  41.8945916  16.5667373  91.6601733
  40.0856845  14.4444687  91.3363049  39.4906777  14.7249700  90.6409538
  39.8006542  14.9338588  92.1079791  39.2164336  28.3967614  80.0965682
  40.1495009  28.3313176  80.2998558  39.1287549  29.2323881  79.6380215
  41.8452352  27.7133485  77.0569630  41.7665984  27.3793348  77.9505387
  42.6662019  28.2055253  77.0561102  44.5430544  20.5795224  90.2645948
  44.5106864  19.6411225  90.4505632  45.1531167  20.6579261  89.5311773
  36.3813874  19.4491277  76.3073152  37.3272979  19.3197485  76.3761570
  36.0028119  18.7105939  76.7842580  44.6925032  17.3706267  90.3104231
  44.1764081  16.5864724  90.1234160  45.5764981  17.0424984  90.4750751
  42.3535759  11.1147283  86.2700044  42.1560580  10.8062371  87.1543376
  42.9635465  11.8408922  86.3997974  50.3607093  21.6411231  89.4051985
  51.0910482  21.3796519  89.9659688  49.7514039  20.9039953  89.4454053
  48.4422391  19.7819093  90.0026436  47.7155554  19.6475058  89.3942928
  48.0269677  20.0895922  90.8083154  36.2652567  23.5009023  97.7673809
  37.1855576  23.6787622  97.9613856  36.2302150  22.5565068  97.6153508
  34.5656792  17.3741253  76.2428037  33.6588247  17.0774366  76.3190751
  34.8432773  17.0771071  75.3762324  25.4834732  18.6947617  86.6927084
  25.1637516  17.8412925  86.4001458  24.9368160  18.9096195  87.4485051
  29.2614639  21.4110058  90.4096590  29.4800649  22.3427166  90.4284624
  29.6740413  21.0518032  91.1951394  36.1818857  11.9178143  82.3972279
  35.3719586  11.5725228  82.7727525  36.8703274  11.6085687  82.9859890
  38.1109406  10.9956190  84.0196575  38.6640444  11.4151643  84.6786598
  38.3479492  10.0691938  84.0619531  34.1342505  16.9843263  99.7999339
  34.0339232  17.9337620  99.7311430  33.9164047  16.6561502  98.9275409
  33.3355576  14.2328189  76.3840017  34.1974740  14.5583087  76.6435834
  33.5205920  13.4459684  75.8713082  25.3522992  22.3150528  88.6620205
  24.6586463  21.9004481  88.1490160  26.0995983  22.3571065  88.0653624
  41.4888213  13.1056715  83.5275240  40.9086882  13.7641519  83.1453292
  41.2224145  12.2834060  83.1162657  39.9391779  12.5061773  85.7296560
  40.4391557  12.6178307  84.9210879  40.5827387  12.2022826  86.3697368
  33.9973775  20.4140402  98.6164401  33.5140857  21.2140762  98.8228290
  34.0834714  20.4248347  97.6631845  27.2659734  22.2468782  86.5386220
  27.2430423  22.3456469  85.5868103  27.5760371  23.0933933  86.8603386
  29.9247112  24.3044937  90.6532835  30.8790366  24.2728879  90.5862766
  29.7259636  23.8435561  91.4683061  30.5146494  22.8746053  93.2203632
  31.3339383  23.3690132  93.2438470  30.7883302  21.9578021  93.1921200
  40.2713091  15.2656805  82.5831588  39.3838946  15.5506456  82.3651783
  40.6867080  15.1050569  81.7358865  43.6227627  15.2903326  86.2985927
  44.3988017  15.7799779  86.5710544  42.8975761  15.7161381  86.7557797
  46.0600185  16.0030946  87.3559868  46.6544676  15.7626682  86.6453176
  46.1326769  15.2838076  87.9833404  28.2797341  29.8464557  87.6703033
  28.1451809  29.0864957  87.1041031  27.8629403  30.5705456  87.2031821
  39.4156304  25.0301480  76.6779608  40.1192154  25.2351483  77.2937264
  38.6918953  25.5978242  76.9428691  40.2454114  20.7811341  82.7981878
  40.1889316  21.2379893  81.9589510  40.7982457  20.0202026  82.6204721
  44.0558920  16.5701073  83.6231998  43.7995855  16.1697709  84.4540205
  43.4311788  17.2844867  83.4982137  31.4366467  30.7433874  87.8821475
  31.3198851  31.6879306  87.7800166  30.6158913  30.4407435  88.2707274
  41.3243002  25.4684009  78.7278068  42.1588605  25.0365208  78.5455543
  41.1627344  25.2966023  79.6554962  40.9788894  21.9716123  80.0934407
  40.9237698  21.8060394  79.1522851  40.3534949  22.6792155  80.2496597
  25.7681409  17.2084187  93.9195829  26.4140272  16.6983141  94.4083055
  25.5598560  17.9452869  94.4939255  38.2934801  24.2765034  99.4187970
  39.1625961  24.4505687  99.0574605  37.8141552  25.0959451  99.2963699
  34.2885019  11.4724232  79.6719726  34.2763689  12.4166072  79.8287997
  35.1808441  11.2894377  79.3779187  32.4620981  31.3962135  91.0977404
  33.3648228  31.4285746  91.4143899  32.2358351  30.4662586  91.1123739
  34.2174583  30.1493122  87.7587482  33.2670214  30.1494984  87.6451855
  34.5207069  29.4025857  87.2423517  38.1037139   8.0667008  83.9265662
  37.3369534   7.5125495  84.0722345  38.5147844   8.1388877  84.7879814
  30.1078900  14.3551804  98.0170844  30.9710361  13.9988609  98.2274168
  29.5344310  14.0165699  98.7046248  46.7616983  35.9381088  88.7594769
  46.4235494  35.8222153  87.8715304  47.6306751  35.5372254  88.7395776
  42.6203799  37.7916565  84.7491660  42.0568664  37.7006502  83.9807948
  42.5056194  36.9716469  85.2294153  47.2436766  37.0915940  94.7180975
  47.2325407  36.6968738  93.8461479  47.4057405  36.3582013  95.3114746
  40.1668231  39.2867756  87.5875881  40.9589522  38.9458581  87.1722180
  40.4064881  39.3962732  88.5078034  42.1258984  38.5476670  80.4593260
  42.8989860  38.0005657  80.3206135  42.4784383  39.4120919  80.6707721
  43.9644027  39.8753052  93.6660159  43.6733893  40.7798683  93.5506825
  44.6001011  39.9169580  94.3804228  44.8900234  37.2529901  90.2561519
  45.4863806  37.0285923  89.5418481  44.9475205  36.5114646  90.8586966
  52.4302393  27.3601922  91.2614040  52.0985717  28.2297333  91.0375255
  51.8348006  27.0438206  91.9408070  48.9233912  39.5614468  90.6609953
  48.6234635  40.4639506  90.5525760  48.5784972  39.2946651  91.5131105
  42.3746394  36.0128264  86.6946657  41.4496890  35.8804478  86.9024349
  42.6230807  36.7922484  87.1916599  39.7355205  35.6561538  87.5290446
  39.8647586  35.9096017  88.4429858  39.0552656  36.2489246  87.2095101
  43.9054692  46.3258788  83.6280920  43.8278722  47.2766613  83.7069401
  43.3016336  45.9804660  84.2855847  46.3971922  33.4986653  96.2842287
  45.6205256  34.0580573  96.2745152  47.0362485  33.9843436  96.8057157
  44.6518294  36.3072107  95.8460254  45.3932978  36.8457151  95.5695078
  43.9455279  36.9338395  96.0031806  50.1273634  38.4501247  94.4432416
  50.5356990  38.0083658  93.6987048  49.4050895  37.8753875  94.6966609
  46.4804704  33.3873854  91.8165973  47.3265899  33.8113267  91.9600622
  46.4203341  32.7307478  92.5104536  49.6304149  31.0478222  93.4747146
  49.3865081  31.8020283  92.9381422  49.9064080  31.4263570  94.3094393
  51.5842612  37.5916835  92.1524412  51.7959507  38.2348595  91.4758793
  51.5372360  36.7579151  91.6846342  49.1868841  30.2034655  89.0560984
  48.3253320  30.5015909  89.3477722  49.2131275  30.4205054  88.1242017
  42.8954491  38.2948327  88.4014553  43.4655848  38.7235596  87.7632037
  43.4862603  38.0130912  89.0998739  43.3879658  33.4611755  96.6475564
  42.7578318  34.1428036  96.8810961  43.2815746  33.3494836  95.7028702
  38.6824630  33.1283551  87.5741488  37.8923684  33.3841079  87.0981599
  39.1735878  33.9431889  87.6793529  46.4645043  40.0172833  92.4807480
  46.5289476  40.4793241  93.3165652  45.7555967  39.3870198  92.6089790
  36.9662333  33.3814041  90.0056479  37.2170372  34.2661051  90.2714055
  37.5021882  33.2018643  89.2331571  42.6660400  27.7632521  99.0100815
  42.2727346  27.2098719  99.6848459  43.4826541  28.0743099  99.4007333
  39.6322458  39.2016379  82.9214385  40.1446979  39.9959629  83.0719950
  40.2845171  38.5042669  82.8547987  41.4417343  42.3182135  85.0037138
  41.6183971  43.2400100  84.8158122  42.2374176  42.0040554  85.4331518
  45.5828361  29.1790400  96.6021072  46.3238075  29.7797553  96.5225534
  45.8146284  28.4368038  96.0439114  40.7269699  34.3646767  94.8799301
  40.6123215  33.4632024  95.1806400  39.8714217  34.6110464  94.5284118
  47.8061537  42.3064507  96.4786802  47.3625391  41.5200886  96.1607707
  48.4678751  42.4943658  95.8130693  42.5648658  43.8360309  91.0047481
  43.1156084  43.7077372  90.2324475  41.7260134  44.1355198  90.6542373
  49.9042775  42.5867307  94.5068203  49.8861251  43.4076188  94.0148473
  50.8262695  42.4621382  94.7318345  46.3615829  40.1011437  95.3491712
  46.8944166  39.3399725  95.1191020  45.8329911  39.8085089  96.0915866
  49.5285524  25.2071503  90.8785353  49.1849794  26.0973144  90.8024464
  49.8964487  25.0173160  90.0154938  37.5971375  37.5305033  83.6973956
  38.4346597  37.9402042  83.4807663  37.7749643  36.5904475  83.6674150
  48.6082065  27.5776158  88.8434587  48.1046860  27.5406293  88.0302392
  48.9012672  28.4868901  88.9031243  44.8524951  27.6614888  87.8500768
  45.7177947  27.4657696  87.4906658  44.9202460  27.4325239  88.7770125
  42.4587270  29.8917096  85.2217135  43.0331022  29.6692277  84.4890328
  43.0458252  29.9605790  85.9745737  45.8721142  37.0477640  75.8645497
  44.9648204  36.8166893  76.0636646  46.3692174  36.2515259  76.0519478
  37.6197546  34.8695748  84.3684689  37.4221946  34.2765109  83.6435756
  37.0644210  34.5647959  85.0860628  49.1360841  33.8437739  93.0784555
  49.4910229  34.0709212  93.9379021  49.7832973  34.1756116  92.4561810
  43.0300705  30.9514270  89.8630896  43.6700084  30.8103029  89.1653859
  42.1978235  30.6648784  89.4869498  43.8061008  40.2516701  85.9765889
  44.6001607  39.7567021  85.7748463  43.0952701  39.7234564  85.6133594
  48.6255853  42.6334796  90.3278256  48.6792875  43.2025733  91.0955972
  47.7570634  42.8036681  89.9632293  40.0329321  30.9214595  84.6403883
  40.2936138  31.8359928  84.5313043  40.8546493  30.4539038  84.7900496
  41.5054246  32.3352352  91.8102707  42.1777300  32.1269715  91.1615356
  40.6784033  32.1374438  91.3707940  47.4079818  28.9614293  93.8268368
  46.7607733  29.6604243  93.7332845  48.1780834  29.3950437  94.1944616
  50.8158616  39.2263145  96.9018922  50.6644123  38.9973697  95.9849005
  50.8063296  40.1833747  96.9150267  47.5843953  36.7995058  91.8865188
  48.5136013  36.9506218  91.7134155  47.1634983  36.8879079  91.0313834
  41.9081744  35.6094955  92.5705145  41.7701541  34.8775194  93.1716684
  42.8186667  35.5203855  92.2889332  44.5364044  35.3214915  92.0588824
  45.2463663  34.6808107  92.0175443  44.4933352  35.5727810  92.9815005
  43.2492978  32.3080133  93.8784464  42.7130335  31.8570871  94.5306060
  42.6609687  32.4426041  93.1354928  42.6595237  31.7668784  76.4410927
  41.7824703  31.6457585  76.0773174  43.1352990  30.9754862  76.1889816
  34.1797377  36.5545944  86.5352434  34.8668417  36.2407674  85.9473450
  34.0245506  37.4587308  86.2619686  38.9832099  31.4436140  90.9637458
  38.8990288  30.8361810  90.2287868  38.1614806  31.9345159  90.9646954
  46.0569384  44.8823304  90.1770626  45.9839555  45.6878276  90.6889931
  45.6146777  45.0815270  89.3518648  48.5168067  44.7810138  92.3328785
  49.2296039  45.4157603  92.2604686  48.0258096  44.8774004  91.5168787
  43.5679981  42.5304582  93.1534356  44.2689440  43.1641065  93.3063750
  43.0975096  42.8719313  92.3929995  51.5974808  26.8959297  88.4787012
  50.6837888  27.1263524  88.6469219  52.0267910  26.9797741  89.3301044
  47.4168840  35.8269000  97.4652943  46.7409477  35.7263130  98.1355318
  48.2396473  35.6708214  97.9288940  39.1647699  42.0640937  90.0865458
  39.7501135  41.3184625  90.2193363  38.9672537  42.3744894  90.9702122
  42.0186354  45.0992184  85.1027901  41.3496729  45.5838312  84.6191941
  41.8799224  45.3461405  86.0171279  33.7565353  34.6346537  88.8069902
  33.7949453  34.1010128  89.6007020  33.2505646  34.1081743  88.1880879
  41.1356116  29.4811078  92.3032444  41.1997442  30.3425908  91.8909842
  41.0723236  28.8685079  91.5704802  40.6108388  31.5534210  95.9505478
  41.2380427  31.1711287  96.5643002  39.7536307  31.3348412  96.3161171
  51.0102497  41.9597185  97.5559214  51.5542401  42.5727144  97.0614168
  50.4289342  42.5176764  98.0726227  37.3873931  33.3610639  81.8823833
  37.6827372  32.4521318  81.8290887  36.4861967  33.3398379  81.5604835
  49.2960010  45.0817903  88.6874241  49.1711149  44.2807643  88.1785187
  49.9539101  45.5764097  88.1988211  40.9168178  31.4366636  87.8651382
  40.1954764  32.0502604  87.7258855  41.7061434  31.9724401  87.7868028
  43.7194491  28.7721062  94.1392033  44.2428893  29.0183359  94.9018343
  43.5006825  29.6041097  93.7195171  39.1161773  31.0424737  82.0063158
  38.7874479  30.1622116  81.8238264  39.4701143  30.9872406  82.8939547
  44.9247037  29.7134757  91.8241704  44.5843857  28.9142570  92.2262384
  44.2186043  30.0136468  91.2518537  45.5763508  26.7984070  90.2769027
  46.3989578  26.3244548  90.1547917  45.8201572  27.5774554  90.7767713
  43.1002087  33.4903190  88.0861005  42.9546668  33.8043494  88.9785287
  42.6227291  34.1088091  87.5331904  46.8124601  30.9143079  90.1795022
  46.5542379  31.8360149  90.1779353  46.2809641  30.5173513  90.8695487
  37.5747749  36.0308535  91.0248667  37.0301217  36.8068343  91.1568941
  38.4527099  36.3779339  90.8667788  47.2326556  27.0475029  86.5396185
  47.2548253  27.1114362  85.5848165  47.6494615  26.2079538  86.7336691
  38.3613771  35.1578431  93.9178824  37.6195507  35.3061066  94.5043454
  38.0406515  35.4186697  93.0545573  46.3057434  44.6994409  93.7159214
  46.6144560  44.4543556  94.5881913  47.1032916  44.9041048  93.2278084
  46.3278046  46.8532319  85.9464590  45.8883036  46.3608698  86.6397447
  47.0786163  46.3105287  85.7056665  38.8070385  43.0443860  85.9489218
  39.6328405  42.7447632  85.5687862  38.4564437  42.2751482  86.3979007
  43.7751918  42.3970328  88.0186892  43.1531927  41.7341033  87.7189120
  44.4456785  42.4231460  87.3360540  37.0078990  40.9630186  86.9078152
  36.1710898  40.5352361  86.7262153  36.9802635  41.1562630  87.8448943
  43.8476445  30.8752116  97.6119398  43.8964601  31.7514239  97.2297167
  44.3898960  30.3329509  97.0391041  54.4529166  38.2685706  94.2053263
  54.5027171  38.1035713  95.1468786  54.3443090  37.4012965  93.8151144
  43.3365425  40.9474251  81.4945352  43.4853545  41.6309716  80.8412025
  44.1431868  40.9279341  82.0094808  51.7432929  34.2516634  95.5212570
  52.6442791  34.1123099  95.2296568  51.8180903  34.4171089  96.4610748
  46.0775734  31.6283489  94.3665756  45.2079043  31.9217055  94.0948345
  46.3135214  32.2123934  95.0873020  54.2034551  35.8115262  92.9175343
  54.6788673  36.0042908  92.1094194  53.2800117  35.8674448  92.6718727
  48.7814768  27.8463105  91.8831177  49.2996712  28.5824132  91.5577665
  48.4269901  28.1527099  92.7177936  49.0327362  24.2663388  87.4032073
  49.3129116  23.5986577  88.0292500  49.8177969  24.4592484  86.8906737
  50.9250600  29.7736605  91.3363049  50.3300532  30.0541618  90.6409538
  50.6400296  30.2630506  92.1079791  47.1046321  38.8300941  97.7673809
  48.0249331  39.0079540  97.9613856  47.0695904  37.8856986  97.6153508
  45.4050546  32.7033171  76.2428037  44.4982001  32.4066284  76.3190751
  45.6826527  32.4062989  75.3762324  36.3228486  34.0239534  86.6927084
  36.0031271  33.1704843  86.4001458  35.7761915  34.2388113  87.4485051
  40.1008394  36.7401975  90.4096590  40.3194404  37.6719083  90.4284624
  40.5134168  36.3809950  91.1951394  44.9736259  32.3135181  99.7999339
  44.8732986  33.2629538  99.7311430  44.7557801  31.9853420  98.9275409
  44.1749331  29.5620106  76.3840017  45.0368495  29.8875005  76.6435834
  44.3599675  28.7751602  75.8713082  36.1916746  37.6442446  88.6620205
  35.4980218  37.2296399  88.1490160  36.9389737  37.6862982  88.0653624
  44.8367529  35.7432320  98.6164401  44.3534611  36.5432680  98.8228290
  44.9228468  35.7540265  97.6631845  38.1053489  37.5760700  86.5386220
  38.0824177  37.6748387  85.5868103  38.4154125  38.4225850  86.8603386
  40.7640867  39.6336855  90.6532835  41.7184120  39.6020797  90.5862766
  40.5653390  39.1727478  91.4683061  41.3540249  38.2037971  93.2203632
  42.1733138  38.6982049  93.2438470  41.6277057  37.2869939  93.1921200
  42.2760222  46.0725791  87.8821475  42.1592606  47.0171224  87.7800166
  41.4552668  45.7699353  88.2707274  36.6075163  32.5376105  93.9195829
  37.2534027  32.0275059  94.4083055  36.3992314  33.2744786  94.4939255
  49.1328555  39.6056952  99.4187970  50.0019715  39.7797604  99.0574605
  48.6535307  40.4251369  99.2963699  43.3014736  46.7254053  91.0977404
  44.2041982  46.7577663  91.4143899  43.0752106  45.7954504  91.1123739
  45.0568338  45.4785040  87.7587482  44.1063969  45.4786901  87.6451855
  45.3600824  44.7317774  87.2423517  40.9472654  29.6843722  98.0170844
  41.8104116  29.3280527  98.2274168  40.3738065  29.3457617  98.7046248
  60.7436530  57.9159225  94.5068203  60.7255005  58.7368106  94.0148473
  61.6656450  57.7913300  94.7318345  63.3644577  57.5874186  94.9795403
  63.3057124  56.9033406  94.3125986  63.7664096  58.3293176  94.5276029
  51.9749870  44.8102995  92.3032444  52.0391197  45.6717826  91.8909842
  51.9116990  44.1976997  91.5704802  61.8496251  57.2889103  97.5559214
  62.3936155  57.9019061  97.0614168  61.2683096  57.8468681  98.0726227
  65.1725046  56.7485157  96.8920535  64.3820589  56.7309296  96.3525034
  64.9358400  57.2873451  97.6469571  66.7941118  56.0174565  94.4495285
  66.5025926  56.3804545  95.2858746  66.1813249  55.3041573  94.2708617
  68.4404492  66.5964924  88.7594769  68.1023003  66.4805989  87.8715304
  69.3094260  66.1956089  88.7395776  71.1856054  64.3688950  85.8986453
  71.9719143  63.9508373  85.5476870  71.4494758  65.2735042  86.0668101
  68.1592213  64.0457689  91.8165973  69.0053408  64.4697103  91.9600622
  68.0990850  63.3891314  92.5104536  71.3091658  61.7062058  93.4747146
  71.0652590  62.4604118  92.9381422  71.5851589  62.0847405  94.3094393
  64.3447909  58.4216356  99.0100815  63.9514855  57.8682555  99.6848459
  65.1614050  58.7326935  99.4007333  63.1204852  72.9765971  85.0037138
  63.2971480  73.8983935  84.8158122  63.9161685  72.6624390  85.4331518
  67.2615870  59.8374235  96.6021072  68.0025584  60.4381388  96.5225534
  67.4933793  59.0951873  96.0439114  69.6735187  63.9124113  88.2739852
  68.7557748  64.1339060  88.1161540  70.0895330  63.9870424  87.4151560
  65.4848517  70.9100536  85.9765889  66.2789116  70.4150856  85.7748463
  64.7740210  70.3818399  85.6133594  69.0867327  59.6198129  93.8268368
  68.4395242  60.3188078  93.7332845  69.8568343  60.0534273  94.1944616
  63.2229031  79.7328017  87.7729122  63.4625629  80.3646541  88.4508141
  62.3798227  79.3816057  88.0594482  63.6973863  75.7576020  85.1027901
  63.0284238  76.2422147  84.6191941  63.5586733  76.0045240  86.0171279
  65.3982000  59.4304898  94.1392033  65.9216402  59.6767194  94.9018343
  65.1794334  60.2624932  93.7195171  60.4857894  73.7027695  85.9489218
  61.3115914  73.4031467  85.5687862  60.1351946  72.9335318  86.3979007
  65.5263954  61.5335951  97.6119398  65.5752110  62.4098074  97.2297167
  66.0686469  60.9913345  97.0391041  67.7563243  62.2867324  94.3665756
  66.8866552  62.5800890  94.0948345  67.9922723  62.8707769  95.0873020
  77.6334872  71.3466483  94.4495285  77.3419680  71.7096463  95.2858746
  77.0207003  70.6333491  94.2708617  74.5823729  63.3464857  91.1503649
  75.5341152  63.4462955  91.1715873  74.4127180  62.5543126  91.6601733
  82.8788357  67.6286984  89.4051985  83.6091745  67.3672272  89.9659688
  82.2695302  66.8915706  89.4454053  60.7978605  75.8340310  87.6703033
  60.6633073  75.0740710  87.1041031  60.3810667  76.5581209  87.2031821
  62.6260163  60.3427557  98.0170844  63.4891625  59.9864362  98.2274168
  62.0525574  60.0041452  98.7046248  78.9153185  79.4862406  96.2842287
  78.1386519  80.0456326  96.2745152  79.5543748  79.9719189  96.8057157
  86.7073966  76.2689199  90.1185264  86.0648346  76.5621732  89.4725058
  86.2028894  76.1542119  90.9238460  77.1699557  82.2947860  95.8460254
  77.9114242  82.8332904  95.5695078  76.4636543  82.9214148  96.0031806
  82.6454897  84.4377000  94.4432416  83.0538253  83.9959411  93.6987048
  81.9232159  83.8629628  94.6966609  75.9060921  79.4487508  96.6475564
  75.2759582  80.1303789  96.8810961  75.7997009  79.3370589  95.7028702
  93.3075696  82.8003292  86.6731741  92.5539405  82.2310690  86.5175745
  93.4423237  82.7665956  87.6202375  78.1009625  75.1666153  96.6021072
  78.8419338  75.7673306  96.5225534  78.3327548  74.4243791  96.0439114
  80.3242801  88.2940260  96.4786802  79.8806655  87.5076639  96.1607707
  80.9860014  88.4819411  95.8130693  82.0466788  71.1947256  90.8785353
  81.7031057  72.0848897  90.8024464  82.4145751  71.0048913  90.0154938
  83.3339880  85.2138899  96.9018922  83.1825386  84.9849450  95.9849005
  83.3244559  86.1709500  96.9150267  89.5266834  81.6205822  87.9725945
  89.5156710  82.5030538  87.6019878  88.6584214  81.2677373  87.7780482
  83.8862530  81.0724942  90.9786906  83.2333980  81.3200850  90.3239359
  84.2642910  80.2589080  90.6449383  79.9350103  81.8144753  97.4652943
  79.2590740  81.7138883  98.1355318  80.7577737  81.6583967  97.9288940
  73.1289652  77.5409963  95.9505478  73.7561690  77.1587040  96.5643002
  72.2717571  77.3224165  96.3161171  76.3657709  76.8627869  97.6119398
  76.4145864  77.7389992  97.2297167  76.9080223  76.3205262  97.0391041
  84.2614192  80.2392387  95.5212570  85.1624055  80.0998852  95.2296568
  84.3362167  80.4046842  96.4610748  78.5956997  77.6159242  94.3665756
  77.7260307  77.9092808  94.0948345  78.8316478  78.1999687  95.0873020
  86.7215815  81.7991015  92.9175343  87.1969936  81.9918661  92.1094194
  85.7981380  81.8550201  92.6718727  88.0500050  78.6873938  90.3104231
  87.5339099  77.9032395  90.1234160  88.9339999  78.3592655  90.4750751
  79.6227585  84.8176694  97.7673809  80.5430594  84.9955293  97.9613856
  79.5877168  83.8732739  97.6153508  77.4917523  78.3010934  99.7999339
  77.3914250  79.2505291  99.7311430  77.2739065  77.9729173  98.9275409
  77.3548793  81.7308073  98.6164401  76.8715875  82.5308433  98.8228290
  77.4409732  81.7416018  97.6631845  81.6509819  85.5932705  99.4187970
  82.5200979  85.7673357  99.0574605  81.1716570  86.4127122  99.2963699
  89.5233597  92.4165159  78.9944122  89.6907999  93.2845396  79.3614593
  89.3330766  92.5792441  78.0705411  89.5022818  94.8722817  79.9790789
  89.3822443  95.3179868  80.8176269  88.8075406  95.2208135  79.4204327
  88.2974314  96.1867669  82.2724355  88.9998358  96.6388713  82.7398281
  87.9654943  95.5451488  82.9004248  92.8510825  96.5147785  79.3857789
  92.3357449  97.2852389  79.6246176  92.5788134  95.8412921  80.0090850
  92.6397128  94.3874877  81.2117570  92.3347264  94.7021026  82.0627713
  93.5927570  94.4656297  81.2544903  91.0843560 100.5465100  82.8610524
  90.5564922  99.8117860  82.5483761  90.5831063 101.3239776  82.6150492
  92.1357744  95.9699364  83.4042533  92.8829563  96.4820762  83.0949655
  92.4049333  95.6483417  84.2646926  90.4084394  98.4657905  80.3869487
  89.4995613  98.1816938  80.4841957  90.4379478  98.8856984  79.5272794
  95.6403661 102.0764495  84.1560654  95.1865988 101.2355404  84.2125845
  95.0097628 102.7125893  84.4935435  94.0836600 103.9140991  85.0910473
  94.3759575 104.4746048  84.3722838  94.5935221 104.2069552  85.8463632
  94.6848208  85.7832733  85.9803091  94.9907085  84.9230096  85.6929006
  95.4100813  86.3750353  85.7802085  89.0470226 104.6921342  86.1803926
  89.0046404 104.9182189  85.2512458  89.9632924 104.4584717  86.3289727
  87.1636026 101.5684371  85.9765889  87.9576625 101.0734692  85.7748463
  86.4527719 101.0402234  85.6133594  91.9830871 103.9502467  90.3278256
  92.0367893 104.5193403  91.0955972  91.1145652 104.1204352  89.9632293
  91.2912518 101.5194996  87.0452563  90.9562350 101.4795766  87.9410213
  90.7916463 100.8539712  86.5722974  93.5960612 100.0029062  83.9046077
  92.6616891 100.1230524  83.7350781  93.7737280  99.1001529  83.6406086
  91.6863458 106.4376553  85.0815076  91.8685853 105.6198209  85.5442829
  92.5096444 106.6544245  84.6439966  92.6535028 106.3985574  88.6874241
  92.5286167 105.5975314  88.1785187  93.3114119 106.8931767  88.1988211
  91.7216369 103.9947310  86.5158144  91.5741332 103.0664018  86.6965714
  92.5469863 104.0167401  86.0315219  95.3250491 104.8175869  87.6023016
  96.2497039 104.6118730  87.4647468  95.1565795 104.5692270  88.5112358
  86.6940443 102.2641922  81.4945352  86.8428563 102.9477387  80.8412025
  87.5006886 102.2447012  82.0094808  90.3787630  88.5637731  82.3972279
  89.5688358  88.2184816  82.7727525  91.0672047  88.2545275  82.9859890
 101.4405538 113.7375529  94.7180975 101.4294179 113.3428327  93.8461479
 101.6026178 113.0041601  95.3114746  99.0869006 113.8989489  90.2561519
  99.6832579 113.6745511  89.5418481  99.1443978 113.1574234  90.8586966
 103.1202685 116.2074056  90.6609953 102.8203408 117.1099095  90.5525760
 102.7753744 115.9406239  91.5131105 104.3242406 115.0960836  94.4432416
 104.7325762 114.6543246  93.6987048 103.6019668 114.5213463  94.6966609
  97.0923264 114.9407916  88.4014553  97.6624621 115.3695184  87.7632037
  97.6831376 114.6590500  89.0998739 100.6613816 116.6632422  92.4807480
 100.7258248 117.1252829  93.3165652  99.9524740 116.0329787  92.6089790
 102.0030310 118.9524096  96.4786802 101.5594164 118.1660474  96.1607707
 102.6647523 119.1403246  95.8130693 104.1011548 119.2326896  94.5068203
 104.0830023 120.0535777  94.0148473 105.0231468 119.1080971  94.7318345
 100.5584602 116.7471025  95.3491712 101.0912939 115.9859313  95.1191020
 100.0298683 116.4544677  96.0915866 102.8224625 119.2794385  90.3278256
 102.8761648 119.8485321  91.0955972 101.9539407 119.4496270  89.9632293
  94.2298093 107.5674184  84.6403883  94.4904911 108.4819517  84.5313043
  95.0515266 107.0998626  84.7900496 105.0127389 115.8722734  96.9018922
 104.8612895 115.6433286  95.9849005 105.0032068 116.8293335  96.9150267
 101.7812725 113.4454647  91.8865188 102.7104785 113.5965806  91.7134155
 101.3603755 113.5338667  91.0313834 100.5801057 117.4705311  89.6563726
 100.4412143 117.1024095  90.5289664  99.7915653 117.9852950  89.4847683
  96.1050516 112.2554544  92.5705145  95.9670314 111.5234783  93.1716684
  97.0155439 112.1663444  92.2889332  98.7332817 111.9674503  92.0588824
  99.4432435 111.3267695  92.0175443  98.6902125 112.2187398  92.9815005
 102.7136839 121.4269727  92.3328785 103.4264812 122.0617192  92.2604686
 102.2226868 121.5233593  91.5168787 105.2071269 118.6056774  97.5559214
 105.7511173 119.2186732  97.0614168 104.6258114 119.1636352  98.0726227
  95.1136950 108.0826224  87.8651382  94.3923536 108.6962192  87.7258855
  95.9030206 108.6183989  87.7868028 101.3015094 115.4760529  97.7673809
 102.2218103 115.6539128  97.9613856 101.2664677 114.5316574  97.6153508
 103.3297328 116.2516540  99.4187970 104.1988487 116.4257193  99.0574605
 102.8504079 117.0710957  99.2963699  99.2537110 122.1244628  87.7587482
  98.3032741 122.1246490  87.6451855  99.5569596 121.3777363  87.2423517
 114.9889804 127.9605166  88.8233245 115.6268214 127.8411914  88.1196585
 114.8710646 128.9086010  88.8821197 111.7979510 127.9132595  88.7594769
 111.4598021 127.7973659  87.8715304 112.6669278 127.5123760  88.7395776
 107.6566326 129.7668071  84.7491660 107.0931191 129.6758008  83.9807948
 107.5418721 128.9467975  85.2294153 112.2799293 129.0667446  94.7180975
 112.2687934 128.6720245  93.8461479 112.4419932 128.3333519  95.3114746
 105.2030757 131.2619263  87.5875881 105.9952049 130.9210087  87.1722180
 105.4427408 131.3714238  88.5078034 113.2365884 133.4339039  80.0606125
 112.5853864 134.0193119  79.6740139 114.0310247 133.9645234  80.1201163
 107.1621511 130.5228176  80.4593260 107.9352387 129.9757163  80.3206135
 107.5146910 131.3872425  80.6707721 109.0006554 131.8504558  93.6660159
 108.7096420 132.7550189  93.5506825 109.6363538 131.8921086  94.3804228
 109.9262761 129.2281407  90.2561519 110.5226333 129.0037429  89.5418481
 109.9837732 128.4866152  90.8586966 109.4987789 126.6820842  78.0911710
 109.7513310 126.1602363  77.3295173 108.5612348 126.5186987  78.1938393
 114.7141149 131.1229471  80.5975110 114.0786982 131.1964097  81.3096014
 114.3838556 131.7123069  79.9194189 119.9439499 125.6231853  86.8019431
 120.6764671 125.0531070  87.0357261 119.1878855 125.2353454  87.2425937
 109.2184078 128.5848948  80.2936084 109.1020336 127.9093851  80.9617169
 109.3286338 128.0981322  79.4768238 111.5615619 128.0459095  83.9982774
 111.1973826 127.5189716  84.7095695 112.4182735 127.6557564  83.8249259
 117.4664920 119.3353428  91.2614040 117.1348244 120.2048839  91.0375255
 116.8710533 119.0189712  91.9408070 113.9596439 131.5365974  90.6609953
 113.6597162 132.4391012  90.5525760 113.6147499 131.2698157  91.5131105
 117.3593583 124.0548514  88.3407390 116.4510460 123.9863922  88.0466151
 117.3081179 124.5320459  89.1689215 111.1810327 125.5306652  79.9790789
 111.0609952 125.9763703  80.8176269 110.4862915 125.8791970  79.4204327
 104.7717732 127.6313044  87.5290446 104.9010113 127.8847523  88.4429858
 104.0915183 128.2240752  87.2095101 108.9417219 138.3010294  83.6280920
 108.8641249 139.2518119  83.7069401 108.3378862 137.9556166  84.2855847
 111.4334449 125.4738159  96.2842287 110.6567783 126.0332080  96.2745152
 112.0725012 125.9594942  96.8057157 119.2255229 122.2564952  90.1185264
 118.5829610 122.5497485  89.4725058 118.7210158 122.1417873  90.9238460
 116.8795393 126.0028125  80.8071123 117.7913249 126.2355512  80.6318821
 116.3705040 126.5865170  80.2446202 109.6880821 128.2823613  95.8460254
 110.4295505 128.8208657  95.5695078 108.9817806 128.9089901  96.0031806
 115.1636161 130.4252753  94.4432416 115.5719517 129.9835164  93.6987048
 114.4413422 129.8505381  94.6966609 111.5167231 125.3625360  91.8165973
 112.3628426 125.7864774  91.9600622 111.4565868 124.7058984  92.5104536
 115.4864975 130.9853944  88.1984705 114.8573838 131.1499658  87.4960772
 115.0990637 131.3995553  88.9695669 119.3654207 131.9208382  85.5529068
 118.6805245 132.3007283  85.0026102 119.4498056 132.5303708  86.2861016
 114.6666676 123.0229728  93.4747146 114.4227608 123.7771789  92.9381422
 114.9426606 123.4015076  94.3094393 116.6205139 129.5668341  92.1524412
 116.8322034 130.2100101  91.4758793 116.5734887 128.7330657  91.6846342
 111.0392937 130.7228352  85.4634790 111.5031283 131.0016055  84.6739412
 110.7749735 129.8211796  85.2807880 107.9317018 130.2699833  88.4014553
 108.5018375 130.6987102  87.7632037 108.5225130 129.9882418  89.0998739
 109.9761823 126.8451504  82.2724355 110.6785867 127.2972548  82.7398281
 109.6442452 126.2035323  82.9004248 108.4242185 125.4363261  96.6475564
 107.7940845 126.1179542  96.8810961 108.3178273 125.3246343  95.7028702
 103.7187157 125.1035057  87.5741488 102.9286211 125.3592585  87.0981599
 104.2098405 125.9183395  87.6793529 117.7350967 132.4440296  90.3246769
 118.5568410 132.0420483  90.0429451 117.7313370 132.3408530  91.2762885
 105.6701903 125.4679636  84.5324965 104.8733066 125.5798330  85.0508461
 105.4427495 125.8066288  83.6665856 111.5007570 131.9924339  92.4807480
 111.5652003 132.4544747  93.3165652 110.7918494 131.3621704  92.6089790
 102.0024860 125.3565547  90.0056479 102.2532899 126.2412557  90.2714055
 102.5384409 125.1770149  89.2331571 125.8256960 128.7879045  86.6731741
 125.0720668 128.2186443  86.5175745 125.9604501 128.7541709  87.6202375
 111.2155588 133.6592447  82.3486460 111.0801263 134.5043983  82.7771308
 111.7565400 133.8611725  81.5852394 107.7022927 119.7384027  99.0100815
 107.3089873 119.1850225  99.6848459 108.5189068 120.0494605  99.4007333
 104.6684985 131.1767885  82.9214385 105.1809506 131.9711135  83.0719950
 105.3207698 130.4794175  82.8547987 106.4779870 134.2933641  85.0037138
 106.6546498 135.2151606  84.8158122 107.2736703 133.9792060  85.4331518
 110.6190888 121.1541906  96.6021072 111.3600602 121.7549059  96.5225534
 110.8508811 120.4119544  96.0439114 105.7632226 126.3398273  94.8799301
 105.6485742 125.4383530  95.1806400 104.9076744 126.5861970  94.5284118
 112.8424064 134.2816013  96.4786802 112.3987918 133.4952392  96.1607707
 113.5041278 134.4695164  95.8130693 107.6011185 135.8111815  91.0047481
 108.1518610 135.6828878  90.2324475 106.7622661 136.1106704  90.6542373
 114.9405302 134.5618813  94.5068203 114.9223778 135.3827694  94.0148473
 115.8625222 134.4372889  94.7318345 111.3978356 132.0762943  95.3491712
 111.9306693 131.3151231  95.1191020 110.8692437 131.7836595  96.0915866
 114.5298334 127.1731620  79.3857789 114.0144958 127.9436225  79.6246176
 114.2575643 126.4996756  80.0090850 119.5032608 129.9263975  81.3210962
 118.7262051 129.5875134  80.8766124 120.1824089 129.9316598  80.6465927
 112.7631069 131.2048935  82.8610524 112.2352431 130.4701695  82.5483761
 112.2618572 131.9823612  82.6150492 117.7423915 129.3997956  87.9777570
 117.0847590 130.0897217  88.0657699 118.5464314 129.7894388  88.3211556
 116.5529374 127.7542328  86.0281512 117.0661256 128.3872320  86.5303222
 117.2030598 127.1543524  85.6624872 107.8219384 123.8973063  79.2413021
 106.9856696 124.2347749  79.5622295 107.6824153 123.7622042  78.3040158
 110.9083669 129.0229146  75.8645497 110.0010731 128.7918399  76.0636646
 111.4054701 128.2266765  76.0519478 113.8151748 137.7326653  78.7842183
 113.1413447 138.0358350  79.3927141 114.2017570 138.5355733  78.4347640
 113.0310205 125.2291784  88.2739852 112.1132766 125.4506731  88.1161540
 113.4470348 125.3038094  87.4151560 112.0871903 129.1241740  80.3869487
 111.1783122 128.8400773  80.4841957 112.1166987 129.5440819  79.5272794
 117.3191170 132.7348330  84.1560654 116.8653497 131.8939240  84.2125845
 116.6885137 133.3709728  84.4935435 115.7624109 134.5724827  85.0910473
 116.0547084 135.1329884  84.3722838 116.2722730 134.8653388  85.8463632
 111.7847991 130.6650484  77.7257565 111.3467420 129.9486343  77.2663203
 112.5258431 130.8926599  77.1642657 110.7257735 135.3505178  86.1803926
 110.6833913 135.5766024  85.2512458 111.6420433 135.1168552  86.3289727
 114.1723368 125.8189245  93.0784555 114.5272756 126.0460718  93.9379021
 114.8195500 126.1507622  92.4561810 119.9021105 128.9407681  83.7833884
 119.7639004 129.1309277  82.8555073 119.5457324 129.7027064  84.2401935
 119.9290485 131.0084208  88.7945156 120.3626992 130.9159497  89.6428210
 120.6422066 130.9841709  88.1565172 108.8423535 132.2268207  85.9765889
 109.6364134 131.7318527  85.7748463 108.1315228 131.6986070  85.6133594
 113.6618380 134.6086302  90.3278256 113.7155402 135.1777239  91.0955972
 112.7933161 134.7788187  89.9632293 105.1506299 126.3711288  82.0525641
 104.2203887 126.3095744  82.2695603 105.2463771 125.8487241  81.2562282
 106.5416773 124.3103858  91.8102707 107.2139827 124.1021221  91.1615356
 105.7146560 124.1125944  91.3707940 120.7906034 131.0507909  91.3278041
 120.9841925 131.9553719  91.5737316 120.6906653 130.5915328  92.1616626
 112.4442345 120.9365799  93.8268368 111.7970260 121.6355749  93.7332845
 113.2143361 121.3701943  94.1944616 115.8521143 131.2014652  96.9018922
 115.7006650 130.9725203  95.9849005 115.8425823 132.1585253  96.9150267
 112.6206480 128.7746564  91.8865188 113.5498540 128.9257724  91.7134155
 112.1997510 128.8630585  91.0313834 111.4194811 132.7997229  89.6563726
 111.2805897 132.4316013  90.5289664 110.6309408 133.3144868  89.4847683
 112.0142963 137.9006325  80.9989262 112.1894719 137.4294368  81.8134885
 111.3275751 138.5272091  81.2270523 112.9700026 132.1778831  87.0452563
 112.6349859 132.1379601  87.9410213 112.4703972 131.5123547  86.5722974
 106.9444270 127.5846461  92.5705145 106.8064068 126.8526700  93.1716684
 107.8549194 127.4955362  92.2889332 115.9059218 129.5234866  77.3189623
 115.2888389 128.7981694  77.2222676 115.4375707 130.2844226  76.9756697
 109.5726571 127.2966421  92.0588824 110.2826190 126.6559613  92.0175443
 109.5295879 127.5479316  92.9815005 117.5613350 134.2333774  94.9795403
 117.5025896 133.5492994  94.3125986 117.9632868 134.9752764  94.5276029
 108.2855505 124.2831639  93.8784464 107.7492862 123.8322377  94.5306060
 107.6972214 124.4177547  93.1354928 106.5804049 141.0495688  87.7729122
 106.8200647 141.6814212  88.4508141 105.7373245 140.6983728  88.0594482
 117.5630757 132.1973358  93.2109383 116.6757536 131.8599280  93.3335782
 118.1329308 131.4656389  93.4478148 104.0194626 123.4187646  90.9637458
 103.9352815 122.8113316  90.2287868 103.1977333 123.9096665  90.9646954
 111.0931910 136.8574810  90.1770626 111.0202082 137.6629782  90.6889931
 110.6509304 137.0566776  89.3518648 110.8821690 136.0946580  83.6873448
 110.0989212 136.6368261  83.7811672 111.5814435 136.6120560  84.0867689
 122.0448098 127.6081575  87.9725945 122.0337974 128.4906291  87.6019878
 121.1765477 127.2553126  87.7780482 113.5530594 136.7561644  92.3328785
 114.2658566 137.3909109  92.2604686 113.0620623 136.8525510  91.5168787
 115.2748121 130.6612897  83.9046077 114.3404400 130.7814360  83.7350781
 115.4524789 129.7585364  83.6406086 118.6620672 126.5030216  84.4396111
 119.1281124 127.3358208  84.3656413 119.1128173 126.0375198  85.1441369
 108.6042508 134.5056088  93.1534356 109.3051967 135.1392571  93.3063750
 108.1337623 134.8470819  92.3929995 116.7296903 132.8474038  81.4382263
 117.0056747 132.7330632  82.3476137 115.8601402 132.4491523  81.3994436
 116.4043793 127.0600695  90.9786906 115.7515244 127.3076603  90.3239359
 116.7824173 126.2464834  90.6449383 113.3650967 137.0960389  85.0815076
 113.5473362 136.2782044  85.5442829 114.1883953 137.3128081  84.6439966
 113.6993133 136.0228574  82.3430125 114.2280899 135.5121028  81.7300287
 113.9621352 135.7071104  83.2075658 112.4531367 127.8020506  97.4652943
 111.7772004 127.7014636  98.1355318 113.2759000 127.6459720  97.9288940
 104.2010226 134.0392443  90.0865458 104.7863662 133.2936131  90.2193363
 104.0035064 134.3496400  90.9702122 107.0548881 137.0743690  85.1027901
 106.3859256 137.5589818  84.6191941 106.9161750 137.3212911  86.0171279
  98.7927880 126.6098043  88.8069902  98.8311980 126.0761634  89.6007020
  98.2868173 126.0833249  88.1880879 111.1954149 139.1087434  91.7010559
 111.7472457 139.2719055  92.4659644 111.5360343 139.6991872  91.0290584
 105.6470915 123.5285716  95.9505478 106.2742954 123.1462793  96.5643002
 104.7898834 123.3099918  96.3161171 116.0465024 133.9348691  97.5559214
 116.5904928 134.5478650  97.0614168 115.4651869 134.4928270  98.0726227
 114.3322537 137.0569409  88.6874241 114.2073676 136.2559149  88.1785187
 114.9901628 137.5515603  88.1988211 116.3957445 134.8578429  90.3153791
 115.4487781 134.7383781  90.2432118 116.7440218 133.9700927  90.3980053
 108.7557018 120.7472568  94.1392033 109.2791420 120.9934865  94.9018343
 108.5369352 121.5792603  93.7195171 113.4003878 134.6531146  86.5158144
 113.2528841 133.7247853  86.6965714 114.2257372 134.6751236  86.0315219
 117.0038000 135.4759704  87.6023016 117.9284548 135.2702566  87.4647468
 116.8353304 135.2276106  88.5112358 108.1364614 125.4654697  88.0861005
 107.9909195 125.7795000  88.9785287 107.6589818 126.0839597  87.5331904
 116.7933316 135.9945372  82.9585108 116.9670194 135.4291794  82.2058960
 117.2862208 136.7946267  82.7764598 102.6110276 128.0060041  91.0248667
 102.0663744 128.7819849  91.1568941 103.4889626 128.3530845  90.8667788
 122.6472708 128.7581795  84.5775408 123.0903854 128.0089120  84.1794531
 121.7699218 128.7491931  84.1949140 117.7808489 135.3112136  80.0582006
 118.4759394 135.9318829  80.2769321 118.1231639 134.4607487  80.3334384
 103.3976298 127.1329937  93.9178824 102.6558034 127.2812573  94.5043454
 103.0769042 127.3938203  93.0545573 119.6799912 132.7611842  81.5869337
 120.2051236 133.0999115  80.8618657 119.5922265 131.8258857  81.4032472
 111.3419961 136.6745915  93.7159214 111.6507087 136.4295062  94.5881913
 112.1395443 136.8792554  93.2278084 111.3640573 138.8283825  85.9464590
 110.9245563 138.3360204  86.6397447 112.1148690 138.2856793  85.7056665
 103.8432912 135.0195366  85.9489218 104.6690932 134.7199138  85.5687862
 103.4926964 134.2502988  86.3979007 108.8114445 134.3721834  88.0186892
 108.1894454 133.7092539  87.7189120 109.4819312 134.3982966  87.3360540
 102.0441517 132.9381692  86.9078152 101.2073425 132.5103867  86.7262153
 102.0165162 133.1314136  87.8448943 108.8838972 122.8503622  97.6119398
 108.9327128 123.7265745  97.2297167 109.4261487 122.3081015  97.0391041
 119.3693818 133.3944745  96.8920535 118.5789362 133.3768884  96.3525034
 119.1327173 133.9333039  97.6469571 119.4891693 130.2437212  94.2053263
 119.5389698 130.0787219  95.1468786 119.3805616 129.3764471  93.8151144
 108.3727952 132.9225757  81.4945352 108.5216072 133.6061222  80.8412025
 109.1794395 132.9030848  82.0094808 116.7795456 126.2268140  95.5212570
 117.6805318 126.0874605  95.2296568 116.8543430 126.3922595  96.4610748
 111.1138261 123.6034995  94.3665756 110.2441570 123.8968561  94.0948345
 111.3497741 124.1875440  95.0873020 120.9909890 132.6634153  94.4495285
 120.6994698 133.0264134  95.2858746 120.3782021 131.9501162  94.2708617
 122.1905572 130.2287033  86.9697855 123.0252464 130.6676837  87.1335416
 122.3264701 129.7525686  86.1506101 119.2397078 127.7866768  92.9175343
 119.7151200 127.9794414  92.1094194 118.3162644 127.8425954  92.6718727
 106.1280585 128.9490935  82.5006421 105.8826627 128.0453265  82.6986631
 106.2976499 128.9508086  81.5585899 105.3976232 124.6819293  79.9992583
 104.7045477 124.7563648  79.3432619 105.1527984 123.9179636  80.5214100
 111.8723357 135.4173888  78.9657100 111.2997324 136.0364075  78.5127572
 112.4456151 135.9673250  79.4997022 117.9398747 124.6632528  91.1503649
 118.8916170 124.7630626  91.1715873 117.7702198 123.8710797  91.6601733
 115.9613127 121.7488111  91.3363049 115.3663059 122.0293124  90.6409538
 115.6762823 122.2382012  92.1079791 115.0920617 135.7011038  80.0965682
 116.0251290 135.6356600  80.2998558 115.0043830 136.5367305  79.6380215
 117.7208634 135.0176908  77.0569630 117.6422265 134.6836772  77.9505387
 118.5418301 135.5098676  77.0561102 120.4186825 127.8838648  90.2645948
 120.3863145 126.9454648  90.4505632 121.0287449 127.9622684  89.5311773
 112.2570156 126.7534701  76.3073152 113.2029261 126.6240909  76.3761570
 111.8784401 126.0149363  76.7842580 120.5681313 124.6749691  90.3104231
 120.0520362 123.8908148  90.1234160 121.4521262 124.3468408  90.4750751
 126.2363375 128.9454655  89.4051985 126.9666763 128.6839943  89.9659688
 125.6270320 128.2083376  89.4454053 124.3178672 127.0862517  90.0026436
 123.5911836 126.9518482  89.3942928 123.9025959 127.3939346  90.8083154
 112.1408848 130.8052447  97.7673809 113.0611858 130.9831046  97.9613856
 112.1058431 129.8608492  97.6153508 105.1370921 128.7153481  90.4096590
 105.3556931 129.6470589  90.4284624 105.5496695 128.3561456  91.1951394
 110.0098786 124.2886687  99.7999339 109.9095513 125.2381044  99.7311430
 109.7920328 123.9604926  98.9275409 101.2279273 129.6193952  88.6620205
 100.5342745 129.2047905  88.1490160 101.9752264 129.6614488  88.0653624
 109.8730056 127.7183826  98.6164401 109.3897138 128.5184186  98.8228290
 109.9590995 127.7291771  97.6631845 103.1416016 129.5512206  86.5386220
 103.1186704 129.6499893  85.5868103 103.4516652 130.3977357  86.8603386
 105.8003394 131.6088361  90.6532835 106.7546647 131.5772303  90.5862766
 105.6015917 131.1478985  91.4683061 106.3902776 130.1789477  93.2203632
 107.2095665 130.6733555  93.2438470 106.6639584 129.2621445  93.1921200
 119.4983908 122.5946750  86.2985927 120.2744298 123.0843203  86.5710544
 118.7732042 123.0204804  86.7557797 121.9356467 123.3074369  87.3559868
 122.5300958 123.0670105  86.6453176 122.0083051 122.5881500  87.9833404
 104.1553623 137.1507980  87.6703033 104.0208090 136.3908381  87.1041031
 103.7385685 137.8748880  87.2031821 115.2912586 132.3344904  76.6779608
 115.9948436 132.5394906  77.2937264 114.5675234 132.9021666  76.9428691
 116.1210396 128.0854765  82.7981878 116.0645597 128.5423316  81.9589510
 116.6738738 127.3245450  82.6204721 119.9315202 123.8744497  83.6231998
 119.6752136 123.4741133  84.4540205 119.3068070 124.5888291  83.4982137
 124.2427540 126.6140570  86.1303289 123.6827098 126.6833759  86.9034851
 123.6371043 126.4381555  85.4102785 107.3122748 138.0477297  87.8821475
 107.1955133 138.9922730  87.7800166 106.4915195 137.7450859  88.2707274
 117.1999283 132.7727433  78.7278068 118.0344887 132.3408631  78.5455543
 117.0383626 132.6009447  79.6554962 116.8545175 129.2759546  80.0934407
 116.7993979 129.1103818  79.1522851 116.2291230 129.9835579  80.2496597
 101.6437690 124.5127611  93.9195829 102.2896554 124.0026565  94.4083055
 101.4354841 125.2496292  94.4939255 114.1691082 131.5808458  99.4187970
 115.0382242 131.7549110  99.0574605 113.6897834 132.4002875  99.2963699
 108.3377263 138.7005559  91.0977404 109.2404509 138.7329169  91.4143899
 108.1114633 137.7706010  91.1123739 110.0930865 137.4536546  87.7587482
 109.1426496 137.4538407  87.6451855 110.3963351 136.7069280  87.2423517
 105.9835181 121.6595228  98.0170844 106.8466643 121.3032033  98.2274168
 105.4100592 121.3209123  98.7046248 122.6373264 143.2424512  88.7594769
 122.2991776 143.1265577  87.8715304 123.5063033 142.8415677  88.7395776
 118.4960080 145.0959989  84.7491660 117.9324945 145.0049926  83.9807948
 118.3812475 144.2759893  85.2294153 116.0424512 146.5911180  87.5875881
 116.8345804 146.2502005  87.1722180 116.2821162 146.7006155  88.5078034
 118.0015266 145.8520093  80.4593260 118.7746142 145.3049081  80.3206135
 118.3540665 146.7164343  80.6707721 120.7656515 144.5573324  90.2561519
 121.3620088 144.3329347  89.5418481 120.8231487 143.8158070  90.8586966
 120.3381544 142.0112760  78.0911710 120.5907064 141.4894281  77.3295173
 119.4006103 141.8478905  78.1938393 125.3824827 141.0148538  85.8986453
 126.1687916 140.5967961  85.5476870 125.6463531 141.9194630  86.0668101
 120.0577832 143.9140866  80.2936084 119.9414091 143.2385769  80.9617169
 120.1680092 143.4273239  79.4768238 122.4009373 143.3751013  83.9982774
 122.0367581 142.8481634  84.7095695 123.2576489 142.9849482  83.8249259
 128.3058674 134.6645345  91.2614040 127.9741999 135.5340756  91.0375255
 127.7104287 134.3481629  91.9408070 122.0414860 138.4040912  78.9944122
 122.2089263 139.2721149  79.3614593 121.8512029 138.5668194  78.0705411
 118.2502675 143.3171688  86.6946657 117.3253172 143.1847902  86.9024349
 118.4987088 144.0965907  87.1916599 128.1987337 139.3840431  88.3407390
 127.2904215 139.3155840  88.0466151 128.1474933 139.8612376  89.1689215
 122.0204081 140.8598570  79.9790789 121.9003706 141.3055621  80.8176269
 121.3256670 141.2083888  79.4204327 115.6111486 142.9604962  87.5290446
 115.7403867 143.2139441  88.4429858 114.9308937 143.5532670  87.2095101
 122.2728203 140.8030077  96.2842287 121.4961537 141.3623997  96.2745152
 122.9118766 141.2886860  96.8057157 130.0648984 137.5856870  90.1185264
 129.4223364 137.8789403  89.4725058 129.5603912 137.4709790  90.9238460
 120.5274575 143.6115530  95.8460254 121.2689260 144.1500574  95.5695078
 119.8211561 144.2381819  96.0031806 122.3560985 140.6917278  91.8165973
 123.2022180 141.1156691  91.9600622 122.2959623 140.0350902  92.5104536
 125.5060430 138.3521646  93.4747146 125.2621362 139.1063707  92.9381422
 125.7820361 138.7306994  94.3094393 125.0625122 137.5078079  89.0560984
 124.2009601 137.8059333  89.3477722 125.0887557 137.7248478  88.1242017
 118.7710773 145.5991751  88.4014553 119.3412130 146.0279019  87.7632037
 119.3618885 145.3174336  89.0998739 120.8155578 142.1743422  82.2724355
 121.5179621 142.6264466  82.7398281 120.4836206 141.5327241  82.9004248
 119.2635939 140.7655179  96.6475564 118.6334600 141.4471459  96.8810961
 119.1572027 140.6538260  95.7028702 114.5580912 140.4326975  87.5741488
 113.7679966 140.6884503  87.0981599 115.0492159 141.2475312  87.6793529
 116.5095657 140.7971554  84.5324965 115.7126820 140.9090248  85.0508461
 116.2821249 141.1358206  83.6665856 112.8418615 140.6857465  90.0056479
 113.0926653 141.5704475  90.2714055 113.3778163 140.5062067  89.2331571
 118.5416682 135.0675944  99.0100815 118.1483627 134.5142143  99.6848459
 119.3582822 135.3786523  99.4007333 115.5078740 146.5059803  82.9214385
 116.0203260 147.3003053  83.0719950 116.1601453 145.8086093  82.8547987
 121.4584643 136.4833824  96.6021072 122.1994356 137.0840977  96.5225534
 121.6902566 135.7411461  96.0439114 116.6025981 141.6690191  94.8799301
 116.4879496 140.7675448  95.1806400 115.7470499 141.9153888  94.5284118
 125.4041806 132.5114926  90.8785353 125.0606075 133.4016568  90.8024464
 125.7720768 132.3216584  90.0154938 113.4727656 144.8348457  83.6973956
 114.3102878 145.2445465  83.4807663 113.6505924 143.8947899  83.6674150
 122.9539200 137.3473238  84.4443027 122.0980796 136.9580089  84.2648666
 123.3666151 137.4265199  83.5842812 124.4838346 134.8819582  88.8434587
 123.9803142 134.8449717  88.0302392 124.7768953 135.7912324  88.9031243
 120.7281232 134.9658311  87.8500768 121.5934229 134.7701120  87.4906658
 120.7958741 134.7368663  88.7770125 125.1578392 140.3750630  81.2117570
 124.8528527 140.6896779  82.0627713 126.1108834 140.4532050  81.2544903
 118.3343551 137.1960519  85.2217135 118.9087303 136.9735701  84.4890328
 118.9214534 137.2649214  85.9745737 118.6613138 139.2264980  79.2413021
 117.8250451 139.5639667  79.5622295 118.5217908 139.0913960  78.3040158
 120.6366219 134.0701768  83.9492205 119.9830631 133.7550785  83.3248819
 120.5946693 133.4477509  84.6752028 121.7477424 144.3521063  75.8645497
 120.8404486 144.1210317  76.0636646 122.2448456 143.5558682  76.0519478
 123.8703959 140.5583702  88.2739852 122.9526521 140.7798649  88.1161540
 124.2864103 140.6330012  87.4151560 127.1017844 138.9932234  85.3861322
 126.3640601 138.4809620  85.7171564 127.3544618 138.5532615  84.5744599
 127.2029472 131.7708486  85.9803091 127.5088348 130.9105849  85.6929006
 127.9282076 132.3626106  85.7802085 113.4953828 142.1739172  84.3684689
 113.2978227 141.5808533  83.6435756 112.9400492 141.8691382  85.0860628
 121.4750551 142.0662279  86.4879282 121.5299161 141.1136115  86.4121759
 120.6641753 142.2221718  86.9720581 119.4142911 140.6839338  84.2469661
 118.6010777 140.9833509  84.6534853 119.9101905 140.2895027  84.9644143
 125.0117123 141.1481163  93.0784555 125.3666511 141.3752636  93.9379021
 125.6589254 141.4799540  92.4561810 118.9056986 138.2557694  89.8630896
 119.5456365 138.1146453  89.1653859 118.0734516 137.9692207  89.4869498
 115.9900053 141.7003206  82.0525641 115.0597641 141.6387662  82.2695603
 116.0857525 141.1779159  81.2562282 115.9085602 138.2258019  84.6403883
 116.1692420 139.1403352  84.5313043 116.7302775 137.7582462  84.7900496
 117.3810528 139.6395776  91.8102707 118.0533581 139.4313138  91.1615356
 116.5540314 139.4417862  91.3707940 123.2836100 136.2657717  93.8268368
 122.6364015 136.9647667  93.7332845 124.0537115 136.6993861  94.1944616
 117.7838025 142.9138379  92.5705145 117.6457823 142.1818618  93.1716684
 118.6942948 142.8247279  92.2889332 120.4120326 142.6258338  92.0588824
 121.1219944 141.9851531  92.0175443 120.3689634 142.8771233  92.9815005
 119.1249260 139.6123556  93.8784464 118.5886617 139.1614295  94.5306060
 118.5365968 139.7469465  93.1354928 118.5351519 139.0712208  76.4410927
 117.6580985 138.9501009  76.0773174 119.0109272 138.2798286  76.1889816
 110.0553659 143.8589367  86.5352434 110.7424699 143.5451097  85.9473450
 109.9001787 144.7630732  86.2619686 114.8588381 138.7479564  90.9637458
 114.7746570 138.1405234  90.2287868 114.0371087 139.2388582  90.9646954
 125.0312095 137.2333128  86.3307653 125.5280794 136.4803090  86.0108723
 124.2599076 137.2697444  85.7650863 121.6147063 139.3750511  86.0579338
 121.2444851 138.8221551  86.7460243 122.1106156 138.7708644  85.5054338
 127.4731089 134.2002721  88.4787012 126.5594169 134.4306948  88.6469219
 127.9024191 134.2841165  89.3301044 123.2925121 143.1312424  97.4652943
 122.6165758 143.0306553  98.1355318 124.1152755 142.9751638  97.9288940
 115.0403980 149.3684361  90.0865458 115.6257417 148.6228049  90.2193363
 114.8428819 149.6788317  90.9702122 109.6321635 141.9389961  88.8069902
 109.6705734 141.4053552  89.6007020 109.1261928 141.4125166  88.1880879
 117.0112397 136.7854501  92.3032444 117.0753724 137.6469332  91.8909842
 116.9479517 136.1728503  91.5704802 116.4864670 138.8577634  95.9505478
 117.1136708 138.4754711  96.5643002 115.6292588 138.6391836  96.3161171
 113.2630212 140.6654063  81.8823833 113.5583653 139.7564741  81.8290887
 112.3618248 140.6441802  81.5604835 116.7924459 138.7410060  87.8651382
 116.0711045 139.3546027  87.7258855 117.5817715 139.2767824  87.7868028
 119.5950773 136.0764486  94.1392033 120.1185175 136.3226783  94.9018343
 119.3763106 136.9084521  93.7195171 114.9918054 138.3468161  82.0063158
 114.6630760 137.4665540  81.8238264 115.3457425 138.2915829  82.8939547
 118.1059877 138.6341130  82.3738636 118.4455950 139.1627052  81.6517244
 118.5531998 138.9721537  83.1497202 120.8003318 137.0178181  91.8241704
 120.4600138 136.2185994  92.2262384 120.0942324 137.3179892  91.2518537
 121.4519790 134.1027494  90.2769027 122.2745859 133.6287972  90.1547917
 121.6957853 134.8817977  90.7767713 120.0928024 137.1315752  80.5731929
 120.8136387 137.5097005  80.0695645 119.4693328 137.8504629  80.6766907
 124.2359147 137.8360901  81.5090261 124.4522762 138.7185539  81.2079089
 123.7553214 137.4447114  80.7795903 118.9758369 140.7946614  88.0861005
 118.8302949 141.1086917  88.9785287 118.4983572 141.4131515  87.5331904
 120.8354751 137.7849162  88.1341895 120.8216320 136.8890256  87.7974193
 121.5527180 137.7919826  88.7680181 122.6880882 138.2186502  90.1795022
 122.4298660 139.1403573  90.1779353 122.1565923 137.8216937  90.8695487
 113.4504031 143.3351959  91.0248667 112.9057499 144.1111767  91.1568941
 114.3283381 143.6822763  90.8667788 120.2391647 136.6663542  83.4029465
 120.3607559 135.7380189  83.6020353 119.9493690 136.6802228  82.4907781
 123.1082838 134.3518453  86.5396185 123.1304535 134.4157786  85.5848165
 123.5250897 133.5122962  86.7336691 114.2370053 142.4621855  93.9178824
 113.4951789 142.6104490  94.5043454 113.9162797 142.7230120  93.0545573
 112.8835271 148.2673610  86.9078152 112.0467180 147.8395784  86.7262153
 112.8558917 148.4606053  87.8448943 119.7232727 138.1795540  97.6119398
 119.7720882 139.0557663  97.2297167 120.2655241 137.6372933  97.0391041
 121.9532015 138.9326912  94.3665756 121.0835325 139.2260478  94.0948345
 122.1891496 139.5167357  95.0873020 116.9674339 144.2782853  82.5006421
 116.7220381 143.3745183  82.6986631 117.1370254 144.2800003  81.5585899
 124.6571049 135.1506529  91.8831177 125.1752993 135.8867556  91.5577665
 124.3026182 135.4570522  92.7177936 116.2369987 140.0111210  79.9992583
 115.5439232 140.0855565  79.3432619 115.9921739 139.2471554  80.5214100
 124.9083643 131.5706812  87.4032073 125.1885397 130.9030001  88.0292500
 125.6934250 131.7635907  86.8906737 126.8006881 137.0780029  91.3363049
 126.2056813 137.3585042  90.6409538 126.5156578 137.5673930  92.1079791
 123.0963910 142.0826618  76.3073152 124.0423015 141.9532826  76.3761570
 122.7178155 141.3441280  76.7842580 129.0685795 133.7482624  86.2700044
 128.8710616 133.4397713  87.1543376 129.6785500 134.4744263  86.3997974
 121.2806827 140.0076595  76.2428037 120.3738283 139.7109707  76.3190751
 121.5582808 139.7106413  75.3762324 112.1984768 141.3282958  86.6927084
 111.8787552 140.4748266  86.4001458 111.6518196 141.5431536  87.4485051
 115.9764675 144.0445399  90.4096590 116.1950685 144.9762507  90.4284624
 116.3890449 143.6853374  91.1951394 122.8968893 134.5513484  82.3972279
 122.0869622 134.2060569  82.7727525 123.5853310 134.2421028  82.9859890
 124.8259441 133.6291531  84.0196575 125.3790480 134.0486985  84.6786598
 125.0629528 132.7027279  84.0619531 120.8492541 139.6178605  99.7999339
 120.7489268 140.5672962  99.7311430 120.6314083 139.2896844  98.9275409
 120.0505612 136.8663530  76.3840017 120.9124776 137.1918428  76.6435834
 120.2355956 136.0795026  75.8713082 112.0673028 144.9485870  88.6620205
 111.3736499 144.5339822  88.1490160 112.8146019 144.9906406  88.0653624
 128.2038249 135.7392056  83.5275240 127.6236918 136.3976860  83.1453292
 127.9374181 134.9169401  83.1162657 126.6541815 135.1397114  85.7296560
 127.1541593 135.2513649  84.9210879 127.2977423 134.8358167  86.3697368
 120.7123811 143.0475744  98.6164401 120.2290892 143.8476104  98.8228290
 120.7984750 143.0583689  97.6631845 113.9809770 144.8804123  86.5386220
 113.9580459 144.9791811  85.5868103 114.2910407 145.7269274  86.8603386
 116.6397148 146.9380278  90.6532835 117.5940402 146.9064221  90.5862766
 116.4409672 146.4770902  91.4683061 117.2296530 145.5081394  93.2203632
 118.0489419 146.0025473  93.2438470 117.5033338 144.5913363  93.1921200
 126.9863127 137.8992147  82.5831588 126.0988982 138.1841797  82.3651783
 127.4017116 137.7385910  81.7358865 130.3377663 137.9238668  86.2985927
 131.1138053 138.4135120  86.5710544 129.6125797 138.3496722  86.7557797
 112.4831445 139.8419528  93.9195829 113.1290308 139.3318482  94.4083055
 112.2748596 140.5788210  94.4939255 121.0035055 134.1059573  79.6719726
 120.9913725 135.0501413  79.8287997 121.8958477 133.9229718  79.3779187
 124.8187175 130.7002350  83.9265662 124.0519570 130.1460836  84.0722345
 125.2297880 130.7724218  84.7879814 116.8228936 136.9887145  98.0170844
 117.6860397 136.6323950  98.2274168 116.2494346 136.6501040  98.7046248
  39.1133523  -2.3376135  75.5478551  39.7511933  -2.4569387  74.8441891
  38.9954366  -1.3895291  75.6066503  35.9223230  -2.3848707  75.4840076
  35.5841741  -2.5007642  74.5960611  36.7912998  -2.7857542  75.4641082
  36.4043013  -1.2313855  81.4426282  36.3931653  -1.6261057  80.5706785
  36.5663652  -1.9647782  82.0360053  37.3609604   3.1357738  66.7851432
  36.7097584   3.7211818  66.3985446  38.1553967   3.6663932  66.8446469
  33.1250274   1.5523257  80.3905466  32.8340140   2.4568888  80.2752132
  33.7607258   1.5939785  81.1049535  38.6674792  -4.6124681  72.6231759
  39.4537881  -5.0305258  72.2722176  38.9313496  -3.7078589  72.7913408
  38.8384869   0.8248169  67.3220416  38.2030702   0.8982796  68.0341321
  38.5082276   1.4141768  66.6439495  44.0683219  -4.6749448  73.5264738
  44.8008391  -5.2450231  73.7602567  43.3122575  -5.0627847  73.9671243
  38.0840159   1.2384672  77.3855259  37.7840882   2.1409711  77.2771066
  37.7391218   0.9716856  78.2376412  33.0660939   8.0028993  70.3526227
  32.9884968   8.9536818  70.4314707  32.4622582   7.6574865  71.0101153
  41.0039113  -4.2953176  67.5316430  41.9156969  -4.0625789  67.3564127
  40.4948760  -3.7116132  66.9691508  39.2879880   0.1271452  81.1677722
  39.6963236  -0.3146137  80.4232355  38.5657142  -0.4475920  81.4211915
  39.6108695   0.6872643  74.9230011  38.9817558   0.8518357  74.2206079
  39.2234357   1.1014252  75.6940975  43.4897927   1.6227081  72.2774375
  42.8048965   2.0025982  71.7271408  43.5741776   2.2322407  73.0106323
  40.7448859  -0.7312960  78.8769718  40.9565754  -0.0881201  78.2004100
  40.6978607  -1.5650644  78.4091649  35.1636657   0.4247051  72.1880096
  35.6275002   0.7034754  71.3984719  34.8993455  -0.4769505  72.0053187
  32.0560738  -0.0281468  75.1259860  32.6262095   0.4005801  74.4877344
  32.6468850  -0.3098883  75.8244045  41.8594687   2.1458995  77.0492076
  42.6812130   1.7439182  76.7674757  41.8557089   2.0427229  78.0008192
  35.6251290   1.6943038  79.2052786  35.6895722   2.1563446  80.0410958
  34.9162214   1.0640403  79.3335096  49.9500680  -1.5102257  73.3977047
  49.1964388  -2.0794858  73.2421052  50.0848221  -1.5439592  74.3447682
  35.3399308   3.3611146  69.0731767  35.2044982   4.2062681  69.5016614
  35.8809120   3.5630423  68.3097700  30.6023590   3.9952340  71.7282445
  30.7790218   4.9170305  71.5403429  31.3980423   3.6810759  72.1576825
  36.9667784   3.9834712  83.2032109  36.5231638   3.1971091  82.8853013
  37.6284998   4.1713863  82.5376000  31.7254905   5.5130514  77.7292787
  32.2762330   5.3847577  76.9569781  30.8866381   5.8125403  77.3787680
  39.0649022   4.2637512  81.2313510  39.0467497   5.0846393  80.7393779
  39.9868942   4.1391587  81.4563651  35.5222076   1.7781642  82.0737018
  36.0550413   1.0169930  81.8436326  34.9936157   1.4855293  82.8161173
  38.6542054  -3.1249681  66.1103095  38.1388677  -2.3545077  66.3491483
  38.3819362  -3.7984545  66.7336157  43.6276328  -0.3717327  68.0456269
  42.8505771  -0.7106167  67.6011431  44.3067809  -0.3664703  67.3711234
  36.8874789   0.9067634  69.5855830  36.3596151   0.1720394  69.2729068
  36.3862292   1.6842311  69.3395799  41.8667635  -0.8983345  74.7022877
  41.2091309  -0.2084084  74.7903005  42.6708034  -0.5086913  75.0456863
  40.6773094  -2.5438973  72.7526818  41.1904976  -1.9108981  73.2548528
  41.3274318  -3.1437777  72.3870178  35.0327389  -1.2752156  62.5890803
  34.1254451  -1.5062902  62.7881952  35.5298421  -2.0714536  62.7764785
  37.9395468   7.4345352  65.5087490  37.2657167   7.7377048  66.1172447
  38.3261290   8.2374432  65.1592947  37.9388972  -3.6698101  70.1287839
  38.6860791  -3.1576704  69.8194961  38.2080562  -3.9914049  70.9892233
  36.2115623  -1.1739561  67.1114794  35.3026842  -1.4580528  67.2087263
  36.2410706  -0.7540482  66.2518100  41.4434890   2.4367029  70.8805961
  40.9897217   1.5957939  70.9371152  40.8128857   3.0728427  71.2180741
  39.8867829   4.2743525  71.8155779  40.1790804   4.8348583  71.0968145
  40.3966450   4.5672086  72.5708938  35.9091710   0.3669183  64.4502872
  35.4711140  -0.3494958  63.9908509  36.6502151   0.5945298  63.8887963
  34.8501454   5.0523877  72.9049232  34.8077633   5.2784723  71.9757764
  35.7664153   4.8187251  73.0535034  38.2967088  -4.4792056  79.8029862
  38.6516476  -4.2520583  80.6624327  38.9439219  -4.1473679  79.1807117
  44.0264825  -1.3573620  70.5079191  43.8882724  -1.1672024  69.5800380
  43.6701044  -0.5954237  70.9647242  44.0534205   0.7102907  75.5190462
  44.4870711   0.6178196  76.3673516  44.7665785   0.6860407  74.8810478
  32.9667255   1.9286906  72.7011195  33.7607854   1.4337226  72.4993770
  32.2558948   1.4004769  72.3378901  37.7862100   4.3105001  77.0523563
  37.8399122   4.8795937  77.8201279  36.9176881   4.4806886  76.6877600
  44.9149754   0.7526608  78.0523348  45.1085644   1.6572418  78.2982622
  44.8150372   0.2934027  78.8861933  39.9764863   0.9033350  83.6264228
  39.8250369   0.6743902  82.7094312  39.9669542   1.8603952  83.6395573
  36.7450199  -1.5234737  78.6110495  37.6742259  -1.3723577  78.4379462
  36.3241229  -1.4350716  77.7559141  35.5438531   2.5015928  76.3809032
  35.4049617   2.1334712  77.2534970  34.7553127   3.0163567  76.2092990
  36.1386683   7.6025024  67.7234569  36.3138439   7.1313067  68.5380191
  35.4519471   8.2290790  67.9515829  37.0943746   1.8797530  73.7697870
  36.7593579   1.8398300  74.6655520  36.5947692   1.2142246  73.2968280
  40.0302938  -0.7746435  64.0434930  39.4132109  -1.4999607  63.9467982
  39.5619426  -0.0137075  63.7002004  41.6857070   3.9352473  81.7040710
  41.6269616   3.2511693  81.0371293  42.0876588   4.6771463  81.2521336
  30.7047768  10.7514387  74.4974429  30.9444367  11.3832911  75.1753447
  29.8616965  10.4002427  74.7839788  41.6874477   1.8992057  79.9354690
  40.8001256   1.5617979  80.0581089  42.2573028   1.1675088  80.1723455
  35.2175630   6.5593509  76.9015933  35.1445802   7.3648481  77.4135237
  34.7753023   6.7585475  76.0763954  35.0065410   5.7965279  70.4118754
  34.2232932   6.3386959  70.5056979  35.7058155   6.3139259  70.8112996
  46.1691817  -2.6899726  74.6971251  46.1581694  -1.8075010  74.3265184
  45.3009197  -3.0428175  74.5025788  37.6774314   6.4580343  79.0574092
  38.3902286   7.0927808  78.9849993  37.1864342   6.5544209  78.2414093
  39.3991841   0.3631596  70.6291383  38.4648119   0.4833058  70.4596088
  39.5768509  -0.5395937  70.3651393  42.7864392  -3.7951085  71.1641417
  43.2524844  -2.9623093  71.0901720  43.2371893  -4.2606103  71.8686676
  32.7286227   4.2074787  79.8779662  33.4295687   4.8411270  80.0309057
  32.2581342   4.5489518  79.1175302  40.8540623   2.5492737  68.1627569
  41.1300467   2.4349331  69.0721443  39.9845122   2.1510221  68.1239743
  40.5287513  -3.2380606  77.7032213  39.8758964  -2.9904698  77.0484666
  40.9067893  -4.0516468  77.3694690  37.4894687   6.7979087  71.8060383
  37.6717082   5.9800743  72.2688135  38.3127673   7.0146780  71.3685273
  37.8236853   5.7247272  69.0675432  38.3524619   5.2139727  68.4545594
  38.0865072   5.4089803  69.9320965  36.5775086  -2.4960795  84.1898250
  35.9015723  -2.5966665  84.8600625  37.4002720  -2.6521581  84.6534247
  28.3253945   3.7411142  76.8110765  28.9107382   2.9954830  76.9438669
  28.1278784   4.0515098  77.6947429  31.1792601   6.7762389  71.8273207
  30.5102976   7.2608517  71.3437248  31.0405470   7.0231610  72.7416586
  35.3197869   8.8106133  78.4255866  35.8716177   8.9737754  79.1904951
  35.6604063   9.4010571  77.7535891  40.1708744   3.6367390  84.2804520
  40.7148648   4.2497348  83.7859475  39.5895588   4.1946969  84.7971533
  38.4566256   6.7588108  75.4119548  38.3317396   5.9577848  74.9030493
  39.1145348   7.2534302  74.9233518  40.5201165   4.5597128  77.0399098
  39.5731500   4.4402479  76.9677425  40.8683938   3.6719626  77.1225360
  37.5247598   4.3549845  73.2403450  37.3772561   3.4266552  73.4211020
  38.3501092   4.3769935  72.7560526  41.1281720   5.1778403  74.3268323
  42.0528267   4.9721265  74.1892774  40.9597023   4.9294804  75.2357665
  40.9177036   5.6964071  69.6830415  41.0913914   5.1310493  68.9304267
  41.4105927   6.4964966  69.5009904  46.7716427  -1.5399506  71.3020714
  47.2147573  -2.2892181  70.9039838  45.8942938  -1.5489370  70.9194446
  41.9052209   5.0130835  66.7827313  42.6003113   5.6337528  67.0014627
  42.2475359   4.1626186  67.0579691  43.8043632   2.4630541  68.3114644
  44.3294956   2.8017813  67.5863964  43.7165984   1.5277556  68.1277778
  35.4663681   6.3764614  80.4404520  35.7750807   6.1313761  81.3127220
  36.2639163   6.5811253  79.9523390  35.4884293   8.5302524  72.6709897
  35.0489283   8.0378903  73.3642753  36.2392410   7.9875492  72.4301972
  27.9676632   4.7214065  72.6734525  28.7934651   4.4217837  72.2933168
  27.6170684   3.9521687  73.1224313  32.9358165   4.0740533  74.7432198
  32.3138174   3.4111238  74.4434426  33.6063032   4.1001665  74.0605846
  43.4937538   3.0963444  83.6165842  42.7033082   3.0787583  83.0770341
  43.2570892   3.6351738  84.3714878  43.6135413  -0.0544089  80.9298570
  43.6633418  -0.2194082  81.8714093  43.5049336  -0.9216830  80.5396451
  32.4971672   2.6244456  68.2190659  32.6459792   3.3079921  67.5657332
  33.3038115   2.6049546  68.7340115  40.9039175  -4.0713161  82.2457877
  41.8049038  -4.2106696  81.9541875  40.9787150  -3.9058706  83.1856054
  45.1153610   2.3652852  81.1740592  44.8238418   2.7282833  82.0104053
  44.5025741   1.6519860  80.9953924  46.3149292  -0.0694268  73.6943162
  47.1496183   0.3695536  73.8580722  46.4508421  -0.5455615  72.8751408
  43.3640798  -2.5114533  79.6420650  43.8394920  -2.3186887  78.8339501
  42.4406363  -2.4555347  79.3964033  35.9967077   5.1192587  65.6902406
  35.4241044   5.7382774  65.2372878  36.5699871   5.6691948  66.2242328
  42.0642467  -5.6348773  77.8748955  43.0159890  -5.5350675  77.8961179
  41.8945917  -6.4270505  78.3847040  39.2164337   5.4029737  66.8210989
  40.1495010   5.3375299  67.0243864  39.1287550   6.2386004  66.3625521
  41.8452354   4.7195607  63.7814936  41.7665985   4.3855471  64.6750694
  42.6662020   5.2117375  63.7806409  44.5430545  -2.4142653  76.9891255
  44.5106865  -3.3526653  77.1750939  45.1531168  -2.3358617  76.2557080
  44.6925033  -5.6231610  77.0349538  44.1764082  -6.4073153  76.8479467
  45.5764982  -5.9512893  77.1996057  50.3607095  -1.3526647  76.1297292
  51.0910483  -1.6141358  76.6904995  49.7514040  -2.0897925  76.1699360
  48.4422392  -3.2118784  76.7271743  47.7155555  -3.3462819  76.1188234
  48.0269679  -2.9041955  77.5328461  36.2652568   0.5071146  84.4919116
  37.1855578   0.6849745  84.6859162  36.2302151  -0.4372809  84.3398815
  43.6227628  -7.7034551  73.0231234  44.3988018  -7.2138099  73.2955851
  42.8975762  -7.2776497  73.4803103  46.0600187  -6.9906932  74.0805174
  46.6544678  -7.2311196  73.3698483  46.1326770  -7.7099801  74.7078711
  28.2797342   6.8526679  74.3948339  28.1451810   6.0927080  73.8286337
  27.8629405   7.5767579  73.9277128  39.4156305   2.0363603  63.4024915
  40.1192156   2.2413605  64.0182570  38.6918954   2.6040365  63.6673998
  40.2454116  -2.2126536  69.5227185  40.1889317  -1.7557985  68.6834817
  40.7982458  -2.9735851  69.3450027  44.0558922  -6.4236804  70.3477304
  43.7995856  -6.8240169  71.1785512  43.4311790  -5.7093010  70.2227443
  48.3671259  -3.6840731  72.8548596  47.8070817  -3.6147542  73.6280158
  47.7614763  -3.8599746  72.1348092  31.4366468   7.7495996  74.6066782
  31.3198852   8.6941429  74.5045472  30.6158915   7.4469558  74.9952581
  41.3243003   2.4746132  65.4523375  42.1588607   2.0427330  65.2700849
  41.1627346   2.3028146  66.3800269  40.9788895  -1.0221755  66.8179714
  40.9237699  -1.1877483  65.8768158  40.3534950  -0.3145722  66.9741904
  38.2934802   1.2827157  86.1433277  39.1625962   1.4567809  85.7819912
  37.8141554   2.1021574  86.0209006  32.4620982   8.4024258  77.8222710
  33.3648229   8.4347868  78.1389205  32.2358352   7.4724709  77.8369046
  34.2174584   7.1555245  74.4832789  33.2670215   7.1557106  74.3697161
  34.5207071   6.4087979  73.9668824  46.7616984  12.9443211  75.4840076
  46.4235496  12.8284276  74.5960611  47.6306752  12.5434376  75.4641082
  42.6203800  14.7978687  71.4736967  42.0568665  14.7068624  70.7053255
  42.5056195  13.9778592  71.9539460  47.2436767  14.0978063  81.4426282
  47.2325408  13.7030861  80.5706785  47.4057407  13.3644135  82.0360053
  40.1668232  16.2929879  74.3121187  40.9589524  15.9520704  73.8967487
  40.4064882  16.4024854  75.2323341  48.2003359  18.4649655  66.7851432
  47.5491338  19.0503736  66.3985446  48.9947721  18.9955850  66.8446469
  42.1258986  15.5538792  67.1838566  42.8989862  15.0067779  67.0451442
  42.4784385  16.4183042  67.3953028  44.4625264  11.7131458  64.8157016
  44.7150784  11.1912980  64.0540479  43.5249823  11.5497604  64.9183700
  49.5068546  10.7167237  72.6231759  50.2931636  10.2986660  72.2722176
  49.7707251  11.6213329  72.7913408  49.6778624  16.1540087  67.3220416
  49.0424457  16.2274714  68.0341321  49.3476030  16.7433686  66.6439495
  54.9076974  10.6542470  73.5264738  55.6402145  10.0841687  73.7602567
  54.1516329  10.2664070  73.9671243  44.1821552  13.6159564  67.0181391
  44.0657810  12.9404468  67.6862475  44.2923812  13.1291938  66.2013544
  46.5253093  13.0769712  70.7228080  46.1611300  12.5500332  71.4341002
  47.3820209  12.6868181  70.5494566  52.4302394   4.3664044  77.9859346
  52.0985719   5.2359455  77.7620561  51.8348007   4.0500328  78.6653377
  46.1658580   8.1059611  65.7189429  46.3332983   8.9739848  66.0859900
  45.9755749   8.2686893  64.7950718  42.3746395  13.0190387  73.4191964
  41.4496891  12.8866601  73.6269655  42.6230808  13.7984606  73.9161906
  52.3231057   9.0859130  75.0652697  51.4147935   9.0174539  74.7711458
  52.2718653   9.5631075  75.8934522  46.1447801  10.5617269  66.7036096
  46.0247426  11.0074319  67.5421576  45.4500389  10.9102586  66.1449634
  39.7355206  12.6623661  74.2535753  39.8647587  12.9158139  75.1675164
  39.0552657  13.2551369  73.9340408  43.9054693  23.3320910  70.3526227
  43.8278723  24.2828736  70.4314707  43.3016337  22.9866783  71.0101153
  46.3971923  10.5048776  83.0087594  45.6205257  11.0642696  82.9990458
  47.0362486  10.9905559  83.5302464  54.1892704   7.2875569  76.8430570
  53.5467084   7.5808102  76.1970365  53.6847632   7.1728489  77.6483767
  51.8432867  11.0338742  67.5316430  52.7550723  11.2666129  67.3564127
  51.3342514  11.6175786  66.9691508  44.6518295  13.3134229  82.5705561
  45.3932980  13.8519273  82.2940384  43.9455281  13.9400518  82.7277113
  50.1273635  15.4563370  81.1677722  50.5356991  15.0145780  80.4232355
  49.4050896  14.8815997  81.4211915  46.4804705  10.3935976  78.5411279
  47.3265900  10.8175390  78.6845928  46.4203343   9.7369601  79.2349842
  49.6304150   8.0540345  80.1992453  49.3865082   8.8082405  79.6626729
  49.9064081   8.4325692  81.0339700  49.1868842   7.2096778  75.7806291
  48.3253321   7.5078031  76.0723028  49.2131277   7.4267177  74.8487323
  46.0030411  15.7538968  72.1880096  46.4668757  16.0326671  71.3984719
  45.7387210  14.8522413  72.0053187  44.9399298  11.8762121  68.9969661
  45.6423341  12.3283164  69.4643588  44.6079926  11.2345940  69.6249555
  43.3879659  10.4673877  83.3720871  42.7578320  11.1490158  83.6056268
  43.2815747  10.3556959  82.4274009  38.6824631  10.1345673  74.2986795
  37.8923685  10.3903202  73.8226906  39.1735879  10.9494011  74.4038836
  40.6339377  10.4990253  71.2570272  39.8370540  10.6108947  71.7753767
  40.4064969  10.8376905  70.3911162  36.9662334  10.3876164  76.7301786
  37.2170373  11.2723174  76.9959362  37.5021883  10.2080765  75.9576878
  60.7894434  13.8189661  73.3977047  60.0358142  13.2497059  73.2421052
  60.9241975  13.7852326  74.3447682  42.6660402   4.7694643  85.7346122
  42.2727347   4.2160842  86.4093766  43.4826542   5.0805222  86.1252639
  39.6322460  16.2078501  69.6459692  40.1446980  17.0021752  69.7965256
  40.2845172  15.5104792  69.5793293  41.4417344  19.3244258  71.7282445
  41.6183973  20.2462222  71.5403429  42.2374178  19.0102677  72.1576825
  45.5828363   6.1852522  83.3266378  46.3238076   6.7859676  83.2470841
  45.8146286   5.4430160  82.7684421  40.7269701  11.3708890  81.6044608
  40.6123216  10.4694147  81.9051707  39.8714219  11.6172586  81.2529425
  49.5285526   2.2133625  77.6030660  49.1849795   3.1035267  77.5269771
  49.8964488   2.0235283  76.7400245  37.5971376  14.5367156  70.4219262
  38.4346598  14.9464164  70.2052970  37.7749644  13.5966598  70.3919456
  49.4935808  12.2042236  66.1103095  48.9782432  12.9746841  66.3491483
  49.2213117  11.5307373  66.7336157  47.0782919   7.0491937  71.1688334
  46.2224516   6.6598788  70.9893972  47.4909871   7.1283898  70.3088119
  48.6082066   4.5838280  75.5679893  48.1046862   4.5468416  74.7547699
  48.9012673   5.4931023  75.6276550  44.8524952   4.6677010  74.5746075
  45.7177949   4.4719819  74.2151965  44.9202461   4.4387362  75.5015432
  54.4670083  14.9574591  68.0456269  53.6899525  14.6185751  67.6011431
  55.1461564  14.9627214  67.3711234  49.2822112  10.0769329  67.9362876
  48.9772247  10.3915478  68.7873020  50.2352554  10.1550748  67.9790209
  47.7268543  16.2359552  69.5855830  47.1989905  15.5012311  69.2729068
  47.2256046  17.0134228  69.3395799  42.4587271   6.8979218  71.9462442
  43.0331023   6.6754400  71.2135635  43.0458253   6.9667913  72.6991043
  51.5166848  12.7852945  72.7526818  52.0298730  13.4182937  73.2548528
  52.1668072  12.1854141  72.3870178  42.7856858   8.9283679  65.9658327
  41.9494170   9.2658366  66.2867602  42.6461628   8.7932659  65.0285464
  44.7609939   3.7720467  70.6737511  44.1074351   3.4569484  70.0494126
  44.7190413   3.1496207  71.3997334  45.8721144  14.0539762  62.5890803
  44.9648205  13.8229016  62.7881952  46.3692176  13.2577381  62.7764785
  47.9947679  10.2602401  74.9985159  47.0770240  10.4817348  74.8406847
  48.4107823  10.3348711  74.1396866  48.7782727  11.6593816  70.1287839
  49.5254546  12.1715213  69.8194961  49.0474316  11.3377869  70.9892233
  47.0509377  14.1552357  67.1114794  46.1420596  13.8711390  67.2087263
  47.0804461  14.5751436  66.2518100  51.2261564   8.6950932  72.1106629
  50.4884321   8.1828319  72.4416871  51.4788338   8.2551314  71.2989905
  51.3273191   1.4727185  72.7048398  51.6332068   0.6124548  72.4174313
  52.0525796   2.0644805  72.5047392  37.6197547  11.8757871  71.0929996
  37.4221947  11.2827232  70.3681062  37.0644211  11.5710081  71.8105935
  45.5994271  11.7680978  73.2124589  45.6542881  10.8154814  73.1367065
  44.7885473  11.9240417  73.6965887  46.7485465  15.6961101  64.4502872
  46.3104895  14.9796960  63.9908509  47.4895906  15.9237215  63.8887963
  43.5386631  10.3858037  70.9714968  42.7254497  10.6852208  71.3780160
  44.0345625   9.9913726  71.6889450  49.1360843  10.8499862  79.8029862
  49.4910230  11.0771335  80.6624327  49.7832974  11.1818239  79.1807117
  54.8658580  13.9718298  70.5079191  54.7276478  14.1619894  69.5800380
  54.5094798  14.7337680  70.9647242  43.0300706   7.9576393  76.5876203
  43.6700085   7.8165152  75.8899166  42.1978236   7.6710906  76.2114805
  43.8061010  17.2578823  72.7011195  44.6001608  16.7629143  72.4993770
  43.0952702  16.7296686  72.3378901  40.1143773  11.4021905  68.7770948
  39.1841361  11.3406360  68.9940910  40.2101245  10.8797858  67.9807589
  40.0329322   7.9276718  71.3649189  40.2936139   8.8422051  71.2558350
  40.8546495   7.4601160  71.5145802  41.5054248   9.3414475  78.5348014
  42.1777301   9.1331837  77.8860663  40.6784034   9.1436561  78.0953246
  47.4079820   5.9676416  80.5513675  46.7607735   6.6666366  80.4578151
  48.1780835   6.4012560  80.9189923  50.8158617  16.2325268  83.6264228
  50.6644124  16.0035820  82.7094312  50.8063297  17.1895870  83.6395573
  46.9780438  22.9316942  67.7234569  47.1532193  22.4604985  68.5380191
  46.2913226  23.5582708  67.9515829  41.9081745  12.6157078  79.2950451
  41.7701543  11.8837317  79.8961990  42.8186668  12.5265978  79.0134639
  50.8696692  14.5545482  64.0434930  50.2525863  13.8292310  63.9467982
  50.4013181  15.3154843  63.7002004  44.5364045  12.3277037  78.7834131
  45.2463664  11.6870229  78.7420749  44.4933354  12.5789932  79.7060312
  43.2492979   9.3142255  80.6029770  42.7130336   8.8632994  81.2551367
  42.6609688   9.4488164  79.8600235  41.5441523  26.0806304  74.4974429
  41.7838121  26.7124829  75.1753447  40.7010719  25.7294344  74.7839788
  42.6595238   8.7730907  63.1656234  41.7824705   8.6519707  62.8018481
  43.1352991   7.9816985  62.9135123  34.1797379  13.5608066  73.2597741
  34.8668418  13.2469796  72.6718756  34.0245507  14.4649431  72.9864993
  38.9832101   8.4498263  77.6882765  38.8990289   7.8423932  76.9533175
  38.1614807   8.9407281  77.6892261  49.1555815   6.9351826  73.0552960
  49.6524514   6.1821789  72.7354030  48.3842796   6.9716143  72.4896169
  57.0085572  12.6392192  74.6971251  56.9975448  13.5216907  74.3265184
  56.1402951  12.2863743  74.5025788  50.2385595  15.6923514  70.6291383
  49.3041874  15.8124976  70.4596088  50.4162264  14.7895980  70.3651393
  45.7390783   9.0769209  72.7824644  45.3688571   8.5240250  73.4705550
  46.2349876   8.4727343  72.2299644  53.6258147  11.5340833  71.1641417
  54.0918599  12.3668824  71.0901720  54.0765647  11.0685814  71.8686676
  51.5974809   3.9021420  75.2032319  50.6837889   4.1325647  75.3714526
  52.0267911   3.9859864  76.0546351  51.3681268  12.0911312  77.7032213
  50.7152718  12.3387219  77.0484666  51.7461648  11.2775450  77.3694690
  47.4168841  12.8331123  84.1898250  46.7409478  12.7325252  84.8600625
  48.2396475  12.6770337  84.6534247  39.1647700  19.0703059  76.8110765
  39.7501137  18.3246747  76.9438669  38.9672538  19.3807016  77.6947429
  42.0186355  22.1054307  71.8273207  41.3496730  22.5900434  71.3437248
  41.8799225  22.3523527  72.7416586  33.7565355  11.6408660  75.5315208
  33.7949454  11.1072250  76.3252326  33.2505647  11.1143865  74.9126185
  41.1356117   6.4873200  79.0277751  41.1997443   7.3488031  78.6155148
  41.0723237   5.8747202  78.2950109  40.6108389   8.5596333  82.6750785
  41.2380428   8.1773410  83.2888309  39.7536308   8.3410535  83.0406477
  37.3873932  10.3672762  68.6069140  37.6827373   9.4583440  68.5536193
  36.4861968  10.3460501  68.2850142  40.9168179   8.4428758  74.5896688
  40.1954765   9.0564726  74.4504162  41.7061435   8.9786523  74.5113334
  43.7194493   5.7783185  80.8637340  44.2428895   6.0245481  81.6263649
  43.5006826   6.6103220  80.4440477  39.1161774   8.0486859  68.7308465
  38.7874480   7.1684238  68.5483571  39.4701144   7.9934528  69.6184854
  42.2303597   8.3359829  69.0983942  42.5699669   8.8645751  68.3762551
  42.6775717   8.6740235  69.8742509  44.9247038   6.7196880  78.5487010
  44.5843858   5.9204693  78.9507690  44.2186044   7.0198591  77.9763844
  45.5763510   3.8046192  77.0014334  46.3989579   3.3306671  76.8793224
  45.8201573   4.5836676  77.5013020  44.2171744   6.8334451  67.2977235
  44.9380107   7.2115704  66.7940952  43.5937048   7.5523328  67.4012213
  48.3602867   7.5379600  68.2335568  48.5766481   8.4204238  67.9324396
  47.8796934   7.1465813  67.5041210  43.1002088  10.4965313  74.8106312
  42.9546669  10.8105616  75.7030594  42.6227292  11.1150213  74.2577211
  44.9598471   7.4867861  74.8587202  44.9460040   6.5908954  74.5219500
  45.6770899   7.4938525  75.4925488  46.8124602   7.9205201  76.9040329
  46.5542380   8.8422272  76.9024660  46.2809642   7.5235636  77.5940793
  37.5747751  13.0370657  77.7493973  37.0301219  13.8130465  77.8814248
  38.4527100  13.3841462  77.5913095  44.3635367   6.3682241  70.1274772
  44.4851278   5.4398888  70.3265659  44.0737410   6.3820927  69.2153087
  47.2326558   4.0537152  73.2641492  47.2548254   4.1176485  72.3093471
  47.6494617   3.2141660  73.4581998  57.6110182  13.7892411  71.3020714
  58.0541328  13.0399737  70.9039838  56.7336692  13.7802548  70.9194446
  52.7445963  20.3422753  66.7827313  53.4396868  20.9629445  67.0014627
  53.0869113  19.4918104  67.0579691  38.3613772  12.1640554  80.6424130
  37.6195508  12.3123189  81.2288761  38.0406517  12.4248819  79.7790880
  54.6437386  17.7922458  68.3114644  55.1688710  18.1309731  67.5863964
  54.5559739  16.8569474  68.1277778  38.8070386  20.0505982  72.6734525
  39.6328406  19.7509754  72.2933168  38.4564438  19.2813605  73.1224313
  37.0078991  17.9692309  73.6323458  36.1710899  17.5414483  73.4507460
  36.9802637  18.1624752  74.5694250  43.8476447   7.8814239  84.3364704
  43.8964602   8.7576362  83.9542474  44.3898961   7.3391632  83.7636348
  54.3331292  18.4255362  83.6165842  53.5426836  18.4079501  83.0770341
  54.0964647  18.9643656  84.3714878  43.3365426  17.9536374  68.2190659
  43.4853547  18.6371838  67.5657332  44.1431870  17.9341464  68.7340115
  51.7432930  11.2578756  82.2457877  52.6442793  11.1185221  81.9541875
  51.8180904  11.4233211  83.1856054  46.0775735   8.6345611  81.0911063
  45.2079045   8.9279177  80.8193652  46.3135216   9.2186056  81.8118327
  57.1543047  15.2597650  73.6943162  57.9889938  15.6987454  73.8580722
  57.2902175  14.7836303  72.8751408  54.2034553  12.8177384  79.6420650
  54.6788674  13.0105031  78.8339501  53.2800118  12.8736570  79.3964033
  41.0918059  13.9801552  69.2251728  40.8464101  13.0763882  69.4231938
  41.2613974  13.9818702  68.2831206  48.7814769   4.8525228  78.6076483
  49.2996713   5.5886255  78.2822972  48.4269902   5.1589221  79.4423243
  40.3613707   9.7129909  66.7237889  39.6682952   9.7874264  66.0677925
  40.1165459   8.9490253  67.2459406  49.0327363   1.2725511  74.1277380
  49.3129117   0.6048700  74.7537807  49.8177970   1.4654606  73.6152044
  46.8360832  20.4484504  65.6902406  46.2634799  21.0674692  65.2372878
  47.4093625  20.9983866  66.2242328  52.9036222   9.6943145  77.8748955
  53.8553644   9.7941242  77.8961179  52.7339672   8.9021413  78.3847040
  50.9250601   6.7798728  78.0608356  50.3300533   7.0603740  77.3654845
  50.6400298   7.2692629  78.8325097  52.6846108  20.0487525  63.7814936
  52.6059740  19.7147389  64.6750694  53.5055775  20.5409293  63.7806409
  55.3824299  12.9149264  76.9891255  55.3500619  11.9765265  77.1750939
  55.9924923  12.9933301  76.2557080  47.2207630  11.7845317  63.0318459
  48.1666735  11.6551525  63.1006877  46.8421875  11.0459979  63.5087887
  55.5318788   9.7060308  77.0349538  55.0157836   8.9218764  76.8479467
  56.4158736   9.3779024  77.1996057  53.1929515   3.4501323  72.9945351
  52.9954336   3.1416411  73.8788683  53.8029220   4.1762962  73.1243281
  61.2000849  13.9765271  76.1297292  61.9304238  13.7150559  76.6904995
  60.5907795  13.2393993  76.1699360  59.2816146  12.1173134  76.7271743
  58.5549310  11.9829099  76.1188234  58.8663433  12.4249962  77.5328461
  47.1046323  15.8363063  84.4919116  48.0249332  16.0141662  84.6859162
  47.0695906  14.8919109  84.3398815  45.4050547   9.7095294  62.9673344
  44.4982003   9.4128406  63.0436058  45.6826528   9.4125112  62.1007630
  36.3228488  11.0301657  73.4172390  36.0031272  10.1766965  73.1246764
  35.7761916  11.2450235  74.1730358  40.1008395  13.7464098  77.1341897
  40.3194405  14.6781206  77.1529931  40.5134169  13.3872072  77.9196701
  47.0212613   4.2532183  69.1217585  46.2113341   3.9079268  69.4972831
  47.7097030   3.9439727  69.7105197  48.9503161   3.3310230  70.7441882
  49.5034200   3.7505684  71.4031905  49.1873248   2.4045978  70.7864838
  44.9736261   9.3197304  86.5244646  44.8732987  10.2691661  86.4556737
  44.7557803   8.9915543  85.6520716  44.1749332   6.5682229  63.1085323
  45.0368496   6.8937127  63.3681141  44.3599676   5.7813725  62.5958389
  36.1916748  14.6504569  75.3865512  35.4980219  14.2358521  74.8735466
  36.9389739  14.6925105  74.7898931  52.3281968   5.4410755  70.2520546
  51.7480637   6.0995559  69.8698599  52.0617901   4.6188100  69.8407964
  50.7785535   4.8415813  72.4541867  51.2785313   4.9532348  71.6456185
  51.4221143   4.5376866  73.0942675  44.8367531  12.7494443  85.3409708
  44.3534612  13.5494803  85.5473597  44.9228470  12.7602387  84.3877152
  38.1053490  14.5822822  73.2631527  38.0824178  14.6810510  72.3113410
  38.4154127  15.4287973  73.5848693  41.3540250  15.2100093  79.9448939
  42.1733139  15.7044172  79.9683776  41.6277058  14.2932061  79.9166507
  51.1106846   7.6010846  69.3076895  50.2232701   7.8860496  69.0897089
  51.5260836   7.4404609  68.4604171  54.4621383   7.6257367  73.0231234
  55.2381773   8.1153819  73.2955851  53.7369517   8.0515421  73.4803103
  56.8993941   8.3384986  74.0805174  57.4938432   8.0980722  73.3698483
  56.9720525   7.6192116  74.7078711  39.1191097  22.1818597  74.3948339
  38.9845565  21.4218998  73.8286337  38.7023159  22.9059497  73.9277128
  50.2550060  17.3655520  63.4024915  50.9585910  17.5705523  64.0182570
  49.5312709  17.9332282  63.6673998  51.0847870  13.1165382  69.5227185
  51.0283072  13.5733933  68.6834817  51.6376213  12.3556066  69.3450027
  54.8952676   8.9055113  70.3477304  54.6389610   8.5051749  71.1785512
  54.2705544   9.6198907  70.2227443  59.2065014  11.6451187  72.8548596
  58.6464572  11.7144376  73.6280158  58.6008517  11.4692171  72.1348092
  42.2760223  23.0787914  74.6066782  42.1592607  24.0233346  74.5045472
  41.4552669  22.7761475  74.9952581  52.1636757  17.8038050  65.4523375
  52.9982361  17.3719248  65.2700849  52.0021100  17.6320063  66.3800269
  51.8182649  14.3070163  66.8179714  51.7631453  14.1414434  65.8768158
  51.1928705  15.0146196  66.9741904  36.6075164   9.5438227  80.6441136
  37.2534028   9.0337181  81.1328361  36.3992316  10.2806909  81.2184561
  49.1328557  16.6119075  86.1433277  50.0019716  16.7859727  85.7819912
  48.6535308  17.4313492  86.0209006  45.1278775   3.8078272  66.3965032
  45.1157445   4.7520112  66.5533303  46.0202197   3.6248417  66.1024493
  48.9430894   0.4021048  70.6510969  48.1763290  -0.1520465  70.7967651
  49.3541599   0.4742917  71.5125121  40.9472655   6.6905844  84.7416150
  41.8104117   6.3342649  84.9519475  40.3738066   6.3519739  85.4291555
  52.9652740  30.8830710  67.1838566  53.7383616  30.3359697  67.0451442
  53.3178139  31.7474959  67.3953028  55.3019018  27.0423376  64.8157016
  55.5544539  26.5204897  64.0540479  54.3643577  26.8789522  64.9183700
  55.0215307  28.9451482  67.0181391  54.9051565  28.2696385  67.6862475
  55.1317567  28.4583856  66.2013544  57.0052335  23.4351529  65.7189429
  57.1726737  24.3031765  66.0859900  56.8149504  23.5978811  64.7950718
  56.9841556  25.8909186  66.7036096  56.8641181  26.3366237  67.5421576
  56.2894144  26.2394504  66.1449634  71.6288189  29.1481579  73.3977047
  70.8751897  28.5788977  73.2421052  71.7635730  29.1144243  74.3447682
  53.5054156  20.0986561  85.7346122  53.1121102  19.5452760  86.4093766
  54.3220297  20.4097139  86.1252639  48.4365131  29.8659073  70.4219262
  49.2740353  30.2756082  70.2052970  48.6143398  28.9258516  70.3919456
  56.7114898  29.3831680  62.5890803  55.8041960  29.1520933  62.7881952
  57.2085930  28.5869299  62.7764785  57.8903132  29.4844275  67.1114794
  56.9814351  29.2003307  67.2087263  57.9198215  29.9043353  66.2518100
  62.1666946  16.8019102  72.7048398  62.4725823  15.9416466  72.4174313
  62.8919551  17.3936722  72.5047392  57.5879219  31.0253018  64.4502872
  57.1498649  30.3088877  63.9908509  58.3289660  31.2529133  63.8887963
  53.4988993  24.1022824  63.1656234  52.6218459  23.9811625  62.8018481
  53.9746746  23.3108903  62.9135123  45.0191133  28.8899984  73.2597741
  45.7062173  28.5761714  72.6718756  44.8639262  29.7941349  72.9864993
  48.2267687  25.6964680  68.6069140  48.5221128  24.7875358  68.5536193
  47.3255722  25.6752419  68.2850142  49.6464141  35.3797900  72.6734525
  50.4722160  35.0801672  72.2933168  49.2958193  34.6105523  73.1224313
  47.8472746  33.2984227  73.6323458  47.0104654  32.8706401  73.4507460
  47.8196391  33.4916670  74.5694250  59.8721118  16.6017428  74.1277380
  60.1522871  15.9340617  74.7537807  60.6571725  16.7946524  73.6152044
  63.5239863  35.3779443  63.7814936  63.4453494  35.0439306  64.6750694
  64.3449529  35.8701211  63.7806409  58.0601385  27.1137235  63.0318459
  59.0060489  26.9843443  63.1006877  57.6815630  26.3751897  63.5087887
  56.2444302  25.0387211  62.9673344  55.3375757  24.7420324  63.0436058
  56.5220283  24.7417029  62.1007630  47.1622242  26.3593575  73.4172390
  46.8425027  25.5058883  73.1246764  46.6155670  26.5742153  74.1730358
  57.8606368  19.5824101  69.1217585  57.0507096  19.2371186  69.4972831
  58.5490784  19.2731645  69.7105197  55.0143086  21.8974147  63.1085323
  55.8762250  22.2229045  63.3681141  55.1993431  21.1105642  62.5958389
  61.0943814  32.6947438  63.4024915  61.7979665  32.8997441  64.0182570
  60.3706463  33.2624200  63.6673998  55.9672529  19.1370190  66.3965032
  55.9551199  20.0812029  66.5533303  56.8595951  18.9540335  66.1024493
  59.7824649  15.7312966  70.6510969  59.0157045  15.1771453  70.7967651
  60.1935354  15.8034835  71.5125121  63.8046495  46.2122628  67.1838566
  64.5777371  45.6651615  67.0451442  64.1571894  47.0766877  67.3953028
  66.1412773  42.3715294  64.8157016  66.3938293  41.8496815  64.0540479
  65.2037332  42.2081439  64.9183700  65.8609061  44.2743400  67.0181391
  65.7445319  43.5988303  67.6862475  65.9711321  43.7875774  66.2013544
  67.8446089  38.7643447  65.7189429  68.0120492  39.6323683  66.0859900
  67.6543258  38.9270728  64.7950718  67.8235310  41.2201104  66.7036096
  67.7034935  41.6658155  67.5421576  67.1287898  41.5686422  66.1449634
  65.5842202  53.9904746  70.3526227  65.5066232  54.9412571  70.4314707
  64.9803846  53.6450618  71.0101153  73.5220376  41.6922577  67.5316430
  74.4338232  41.9249964  67.3564127  73.0130023  42.2759621  66.9691508
  67.6817920  46.4122804  72.1880096  68.1456266  46.6910507  71.3984719
  67.4174719  45.5106248  72.0053187  66.6186806  42.5345956  68.9969661
  67.3210850  42.9867000  69.4643588  66.2867435  41.8929775  69.6249555
  67.8580571  49.3486899  69.0731767  67.7226246  50.1938435  69.5016614
  68.3990384  49.5506176  68.3097700  71.1723317  42.8626072  66.1103095
  70.6569941  43.6330676  66.3491483  70.9000626  42.1891208  66.7336157
  64.4644367  39.5867514  65.9658327  63.6281679  39.9242201  66.2867602
  64.3249137  39.4516494  65.0285464  67.5508653  44.7123597  62.5890803
  66.6435714  44.4812851  62.7881952  68.0479685  43.9161217  62.7764785
  68.7296886  44.8136192  67.1114794  67.8208105  44.5295225  67.2087263
  68.7591970  45.2335271  66.2518100  73.0060700  32.1311020  72.7048398
  73.3119577  31.2708383  72.4174313  73.7313305  32.7228640  72.5047392
  65.4848519  47.9162659  72.7011195  66.2789117  47.4212979  72.4993770
  64.7740211  47.3880522  72.3378901  64.3382747  39.4314742  63.1656234
  63.4612214  39.3103543  62.8018481  64.8140500  38.6400820  62.9135123
  75.3045656  42.1924668  71.1641417  75.7706108  43.0252660  71.0901720
  75.7553156  41.7269650  71.8686676  63.6973864  52.7638142  71.8273207
  63.0284239  53.2484270  71.3437248  63.5586734  53.0107363  72.7416586
  65.8959253  37.4918286  67.2977235  66.6167616  37.8699539  66.7940952
  65.2724557  38.2107163  67.4012213  70.0390376  38.1963435  68.2335568
  70.2553990  39.0788073  67.9324396  69.5584443  37.8049649  67.5041210
  65.0152935  48.6120209  68.2190659  65.1641055  49.2955674  67.5657332
  65.8219379  48.5925299  68.7340115  62.7705568  44.6385387  69.2251728
  62.5251610  43.7347717  69.4231938  62.9401483  44.6402537  68.2831206
  62.0401216  40.3713745  66.7237889  61.3470461  40.4458100  66.0677925
  61.7952968  39.6074088  67.2459406  68.8995139  42.4429153  63.0318459
  69.8454244  42.3135361  63.1006877  68.5209384  41.7043814  63.5087887
  74.8717024  34.1085159  72.9945351  74.6741845  33.8000247  73.8788683
  75.4816729  34.8346798  73.1243281  67.0838056  40.3679129  62.9673344
  66.1769512  40.0712242  63.0436058  67.3614037  40.0708947  62.1007630
  68.7000122  34.9116019  69.1217585  67.8900850  34.5663104  69.4972831
  69.3884539  34.6023562  69.7105197  65.8536841  37.2266064  63.1085323
  66.7156005  37.5520962  63.3681141  66.0387185  36.4397560  62.5958389
  74.0069477  36.0994591  70.2520546  73.4268146  36.7579395  69.8698599
  73.7405410  35.2771935  69.8407964  72.4573044  35.4999648  72.4541867
  72.9572822  35.6116183  71.6456185  73.1008652  35.1960701  73.0942675
  72.7894355  38.2594681  69.3076895  71.9020210  38.5444332  69.0897089
  73.2048344  38.0988444  68.4604171  76.1408892  38.2841202  73.0231234
  76.9169282  38.7737654  73.2955851  75.4157026  38.7099256  73.4803103
  78.5781450  38.9968821  74.0805174  79.1725941  38.7564557  73.3698483
  78.6508034  38.2775952  74.7078711  76.5740185  39.5638949  70.3477304
  76.3177119  39.1635584  71.1785512  75.9493053  40.2782743  70.2227443
  66.8066284  34.4662107  66.3965032  66.7944954  35.4103947  66.5533303
  67.6989706  34.2832253  66.1024493  93.7182113  59.9641024  76.1297292
  94.4485501  59.7026312  76.6904995  93.1089058  59.2269746  76.1699360
  95.7877412  65.6831715  77.9859346  95.4560737  66.5527126  77.7620561
  95.1923025  65.3667999  78.6653377  92.8860544  63.5301296  77.6030660
  92.5424813  64.4202938  77.5269771  93.2539506  63.3402954  76.7400245
  92.1389787  66.1692899  78.6076483  92.6571731  66.9053926  78.2822972
  91.7844920  66.4756892  79.4423243  94.2825619  68.0966398  78.0608356
  93.6875551  68.3771411  77.3654845  93.9975316  68.5860299  78.8325097
 106.9414736  96.9882341  66.7827313 107.6365640  97.6089034  67.0014627
 107.2837886  96.1377692  67.0579691 106.8814881  96.6947113  63.7814936
 106.8028512  96.3606977  64.6750694 107.7024547  97.1868881  63.7806409
 113.2365886 110.4401161  66.7851432 112.5853865 111.0255242  66.3985446
 114.0310248 110.9707356  66.8446469 109.4987791 103.6882965  64.8157016
 109.7513311 103.1664486  64.0540479 108.5612350 103.5249110  64.9183700
 114.7141151 108.1291593  67.3220416 114.0786984 108.2026220  68.0341321
 114.3838557 108.7185192  66.6439495 119.9439500 102.6293976  73.5264738
 120.6764672 102.0593193  73.7602567 119.1878856 102.2415577  73.9671243
 109.2184079 105.5911070  67.0181391 109.1020337 104.9155974  67.6862475
 109.3286339 105.1043444  66.2013544 111.2021107 100.0811117  65.7189429
 111.3695510 100.9491354  66.0859900 111.0118276 100.2438399  64.7950718
 117.3593584 101.0610636  75.0652697 116.4510461 100.9926045  74.7711458
 117.3081180 101.5382581  75.8934522 111.1810328 102.5368775  66.7036096
 111.0609953 102.9825826  67.5421576 110.4862916 102.8854092  66.1449634
 116.8795394 103.0090248  67.5316430 117.7913250 103.2417635  67.3564127
 116.3705041 103.5927292  66.9691508 119.3654208 108.9270504  72.2774375
 118.6805247 109.3069406  71.7271408 119.4498058 109.5365831  73.0106323
 125.8256961 105.7941167  73.3977047 125.0720669 105.2248565  73.2421052
 125.9604502 105.7603832  74.3447682 111.2155589 110.6654569  69.0731767
 111.0801264 111.5106105  69.5016614 111.7565402 110.8673847  68.3097700
 114.5298335 104.1793742  66.1103095 114.0144959 104.9498347  66.3491483
 114.2575644 103.5058879  66.7336157 112.1145446  99.0243443  71.1688334
 111.2587043  98.6350294  70.9893972 112.5272398  99.1035404  70.3088119
 119.5032609 106.9326097  68.0456269 118.7262052 106.5937257  67.6011431
 120.1824090 106.9378720  67.3711234 114.3184639 102.0520835  67.9362876
 114.0134774 102.3666984  68.7873020 115.2715081 102.1302254  67.9790209
 112.7631070 108.2111058  69.5855830 112.2352432 107.4763817  69.2729068
 112.2618573 108.9885734  69.3395799 109.7972466  95.7471973  70.6737511
 109.1436878  95.4320990  70.0494126 109.7552940  95.1247714  71.3997334
 110.9083671 106.0291268  62.5890803 110.0010732 105.7980522  62.7881952
 111.4054703 105.2328887  62.7764785 113.8151749 114.7388775  65.5087490
 113.1413448 115.0420472  66.1172447 114.2017571 115.5417856  65.1592947
 113.8145254 103.6345322  70.1287839 114.5617073 104.1466720  69.8194961
 114.0836843 103.3129375  70.9892233 112.0871904 106.1303863  67.1114794
 111.1783123 105.8462896  67.2087263 112.1166988 106.5502942  66.2518100
 117.3191171 109.7410453  70.8805961 116.8653498 108.9001362  70.9371152
 116.6885138 110.3771851  71.2180741 116.2624091 100.6702439  72.1106629
 115.5246848 100.1579825  72.4416871 116.5150864 100.2302820  71.2989905
 115.7624111 111.5786949  71.8155779 116.0547085 112.1392006  71.0968145
 116.2722731 111.8715510  72.5708938 111.7847992 107.6712607  64.4502872
 111.3467422 106.9548466  63.9908509 112.5258433 107.8988722  63.8887963
 119.9021107 105.9469804  70.5079191 119.7639005 106.1371400  69.5800380
 119.5457325 106.7089187  70.9647242 112.0142965 114.9068448  67.7234569
 112.1894720 114.4356491  68.5380191 111.3275753 115.5334214  67.9515829
 115.9059219 106.5296988  64.0434930 115.2888390 105.8043817  63.9467982
 115.4375708 107.2906349  63.7002004 107.6957765 100.7482413  63.1656234
 106.8187232 100.6271213  62.8018481 108.1715518  99.9568491  62.9135123
 114.1918341  98.9103332  73.0552960 114.6887041  98.1573295  72.7354030
 113.4205323  98.9467649  72.4896169 122.0448099 104.6143698  74.6971251
 122.0337975 105.4968413  74.3265184 121.1765478 104.2615249  74.5025788
 115.2748122 107.6675020  70.6291383 114.3404401 107.7876482  70.4596088
 115.4524791 106.7647486  70.3651393 118.6620673 103.5092339  71.1641417
 119.1281126 104.3420331  71.0901720 119.1128174 103.0437321  71.8686676
 116.7296905 109.8536160  68.1627569 117.0056749 109.7392755  69.0721443
 115.8601403 109.4553645  68.1239743 113.6993134 113.0290696  69.0675432
 114.2280901 112.5183151  68.4545594 113.9621354 112.7133226  69.9320965
 109.2534271  98.8085957  67.2977235 109.9742634  99.1867210  66.7940952
 108.6299575  99.5274834  67.4012213 113.3965394  99.5131106  68.2335568
 113.6129008 100.3955744  67.9324396 112.9159461  99.1217319  67.5041210
 116.7933318 113.0007494  69.6830415 116.9670195 112.4353917  68.9304267
 117.2862209 113.8008389  69.5009904 112.2689085  96.0288658  73.2641492
 112.2910781  96.0927991  72.3093471 112.6857144  95.1893166  73.4581998
 122.6472709 105.7643917  71.3020714 123.0903855 105.0151243  70.9039838
 121.7699219 105.7554054  70.9194446 117.7808490 112.3174259  66.7827313
 118.4759395 112.9380952  67.0014627 118.1231640 111.4669610  67.0579691
 119.6799913 109.7673964  68.3114644 120.2051237 110.1061237  67.5863964
 119.5922266 108.8320980  68.1277778 108.3727953 109.9287880  68.2190659
 108.5216073 110.6123344  67.5657332 109.1794397 109.9092970  68.7340115
 111.8723359 112.4236011  65.6902406 111.2997326 113.0426198  65.2372878
 112.4456152 112.9735372  66.2242328 115.0920618 112.7073161  66.8210989
 116.0251292 112.6418722  67.0243864 115.0043831 113.5429428  66.3625521
 117.7208635 112.0239031  63.7814936 117.6422267 111.6898895  64.6750694
 118.5418302 112.5160799  63.7806409 112.2570157 103.7596823  63.0318459
 113.2029262 103.6303031  63.1006877 111.8784402 103.0211485  63.5087887
 124.3178673 104.0924640  76.7271743 123.5911837 103.9580605  76.1188234
 123.9025960 104.4001468  77.5328461 110.4413074 101.6846800  62.9673344
 109.5344530 101.3879912  63.0436058 110.7189055 101.3876618  62.1007630
 109.2111859  98.5433735  63.1085323 110.0731023  98.8688633  63.3681141
 109.3962203  97.7565231  62.5958389 117.3644495  97.4162261  70.2520546
 116.7843164  98.0747065  69.8698599 117.0980428  96.5939606  69.8407964
 115.8148062  96.8167319  72.4541867 116.3147840  96.9283854  71.6456185
 116.4583670  96.5128372  73.0942675 116.1469373  99.5762352  69.3076895
 115.2595228  99.8612002  69.0897089 116.5623362  99.4156115  68.4604171
 119.4983910  99.6008873  73.0231234 120.2744300 100.0905325  73.2955851
 118.7732044 100.0266927  73.4803103 121.9356468 100.3136492  74.0805174
 122.5300959 100.0732228  73.3698483 122.0083052  99.5943622  74.7078711
 115.2912587 109.3407026  63.4024915 115.9948437 109.5457029  64.0182570
 114.5675236 109.9083788  63.6673998 116.1210397 105.0916888  69.5227185
 116.0645599 105.5485439  68.6834817 116.6738740 104.3307572  69.3450027
 119.9315203 100.8806620  70.3477304 119.6752137 100.4803255  71.1785512
 119.3068071 101.5950413  70.2227443 124.2427541 103.6202693  72.8548596
 123.6827099 103.6895882  73.6280158 123.6371044 103.4443677  72.1348092
 117.1999284 109.7789556  65.4523375 118.0344888 109.3470754  65.2700849
 117.0383627 109.6071569  66.3800269 116.8545176 106.2821669  66.8179714
 116.7993980 106.1165940  65.8768158 116.2291232 106.9897702  66.9741904
 125.8283559 120.2959207  75.5478551 126.4661969 120.1765954  74.8441891
 125.7104402 121.2440051  75.6066503 122.6373266 120.2486635  75.4840076
 122.2991777 120.1327700  74.5960611 123.5063034 119.8477800  75.4641082
 118.4960081 122.1022111  71.4736967 117.9324946 122.0112048  70.7053255
 118.3812476 121.2822016  71.9539460 123.1193049 121.4021487  81.4426282
 123.1081689 121.0074285  80.5706785 123.2813688 120.6687559  82.0360053
 116.0424513 123.5973303  74.3121187 116.8345805 123.2564127  73.8967487
 116.2821163 123.7068278  75.2323341 124.0759640 125.7693079  66.7851432
 123.4247620 126.3547159  66.3985446 124.8704003 126.2999274  66.8446469
 118.0015267 122.8582216  67.1838566 118.7746143 122.3111203  67.0451442
 118.3540666 123.7226465  67.3953028 119.8400310 124.1858598  80.3905466
 119.5490176 125.0904229  80.2752132 120.4757294 124.2275126  81.1049535
 120.7656517 121.5635447  76.9806825 121.3620089 121.3391469  76.2663788
 120.8231488 120.8220192  77.5832273 120.3381545 119.0174882  64.8157016
 120.5907066 118.4956403  64.0540479 119.4006104 118.8541028  64.9183700
 125.5534905 123.4583511  67.3220416 124.9180738 123.5318137  68.0341321
 125.2232312 124.0477110  66.6439495 130.7833255 117.9585894  73.5264738
 131.5158427 117.3885111  73.7602567 130.0272611 117.5707494  73.9671243
 120.0577834 120.9202988  67.0181391 119.9414092 120.2447892  67.6862475
 120.1680094 120.4335362  66.2013544 122.4009375 120.3813135  70.7228080
 122.0367582 119.8543756  71.4341002 123.2576491 119.9911604  70.5494566
 122.0414862 115.4103035  65.7189429 122.2089264 116.2783271  66.0859900
 121.8512031 115.5730317  64.7950718 124.7990195 123.8720014  77.3855259
 124.4990918 124.7745053  77.2771066 124.4541254 123.6052197  78.2376412
 118.2502676 120.3233811  73.4191964 117.3253173 120.1910025  73.6269655
 118.4987090 121.1028030  73.9161906 122.0204083 117.8660692  66.7036096
 121.9003708 118.3117743  67.5421576 121.3256671 118.2146010  66.1449634
 115.6111487 119.9667084  74.2535753 115.7403869 120.2201563  75.1675164
 114.9308939 120.5594792  73.9340408 119.7810975 130.6364334  70.3526227
 119.7035004 131.5872159  70.4314707 119.1772618 130.2910207  71.0101153
 127.7189149 118.3382166  67.5316430 128.6307005 118.5709552  67.3564127
 127.2098796 118.9219210  66.9691508 120.5274577 120.6177653  82.5705561
 121.2689261 121.1562697  82.2940384 119.8211562 121.2443942  82.7277113
 126.0029916 122.7606793  81.1677722 126.4113272 122.3189204  80.4232355
 125.2807178 122.1859421  81.4211915 122.3560986 117.6979400  78.5411279
 123.2022182 118.1218814  78.6845928 122.2959624 117.0413025  79.2349842
 126.3258731 123.3207984  74.9230011 125.6967593 123.4853698  74.2206079
 125.9384393 123.7349594  75.6940975 130.2047963 124.2562422  72.2774375
 129.5199001 124.6361323  71.7271408 130.2891812 124.8657749  73.0106323
 127.4598894 121.9022381  78.8769718 127.6715790 122.5454141  78.2004100
 127.4128643 121.0684698  78.4091649 121.8786693 123.0582392  72.1880096
 122.3425038 123.3370095  71.3984719 121.6143491 122.1565837  72.0053187
 118.7710774 122.6053874  75.1259860 119.3412131 123.0341142  74.4877344
 119.3618886 122.3236458  75.8244045 120.8155579 119.1805545  68.9969661
 121.5179622 119.6326588  69.4643588 120.4836207 118.5389363  69.6249555
 114.5580913 117.4389097  74.2986795 113.7679967 117.6946626  73.8226906
 115.0492160 118.2537435  74.4038836 128.5744722 124.7794336  77.0492076
 129.3962166 124.3774524  76.7674757 128.5707125 124.6762571  78.0008192
 116.5095658 117.8033676  71.2570272 115.7126822 117.9152371  71.7753767
 116.2821250 118.1420329  70.3911162 122.3401326 124.3278380  79.2052786
 122.4045758 124.7898787  80.0410958 121.6312250 123.6975745  79.3335096
 136.6650715 121.1233085  73.3977047 135.9114424 120.5540483  73.2421052
 136.7998257 121.0895749  74.3447682 122.0549344 125.9946487  69.0731767
 121.9195018 126.8398023  69.5016614 122.5959156 126.1965765  68.3097700
 115.5078741 123.5121925  69.6459692 116.0203262 124.3065175  69.7965256
 116.1601454 122.8148216  69.5793293 117.3173626 126.6287681  71.7282445
 117.4940254 127.5505646  71.5403429 118.1130459 126.3146101  72.1576825
 116.6025982 118.6752313  81.6044608 116.4879497 117.7737571  81.9051707
 115.7470500 118.9216010  81.2529425 123.6817820 126.6170054  83.2032109
 123.2381674 125.8306432  82.8853013 124.3435034 126.8049204  82.5376000
 118.4404941 128.1465855  77.7292787 118.9912366 128.0182919  76.9569781
 117.6016417 128.4460744  77.3787680 125.7799058 126.8972854  81.2313510
 125.7617533 127.7181735  80.7393779 126.7018978 126.7726929  81.4563651
 122.2372112 124.4116983  82.0737018 122.7700449 123.6505271  81.8436326
 121.7086193 124.1190635  82.8161173 125.3692090 119.5085660  66.1103095
 124.8538713 120.2790265  66.3491483 125.0969398 118.8350796  66.7336157
 130.3426364 122.2618015  68.0456269 129.5655807 121.9229174  67.6011431
 131.0217845 122.2670638  67.3711234 125.1578393 117.3812752  67.9362876
 124.8528529 117.6958901  68.7873020 126.1108835 117.4594172  67.9790209
 123.6024825 123.5402976  69.5855830 123.0746186 122.8055735  69.2729068
 123.1012328 124.3177652  69.3395799 128.5817671 121.7351996  74.7022877
 127.9241345 122.4251257  74.7903005 129.3858070 122.1248428  75.0456863
 118.3343552 114.2022642  71.9462442 118.9087304 113.9797823  71.2135635
 118.9214535 114.2711336  72.6991043 127.3923130 120.0896369  72.7526818
 127.9055011 120.7226361  73.2548528 128.0424354 119.4897564  72.3870178
 118.6613140 116.2327103  65.9658327 117.8250452 116.5701789  66.2867602
 118.5217909 116.0976083  65.0285464 120.6366220 111.0763891  70.6737511
 119.9830633 110.7612908  70.0494126 120.5946694 110.4539631  71.3997334
 121.7477425 121.3583186  62.5890803 120.8404487 121.1272439  62.7881952
 122.2448457 120.5620805  62.7764785 124.6545504 130.0680693  65.5087490
 123.9807203 130.3712390  66.1172447 125.0411326 130.8709773  65.1592947
 124.6539008 118.9637240  70.1287839 125.4010827 119.4758637  69.8194961
 124.9230598 118.6421293  70.9892233 122.9265658 121.4595781  67.1114794
 122.0176878 121.1754814  67.2087263 122.9560742 121.8794859  66.2518100
 128.1584926 125.0702370  70.8805961 127.7047253 124.2293280  70.9371152
 127.5278893 125.7063769  71.2180741 126.6017865 126.9078867  71.8155779
 126.8940840 127.4683924  71.0968145 127.1116486 127.2007428  72.5708938
 127.2029473 108.7770608  72.7048398 127.5088350 107.9167972  72.4174313
 127.9282078 109.3688228  72.5047392 121.4750553 119.0724401  73.2124589
 121.5299162 118.1198238  73.1367065 120.6641755 119.2283840  73.6965887
 122.6241746 123.0004524  64.4502872 122.1861176 122.2840383  63.9908509
 123.3652187 123.2280639  63.8887963 119.4142912 117.6901461  70.9714968
 118.6010778 117.9895632  71.3780160 119.9101907 117.2957150  71.6889450
 121.5651490 127.6859218  72.9049232 121.5227669 127.9120064  71.9757764
 122.4814189 127.4522593  73.0535034 125.0117124 118.1543286  79.8029862
 125.3666512 118.3814759  80.6624327 125.6589255 118.4861662  79.1807117
 130.7414861 121.2761721  70.5079191 130.6032760 121.4663317  69.5800380
 130.3851080 122.0381104  70.9647242 130.7684241 123.3438248  75.5190462
 131.2020747 123.2513538  76.3673516 131.4815821 123.3195749  74.8810478
 119.6817291 124.5622247  72.7011195 120.4757890 124.0672567  72.4993770
 118.9708983 124.0340110  72.3378901 124.5012136 126.9440343  77.0523563
 124.5549158 127.5131279  77.8201279 123.6326917 127.1142228  76.6877600
 115.9900055 118.7065329  68.7770948 115.0597643 118.6449784  68.9940910
 116.0857527 118.1841281  67.9807589 115.9085604 115.2320142  71.3649189
 116.1692421 116.1465475  71.2558350 116.7302776 114.7644584  71.5145802
 131.6299790 123.3861949  78.0523348 131.8235680 124.2907760  78.2982622
 131.5300408 122.9269368  78.8861933 126.6914899 123.5368692  83.6264228
 126.5400405 123.3079244  82.7094312 126.6819578 124.4939293  83.6395573
 123.4600235 121.1100605  78.6110495 124.3892295 121.2611764  78.4379462
 123.0391265 121.1984625  77.7559141 122.2588567 125.1351269  76.3809032
 122.1199653 124.7670053  77.2534970 121.4703163 125.6498908  76.2092990
 122.8536719 130.2360365  67.7234569 123.0288475 129.7648409  68.5380191
 122.1669507 130.8626132  67.9515829 123.8093782 124.5132872  73.7697870
 123.4743615 124.4733642  74.6655520 123.3097728 123.8477588  73.2968280
 117.7838026 119.9200502  79.2950451 117.6457824 119.1880741  79.8961990
 118.6942950 119.8309402  79.0134639 126.7452974 121.8588906  64.0434930
 126.1282145 121.1335734  63.9467982 126.2769462 122.6198266  63.7002004
 120.4120327 119.6320461  78.7834131 121.1219945 118.9913653  78.7420749
 120.3689635 119.8833356  79.7060312 128.4007106 126.5687814  81.7040710
 128.3419652 125.8847034  81.0371293 128.8026624 127.3106804  81.2521336
 117.4197804 133.3849728  74.4974429 117.6594403 134.0168252  75.1753447
 116.5767001 133.0337768  74.7839788 118.5351520 116.0774330  63.1656234
 117.6580986 115.9563131  62.8018481 119.0109273 115.2860409  62.9135123
 128.4024513 124.5327398  79.9354690 127.5151292 124.1953320  80.0581089
 128.9723064 123.8010430  80.1723455 121.9325666 129.1928851  76.9015933
 121.8595838 129.9983822  77.4135237 121.4903059 129.3920816  76.0763954
 121.7215446 128.4300621  70.4118754 120.9382968 128.9722301  70.5056979
 122.4208191 128.9474600  70.8112996 132.8841853 119.9435616  74.6971251
 132.8731730 120.8260331  74.3265184 132.0159233 119.5907167  74.5025788
 124.3924350 129.0915685  79.0574092 125.1052322 129.7263150  78.9849993
 123.9014378 129.1879551  78.2414093 126.1141877 122.9966937  70.6291383
 125.1798155 123.1168400  70.4596088 126.2918545 122.0939404  70.3651393
 129.5014428 118.8384257  71.1641417 129.9674880 119.6712248  71.0901720
 129.9521928 118.3729238  71.8686676 119.4436263 126.8410128  79.8779662
 120.1445723 127.4746611  80.0309057 118.9731378 127.1824860  79.1175302
 127.5690659 125.1828078  68.1627569 127.8450503 125.0684673  69.0721443
 126.6995158 124.7845563  68.1239743 127.2437549 119.3954736  77.7032213
 126.5908999 119.6430643  77.0484666 127.6217929 118.5818874  77.3694690
 124.2044723 129.4314429  71.8060383 124.3867118 128.6136085  72.2688135
 125.0277709 129.6482121  71.3685273 124.5386889 128.3582614  69.0675432
 125.0674655 127.8475068  68.4545594 124.8015108 128.0425144  69.9320965
 123.2925122 120.1374547  84.1898250 122.6165759 120.0368676  84.8600625
 124.1152756 119.9813760  84.6534247 115.0403981 126.3746483  76.8110765
 115.6257418 125.6290171  76.9438669 114.8428820 126.6850440  77.6947429
 117.8942637 129.4097731  71.8273207 117.2253012 129.8943858  71.3437248
 117.7555506 129.6566951  72.7416586 122.0347905 131.4441474  78.4255866
 122.5866213 131.6073096  79.1904951 122.3754099 132.0345912  77.7535891
 126.8858779 126.2702732  84.2804520 127.4298683 126.8832690  83.7859475
 126.3045624 126.8282310  84.7971533 113.2630214 117.6716186  68.6069140
 113.5583655 116.7626864  68.5536193 112.3618249 117.6503925  68.2850142
 125.1716292 129.3923450  75.4119548 125.0467432 128.5913189  74.9030493
 125.8295384 129.8869643  74.9233518 116.7924461 115.7472182  74.5896688
 116.0711046 116.3608150  74.4504162 117.5817716 116.2829947  74.5113334
 127.2351201 127.1932470  77.0399098 126.2881536 127.0737821  76.9677425
 127.5833974 126.3054968  77.1225360 114.9918055 115.3530283  68.7308465
 114.6630761 114.4727662  68.5483571 115.3457426 115.2977952  69.6184854
 124.2397634 126.9885186  73.2403450 124.0922597 126.0601893  73.4211020
 125.0651128 127.0105277  72.7560526 118.1059878 115.6403253  69.0983942
 118.4455951 116.1689174  68.3762551 118.5531999 115.9783659  69.8742509
 127.8431756 127.8113745  74.3268323 128.7678303 127.6056606  74.1892774
 127.6747059 127.5630146  75.2357665 120.0928026 114.1377875  67.2977235
 120.8136388 114.5159127  66.7940952 119.4693330 114.8566751  67.4012213
 124.2359148 114.8423024  68.2335568 124.4522763 115.7247661  67.9324396
 123.7553216 114.4509237  67.5041210 118.9758370 117.8008737  74.8106312
 118.8302951 118.1149040  75.7030594 118.4983573 118.4193637  74.2577211
 127.6327072 128.3299412  69.6830415 127.8063950 127.7645835  68.9304267
 128.1255963 129.1300307  69.5009904 113.4504032 120.3414081  77.7493973
 112.9057500 121.1173889  77.8814248 114.3283382 120.6884886  77.5913095
 120.2391649 113.6725665  70.1274772 120.3607560 112.7442311  70.3265659
 119.9493691 113.6864351  69.2153087 133.4866463 121.0935835  71.3020714
 133.9297609 120.3443160  70.9039838 132.6092974 121.0845971  70.9194446
 128.6202245 127.6466177  66.7827313 129.3153149 128.2672869  67.0014627
 128.9625395 126.7961528  67.0579691 130.5193668 125.0965882  68.3114644
 131.0444992 125.4353155  67.5863964 130.4316020 124.1612897  68.1277778
 122.1813716 129.0099956  80.4404520 122.4900843 128.7649102  81.3127220
 122.9789198 129.2146594  79.9523390 122.2034329 131.1637865  72.6709897
 121.7639319 130.6714244  73.3642753 122.9542445 130.6210833  72.4301972
 114.6826667 127.3549406  72.6734525 115.5084687 127.0553178  72.2933168
 114.3320719 126.5857029  73.1224313 119.6508201 126.7075874  74.7432198
 119.0288210 126.0446579  74.4434426 120.3213068 126.7337006  74.0605846
 112.8835273 125.2735733  73.6323458 112.0467181 124.8457907  73.4507460
 112.8558918 125.4668176  74.5694250 130.2087574 125.7298786  83.6165842
 129.4183118 125.7122925  83.0770341 129.9720928 126.2687079  84.3714878
 130.3285449 122.5791252  80.9298570 130.3783454 122.4141260  81.8714093
 130.2199372 121.7118511  80.5396451 119.2121708 125.2579798  68.2190659
 119.3609828 125.9415262  67.5657332 120.0188151 125.2384888  68.7340115
 127.6189211 118.5622180  82.2457877 128.5199074 118.4228645  81.9541875
 127.6937186 118.7276635  83.1856054 131.8303646 124.9988194  81.1740592
 131.5388454 125.3618174  82.0104053 131.2175777 124.2855202  80.9953924
 133.0299328 122.5641073  73.6943162 133.8646219 123.0030877  73.8580722
 133.1658457 122.0879727  72.8751408 130.0790834 120.1220808  79.6420650
 130.5544956 120.3148455  78.8339501 129.1556399 120.1779994  79.3964033
 116.9674341 121.2844975  69.2251728 116.7220382 120.3807305  69.4231938
 117.1370255 121.2862126  68.2831206 116.2369988 117.0173333  66.7237889
 115.5439233 117.0917688  66.0677925 115.9921740 116.2533677  67.2459406
 122.7117113 127.7527928  65.6902406 122.1391080 128.3718115  65.2372878
 123.2849907 128.3027290  66.2242328 125.9314373 128.0365078  66.8210989
 126.8645046 127.9710640  67.0243864 125.8437586 128.8721345  66.3625521
 128.5602390 127.3530949  63.7814936 128.4816021 127.0190812  64.6750694
 129.3812056 127.8452717  63.7806409 131.2580581 120.2192688  76.9891255
 131.2256901 119.2808689  77.1750939 131.8681204 120.2976725  76.2557080
 123.0963912 119.0888741  63.0318459 124.0423016 118.9594949  63.1006877
 122.7178157 118.3503403  63.5087887 131.4075069 117.0103731  77.0349538
 130.8914118 116.2262188  76.8479467 132.2915018 116.6822448  77.1996057
 129.0685796 110.7544747  72.9945351 128.8710617 110.4459835  73.8788683
 129.6785502 111.4806386  73.1243281 137.0757131 121.2808695  76.1297292
 137.8060519 121.0193983  76.6904995 136.4664076 120.5437417  76.1699360
 135.1572428 119.4216557  76.7271743 134.4305591 119.2872522  76.1188234
 134.7419715 119.7293386  77.5328461 122.9802604 123.1406487  84.4919116
 123.9005614 123.3185086  84.6859162 122.9452187 122.1962532  84.3398815
 121.2806829 117.0138717  62.9673344 120.3738284 116.7171830  63.0436058
 121.5582810 116.7168535  62.1007630 122.8968894 111.5575607  69.1217585
 122.0869623 111.2122692  69.4972831 123.5853311 111.2483151  69.7105197
 124.8259443 110.6353654  70.7441882 125.3790481 111.0549107  71.4031905
 125.0629529 109.7089402  70.7864838 120.8492542 116.6240728  86.5244646
 120.7489269 117.5735084  86.4556737 120.6314084 116.2958966  85.6520716
 120.0505613 113.8725653  63.1085323 120.9124777 114.1980551  63.3681141
 120.2355958 113.0857148  62.5958389 128.2038250 112.7454179  70.2520546
 127.6236919 113.4038983  69.8698599 127.9374183 111.9231524  69.8407964
 120.7123812 120.0537866  85.3409708 120.2290894 120.8538226  85.5473597
 120.7984751 120.0645811  84.3877152 116.6397150 123.9442401  77.3778141
 117.5940403 123.9126343  77.3108073 116.4409673 123.4833025  78.1928367
 117.2296532 122.5143517  79.9448939 118.0489421 123.0087596  79.9683776
 117.5033339 121.5975485  79.9166507 126.9863128 114.9054269  69.3076895
 126.0988983 115.1903920  69.0897089 127.4017117 114.7448033  68.4604171
 130.3377664 114.9300790  73.0231234 131.1138054 115.4197243  73.2955851
 129.6125798 115.3558845  73.4803103 132.7750223 115.6428410  74.0805174
 133.3694713 115.4024146  73.3698483 132.8476806 114.9235540  74.7078711
 114.9947378 129.4862021  74.3948339 114.8601846 128.7262421  73.8286337
 114.5779441 130.2102920  73.9277128 126.1306341 124.6698944  63.4024915
 126.8342191 124.8748947  64.0182570 125.4068990 125.2375706  63.6673998
 126.9604152 120.4208805  69.5227185 126.9039353 120.8777357  68.6834817
 127.5132494 119.6599490  69.3450027 130.7708958 116.2098537  70.3477304
 130.5145892 115.8095173  71.1785512 130.1461826 116.9242331  70.2227443
 135.0821295 118.9494610  72.8548596 134.5220853 119.0187800  73.6280158
 134.4764799 118.7735595  72.1348092 118.1516504 130.3831338  74.6066782
 118.0348888 131.3276770  74.5045472 117.3308950 130.0804899  74.9952581
 128.0393039 125.1081473  65.4523375 128.8738643 124.6762672  65.2700849
 127.8777382 124.9363487  66.3800269 127.6938931 121.6113587  66.8179714
 127.6387735 121.4457858  65.8768158 127.0684986 122.3189619  66.9741904
 125.0084838 123.9162498  86.1433277 125.8775998 124.0903151  85.7819912
 124.5291590 124.7356915  86.0209006 121.0035056 111.1121696  66.3965032
 120.9913726 112.0563536  66.5533303 121.8958478 110.9291841  66.1024493
 119.1771018 131.0359599  77.8222710 120.0798265 131.0683210  78.1389205
 118.9508388 130.1060050  77.8369046 120.9324620 129.7890586  74.4832789
 119.9820251 129.7892448  74.3697161 121.2357106 129.0423321  73.9668824
 124.8187176 107.7064472  70.6510969 124.0519572 107.1522959  70.7967651
 125.2297881 107.7786341  71.5125121 133.4767020 135.5778552  75.4840076
 133.1385532 135.4619617  74.5960611 134.3456788 135.1769718  75.4641082
 129.3353836 137.4314029  71.4736967 128.7718701 137.3403966  70.7053255
 129.2206231 136.6113933  71.9539460 126.8818268 138.9265221  74.3121187
 127.6739560 138.5856045  73.8967487 127.1214918 139.0360196  75.2323341
 128.8409022 138.1874134  67.1838566 129.6139898 137.6403121  67.0451442
 129.1934421 139.0518383  67.3953028 131.6050271 136.8927365  76.9806825
 132.2013843 136.6683387  76.2663788 131.6625243 136.1512110  77.5832273
 131.1775299 134.3466800  64.8157016 131.4300820 133.8248321  64.0540479
 130.2399859 134.1832945  64.9183700 136.2218582 133.3502578  72.6231759
 137.0081672 132.9322001  72.2722176 136.4857287 134.2548670  72.7913408
 130.8971588 136.2494906  67.0181391 130.7807846 135.5739809  67.6862475
 131.0073848 135.7627280  66.2013544 133.2403129 135.7105053  70.7228080
 132.8761336 135.1835674  71.4341002 134.0970245 135.3203522  70.5494566
 139.1452430 126.9999386  77.9859346 138.8135755 127.8694797  77.7620561
 138.5498043 126.6835670  78.6653377 132.8808616 130.7394953  65.7189429
 133.0483018 131.6075189  66.0859900 132.6905785 130.9022234  64.7950718
 129.0896431 135.6525728  73.4191964 128.1646927 135.5201942  73.6269655
 129.3380844 136.4319948  73.9161906 139.0381093 131.7194472  75.0652697
 138.1297970 131.6509880  74.7711458 138.9868689 132.1966417  75.8934522
 132.8597837 133.1952610  66.7036096 132.7397462 133.6409661  67.5421576
 132.1650425 133.5437928  66.1449634 126.4505242 135.2959002  74.2535753
 126.5797623 135.5493481  75.1675164 125.7702693 135.8886710  73.9340408
 133.1121959 133.1384117  83.0087594 132.3355293 133.6978037  82.9990458
 133.7512522 133.6240900  83.5302464 140.9042740 129.9210910  76.8430570
 140.2617120 130.2143443  76.1970365 140.3997668 129.8063830  77.6483767
 131.3668331 135.9469571  82.5705561 132.1083016 136.4854615  82.2940384
 130.6605317 136.5735859  82.7277113 133.1954741 133.0271318  78.5411279
 134.0415936 133.4510731  78.6845928 133.1353379 132.3704942  79.2349842
 136.3454186 130.6875686  80.1992453 136.1015118 131.4417747  79.6626729
 136.6214117 131.0661034  81.0339700 135.9018878 129.8432119  75.7806291
 135.0403357 130.1413373  76.0723028 135.9281313 130.0602518  74.8487323
 129.6104528 137.9345791  75.1259860 130.1805885 138.3633060  74.4877344
 130.2012640 137.6528376  75.8244045 131.6549333 134.5097462  68.9969661
 132.3573377 134.9618506  69.4643588 131.3229962 133.8681281  69.6249555
 130.1029695 133.1009219  83.3720871 129.4728356 133.7825500  83.6056268
 129.9965783 132.9892300  82.4274009 125.3974667 132.7681015  74.2986795
 124.6073721 133.0238543  73.8226906 125.8885915 133.5829353  74.4038836
 127.3489413 133.1325594  71.2570272 126.5520576 133.2444288  71.7753767
 127.1215005 133.4712246  70.3911162 123.6812370 133.0211505  76.7301786
 123.9320409 133.9058515  76.9959362 124.2171919 132.8416107  75.9576878
 129.3810438 127.4029985  85.7346122 128.9877383 126.8496183  86.4093766
 130.1976578 127.7140563  86.1252639 126.3472495 138.8413843  69.6459692
 126.8597016 139.6357093  69.7965256 126.9995208 138.1440133  69.5793293
 132.2978399 128.8187864  83.3266378 133.0388112 129.4195017  83.2470841
 132.5296321 128.0765502  82.7684421 127.4419737 134.0044231  81.6044608
 127.3273252 133.1029488  81.9051707 126.5864254 134.2507928  81.2529425
 136.2435562 124.8468967  77.6030660 135.8999831 125.7370608  77.5269771
 136.6114524 124.6570624  76.7400245 124.3121412 137.1702497  70.4219262
 125.1496634 137.5799506  70.2052970 124.4899680 136.2301939  70.3919456
 133.7932955 129.6827279  71.1688334 132.9374552 129.2934129  70.9893972
 134.2059907 129.7619239  70.3088119 135.3232102 127.2173622  75.5679893
 134.8196898 127.1803757  74.7547699 135.6162709 128.1266365  75.6276550
 131.5674988 127.3012352  74.5746075 132.4327985 127.1055160  74.2151965
 131.6352497 127.0722703  75.5015432 135.9972147 132.7104670  67.9362876
 135.6922283 133.0250819  68.7873020 136.9502590 132.7886090  67.9790209
 129.1737307 129.5314560  71.9462442 129.7481059 129.3089741  71.2135635
 129.7608289 129.6003254  72.6991043 129.5006894 131.5619021  65.9658327
 128.6644206 131.8993707  66.2867602 129.3611664 131.4268000  65.0285464
 131.4759975 126.4055808  70.6737511 130.8224387 126.0904826  70.0494126
 131.4340449 125.7831549  71.3997334 132.5871180 136.6875104  62.5890803
 131.6798241 136.4564357  62.7881952 133.0842212 135.8912723  62.7764785
 134.7097715 132.8937742  74.9985159 133.7920276 133.1152689  74.8406847
 135.1257859 132.9684052  74.1396866 137.9411600 131.3286274  72.1106629
 137.2034357 130.8163660  72.4416871 138.1938373 130.8886656  71.2989905
 138.0423227 124.1062526  72.7048398 138.3482104 123.2459889  72.4174313
 138.7675832 124.6980146  72.5047392 124.3347583 134.5093213  71.0929996
 124.1371983 133.9162573  70.3681062 123.7794247 134.2045423  71.8105935
 132.3144307 134.4016319  73.2124589 132.3692917 133.4490155  73.1367065
 131.5035509 134.5575758  73.6965887 130.2536667 133.0193379  70.9714968
 129.4404532 133.3187549  71.3780160 130.7495661 132.6249067  71.6889450
 135.8510879 133.4835203  79.8029862 136.2060266 133.7106676  80.6624327
 136.4983010 133.8153580  79.1807117 129.7450742 130.5911734  76.5876203
 130.3850121 130.4500493  75.8899166 128.9128272 130.3046248  76.2114805
 126.8293809 134.0357246  68.7770948 125.8991397 133.9741702  68.9940910
 126.9251281 133.5133199  67.9807589 126.7479358 130.5612059  71.3649189
 127.0086175 131.4757392  71.2558350 127.5696530 130.0936502  71.5145802
 128.2204283 131.9749816  78.5348014 128.8927337 131.7667179  77.8860663
 127.3934070 131.7771902  78.0953246 134.1229855 128.6011757  80.5513675
 133.4757770 129.3001707  80.4578151 134.8930871 129.0347901  80.9189923
 128.6231781 135.2492419  79.2950451 128.4851579 134.5172658  79.8961990
 129.5336704 135.1601319  79.0134639 131.2514081 134.9612379  78.7834131
 131.9613700 134.3205571  78.7420749 131.2083390 135.2125274  79.7060312
 129.9643015 131.9477597  80.6029770 129.4280372 131.4968335  81.2551367
 129.3759724 132.0823505  79.8600235 129.3745274 131.4066248  63.1656234
 128.4974741 131.2855049  62.8018481 129.8503027 130.6152326  62.9135123
 120.8947414 136.1943408  73.2597741 121.5818454 135.8805138  72.6718756
 120.7395543 137.0984772  72.9864993 125.6982137 131.0833604  77.6882765
 125.6140325 130.4759274  76.9533175 124.8764843 131.5742623  77.6892261
 135.8705850 129.5687168  73.0552960 136.3674550 128.8157130  72.7354030
 135.0992832 129.6051484  72.4896169 132.4540819 131.7104551  72.7824644
 132.0838607 131.1575591  73.4705550 132.9499912 131.1062684  72.2299644
 138.3124845 126.5356761  75.2032319 137.3987925 126.7660988  75.3714526
 138.7417947 126.6195205  76.0546351 134.1318877 135.4666464  84.1898250
 133.4559514 135.3660594  84.8600625 134.9546511 135.3105678  84.6534247
 125.8797736 141.7038401  76.8110765 126.4651173 140.9582089  76.9438669
 125.6822574 142.0142358  77.6947429 120.4715391 134.2744001  75.5315208
 120.5099490 133.7407592  76.3252326 119.9655683 133.7479207  74.9126185
 127.8506153 129.1208542  79.0277751 127.9147479 129.9823372  78.6155148
 127.7873273 128.5082543  78.2950109 127.3258425 131.1931674  82.6750785
 127.9530464 130.8108751  83.2888309 126.4686344 130.9745876  83.0406477
 124.1023968 133.0008103  68.6069140 124.3977409 132.0918782  68.5536193
 123.2012004 132.9795843  68.2850142 127.6318215 131.0764100  74.5896688
 126.9104801 131.6900068  74.4504162 128.4211471 131.6121865  74.5113334
 130.4344529 128.4118526  80.8637340 130.9578930 128.6580823  81.6263649
 130.2156862 129.2438561  80.4440477 125.8311810 130.6822201  68.7308465
 125.5024516 129.8019580  68.5483571 126.1851180 130.6269870  69.6184854
 128.9453633 130.9695171  69.0983942 129.2849705 131.4981092  68.3762551
 129.3925753 131.3075577  69.8742509 131.6397074 129.3532221  78.5487010
 131.2993894 128.5540034  78.9507690 130.9336080 129.6533932  77.9763844
 132.2913546 126.4381534  77.0014334 133.1139615 125.9642012  76.8793224
 132.5351609 127.2172018  77.5013020 130.9321780 129.4669792  67.2977235
 131.6530143 129.8451045  66.7940952 130.3087084 130.1858669  67.4012213
 135.0752903 130.1714941  68.2335568 135.2916517 131.0539579  67.9324396
 134.5946970 129.7801155  67.5041210 129.8152124 133.1300654  74.8106312
 129.6696705 133.4440958  75.7030594 129.3377328 133.7485555  74.2577211
 131.6748507 130.1203202  74.8587202 131.6610076 129.2244296  74.5219500
 132.3920935 130.1273866  75.4925488 133.5274638 130.5540543  76.9040329
 133.2692416 131.4757613  76.9024660 132.9959678 130.1570977  77.5940793
 124.2897786 135.6705999  77.7493973 123.7451255 136.4465807  77.8814248
 125.1677136 136.0176803  77.5913095 131.0785403 129.0017583  70.1274772
 131.2001314 128.0734229  70.3265659 130.7887445 129.0156269  69.2153087
 133.9476593 126.6872493  73.2641492 133.9698290 126.7511826  72.3093471
 134.3644652 125.8477002  73.4581998 125.0763808 134.7975895  80.6424130
 124.3345544 134.9458531  81.2288761 124.7556553 135.0584161  79.7790880
 123.7229027 140.6027650  73.6323458 122.8860935 140.1749825  73.4507460
 123.6952672 140.7960094  74.5694250 130.5626483 130.5149580  84.3364704
 130.6114638 131.3911703  83.9542474 131.1048997 129.9726973  83.7636348
 132.7925771 131.2680953  81.0911063 131.9229080 131.5614519  80.8193652
 133.0285251 131.8521398  81.8118327 127.8068095 136.6136893  69.2251728
 127.5614137 135.7099223  69.4231938 127.9764010 136.6154044  68.2831206
 135.4964805 127.4860569  78.6076483 136.0146749 128.2221596  78.2822972
 135.1419938 127.7924563  79.4423243 127.0763743 132.3465251  66.7237889
 126.3832988 132.4209606  66.0677925 126.8315494 131.5825594  67.2459406
 135.7477399 123.9060852  74.1277380 136.0279153 123.2384041  74.7537807
 136.5328006 124.0989948  73.6152044 137.6400637 129.4134069  78.0608356
 137.0450569 129.6939082  77.3654845 137.3550334 129.9027970  78.8325097
 133.9357666 134.4180659  63.0318459 134.8816771 134.2886867  63.1006877
 133.5571911 133.6795321  63.5087887 139.9079551 126.0836665  72.9945351
 139.7104372 125.7751753  73.8788683 140.5179256 126.8098304  73.1243281
 132.1200583 132.3430635  62.9673344 131.2132039 132.0463748  63.0436058
 132.3976564 132.0460453  62.1007630 123.0378524 133.6636998  73.4172390
 122.7181308 132.8102307  73.1246764 122.4911952 133.8785577  74.1730358
 126.8158431 136.3799439  77.1341897 127.0344441 137.3116547  77.1529931
 127.2284205 136.0207414  77.9196701 133.7362649 126.8867525  69.1217585
 132.9263377 126.5414610  69.4972831 134.4247066 126.5775068  69.7105197
 135.6653197 125.9645572  70.7441882 136.2184236 126.3841025  71.4031905
 135.9023284 125.0381320  70.7864838 131.6886296 131.9532645  86.5244646
 131.5883023 132.9027002  86.4556737 131.4707839 131.6250884  85.6520716
 130.8899368 129.2017570  63.1085323 131.7518532 129.5272469  63.3681141
 131.0749712 128.4149066  62.5958389 122.9066784 137.2839910  75.3865512
 122.2130255 136.8693863  74.8735466 123.6539775 137.3260446  74.7898931
 139.0432004 128.0746097  70.2520546 138.4630673 128.7330901  69.8698599
 138.7767937 127.2523441  69.8407964 137.4935571 127.4751154  72.4541867
 137.9935349 127.5867689  71.6456185 138.1371179 127.1712207  73.0942675
 131.5517567 135.3829784  85.3409708 131.0684648 136.1830144  85.5473597
 131.6378506 135.3937729  84.3877152 124.8203526 137.2158164  73.2631527
 124.7974214 137.3145851  72.3113410 125.1304163 138.0623315  73.5848693
 127.4790904 139.2734319  77.3778141 128.4334158 139.2418261  77.3108073
 127.2803428 138.8124942  78.1928367 128.0690286 137.8435435  79.9448939
 128.8883175 138.3379513  79.9683776 128.3427094 136.9267403  79.9166507
 137.8256882 130.2346187  69.3076895 136.9382737 130.5195838  69.0897089
 138.2410871 130.0739950  68.4604171 141.1771418 130.2592708  73.0231234
 141.9531809 130.7489161  73.2955851 140.4519553 130.6850762  73.4803103
 123.3225200 132.1773569  80.6441136 123.9684064 131.6672523  81.1328361
 123.1142352 132.9142250  81.2184561 131.8428811 126.4413613  66.3965032
 131.8307481 127.3855453  66.5533303 132.7352233 126.2583759  66.1024493
 135.6580930 123.0356390  70.6510969 134.8913326 122.4814877  70.7967651
 136.0691635 123.1078259  71.5125121 127.6622691 129.3241186  84.7416150
 128.5254153 128.9677991  84.9519475 127.0888102 128.9855081  85.4291555
  49.9527279 -10.0022094  62.2723858  50.5905689 -10.1215347  61.5687198
  49.8348122  -9.0541250  62.3311810  46.7616985 -10.0494666  62.2085383
  46.4235497 -10.1653602  61.3205918  47.6306754 -10.4503501  62.1886389
  47.2436768  -8.8959815  68.1671588  47.2325409  -9.2907016  67.2952092
  47.4057408  -9.6293742  68.7605360  48.2003360  -4.5288222  53.5096739
  47.5491340  -3.9434142  53.1230752  48.9947723  -3.9982027  53.5691776
  43.9644030  -6.1122703  67.1150772  43.6733896  -5.2077072  66.9997438
  44.6001014  -6.0706175  67.8294842  49.6778625  -6.8397790  54.0465723
  49.0424458  -6.7663164  54.7586627  49.3476031  -6.2504191  53.3684802
  48.9233915  -6.4261287  64.1100566  48.6234638  -5.5236248  64.0016373
  48.5784974  -6.6929104  64.9621719  43.9054694   0.3383033  57.0771534
  43.8278724   1.2890858  57.1560014  43.3016338  -0.0071094  57.7346460
  50.1273636  -7.5374508  67.8923029  50.5356992  -7.9792097  67.1477661
  49.4050898  -8.1121880  68.1457222  50.4502451  -6.9773317  61.6475318
  49.8211313  -6.8127603  60.9451386  50.0628113  -6.5631707  62.4186282
  54.3291683  -6.0418879  59.0019682  53.6442721  -5.6619978  58.4516715
  54.4135532  -5.4323553  59.7351629  51.5842614  -8.3958920  65.6015025
  51.7959510  -7.7527160  64.9249406  51.5372363  -9.2296604  65.1336955
  46.0030413  -7.2398909  58.9125403  46.4668758  -6.9611206  58.1230025
  45.7387211  -8.1415464  58.7298494  42.8954494  -7.6927427  61.8505166
  43.4655851  -7.2640159  61.2122651  43.4862606  -7.9744843  62.5489352
  52.6988442  -5.5186965  63.7737382  53.5205886  -5.9206777  63.4920064
  52.6950845  -5.6218731  64.7253498  46.4645046  -5.9702921  65.9298093
  46.5289478  -5.5082514  66.7656265  45.7555970  -6.6005557  66.0580403
  46.1793063  -4.3034814  55.7977073  46.0438738  -3.4583278  56.2261921
  46.7202876  -4.1015536  55.0343007  41.4417345  -3.6693620  58.4527752
  41.6183974  -2.7475655  58.2648735  42.2374179  -3.9835200  58.8822131
  47.8061540  -3.6811247  69.9277415  47.3625394  -4.4674869  69.6098320
  48.4678753  -3.4932097  69.2621306  42.5648661  -2.1515446  64.4538094
  43.1156086  -2.2798383  63.6815088  41.7260137  -1.8520557  64.1032987
  49.9042778  -3.4008448  67.9558817  49.8861253  -2.5799566  67.4639086
  50.8262698  -3.5254372  68.1808958  46.3615832  -5.8864318  68.7982325
  46.8944169  -6.6476030  68.5681633  45.8329913  -6.1790666  69.5406479
  49.4935810 -10.7895641  52.8348402  48.9782433 -10.0191036  53.0736789
  49.2213118 -11.4630505  53.4581463  54.4670084  -8.0363286  54.7701575
  53.6899527  -8.3752127  54.3256737  55.1461565  -8.0310663  54.0956540
  47.7268545  -6.7578326  56.3101137  47.1989906  -7.4925566  55.9974374
  47.2256047  -5.9803649  56.0641105  52.7061391  -8.5629305  61.4268183
  52.0485065  -7.8730044  61.5148312  53.5101790  -8.1732873  61.7702170
  51.5166850 -10.2084932  59.4772125  52.0298731  -9.5754941  59.9793835
  52.1668073 -10.8083737  59.1115485  45.8721145  -8.9398115  49.3136110
  44.9648207  -9.1708862  49.5127259  46.3692177  -9.7360496  49.5010092
  48.7789224  -0.2300608  52.2332796  48.1050923   0.0731089  52.8417754
  49.1655046   0.5728472  51.8838253  48.7782728 -11.3344061  56.8533146
  49.5254547 -10.8222664  56.5440268  49.0474318 -11.6560008  57.7137539
  47.0509378  -8.8385520  53.8360100  46.1420598  -9.1226488  53.9332570
  47.0804462  -8.4186442  52.9763407  52.2828646  -5.2278931  57.6051268
  51.8290973  -6.0688021  57.6616458  51.6522612  -4.5917533  57.9426048
  50.7261585  -3.3902434  58.5401086  51.0184559  -2.8297377  57.8213451
  51.2360206  -3.0973873  59.2954245  46.7485466  -7.2976777  51.1748179
  46.3104896  -8.0140918  50.7153816  47.4895907  -7.0700662  50.6133270
  45.6895210  -2.6122083  59.6294539  45.6471389  -2.3861237  58.7003071
  46.6057909  -2.8458709  59.7780340  49.1360844 -12.1438016  66.5275168
  49.4910232 -11.9166542  67.3869634  49.7832975 -11.8119639  65.9052424
  54.8658581  -9.0219580  57.2324497  54.7276479  -8.8317984  56.3045687
  54.5094800  -8.2600197  57.6892548  54.8927960  -6.9543053  62.2435769
  55.3264467  -7.0467764  63.0918823  55.6059541  -6.9785552  61.6055785
  43.8061011  -5.7359054  59.4256502  44.6001609  -6.2308734  59.2239077
  43.0952703  -6.2641191  59.0624207  48.6255855  -3.3540959  63.7768869
  48.6792878  -2.7850022  64.5446585  47.7570637  -3.1839074  63.4122907
  55.7543510  -6.9119352  64.7768654  55.9479400  -6.0073542  65.0227929
  55.6544128  -7.3711933  65.6107239  50.8158619  -6.7612609  70.3509535
  50.6644125  -6.9902058  69.4339619  50.8063298  -5.8042008  70.3640880
  47.5843955  -9.1880697  65.3355801  48.5136015  -9.0369537  65.1624769
  47.1634985  -9.0996676  64.4804448  46.3832287  -5.1630032  63.1054339
  46.2443373  -5.5311248  63.9780277  45.5946883  -4.6482393  62.9338297
  46.9780439  -0.0620936  54.4479875  47.1532195  -0.5332893  55.2625498
  46.2913227   0.5644831  54.6761136  47.9337502  -5.7848429  60.4943177
  47.5987335  -5.8247659  61.3900827  47.4341448  -6.4503714  60.0213587
  50.8696694  -8.4392395  50.7680236  50.2525864  -9.1645567  50.6713289
  50.4013182  -7.6783035  50.4247311  52.5250825  -3.7293487  68.4286017
  52.4663372  -4.4134267  67.7616600  52.9270344  -2.9874497  67.9766643
  41.5441524   3.0868427  61.2219736  41.7838122   3.7186951  61.8998754
  40.7010721   2.7356467  61.5085095  52.5268233  -5.7653903  66.6599996
  51.6395011  -6.1027981  66.7826395  53.0966784  -6.4970872  66.8968762
  46.0569386  -1.1052450  63.6261240  45.9839558  -0.2997479  64.1380544
  45.6146779  -0.9060485  62.8009261  45.8459166  -1.8680680  57.1364061
  45.0626688  -1.3259000  57.2302286  46.5451911  -1.3506701  57.5358302
  48.5168070  -1.2065616  65.7819398  49.2296042  -0.5718152  65.7095300
  48.0258098  -1.1101750  64.9659400  50.2385596  -7.3014364  57.3536690
  49.3041875  -7.1812901  57.1841394  50.4162265  -8.2041897  57.0896700
  43.5679983  -3.4571173  66.6024969  44.2689443  -2.8234690  66.7554363
  43.0975098  -3.1156441  65.8420608  51.6934379  -5.1153223  54.8872876
  51.9694223  -5.2296629  55.7966750  50.8238878  -5.5135738  54.8485049
  48.3288443  -0.8666872  58.5305690  48.5110837  -1.6845216  58.9933442
  49.1521429  -0.6499180  58.0930580  48.6630608  -1.9398687  55.7920738
  49.1918375  -2.4506233  55.1790900  48.9258828  -2.2556157  56.6566271
  47.4168842 -10.1606754  70.9143556  46.7409479 -10.2612625  71.5845932
  48.2396476 -10.3167541  71.3779554  39.1647701  -3.9234818  63.5356072
  39.7501138  -4.6691130  63.6683976  38.9672540  -3.6130861  64.4192736
  42.0186356  -0.8883571  58.5518514  41.3496732  -0.4037443  58.0682554
  41.8799226  -0.6414350  59.4661893  46.1591625   1.1460173  65.1501172
  46.7109933   1.3091794  65.9150258  46.4997818   1.7364611  64.4781197
  51.0102499  -4.0278570  71.0049827  51.5542403  -3.4148611  70.5104782
  50.4289344  -3.4698991  71.5216840  49.2960012  -0.9057852  62.1364855
  49.1711152  -1.7068112  61.6275800  49.9539103  -0.4111658  61.6478825
  51.3594921  -3.1048831  63.7644405  50.4125256  -3.2243480  63.6922731
  51.7077694  -3.9926333  63.8470666  48.3641354  -3.3096115  59.9648757
  48.2166316  -4.2379408  60.1456327  49.1894847  -3.2876025  59.4805832
  51.9675476  -2.4867556  61.0513630  52.8922023  -2.6924695  60.9138081
  51.7990779  -2.7351155  61.9602971  51.7570792  -1.9681889  56.4075721
  51.9307670  -2.5335467  55.6549574  52.2499683  -1.1680994  56.2255211
  52.7445964  -2.6515125  53.5072619  53.4396869  -2.0308432  53.7259934
  53.0869115  -3.5019773  53.7824997  54.6437388  -5.2015419  55.0359950
  55.1688712  -4.8628146  54.3109270  54.5559740  -6.1368404  54.8523085
  46.3057436  -1.2881345  67.1649827  46.6144563  -1.5332199  68.0372526
  47.1032918  -1.0834707  66.6768697  46.3278048   0.8656564  59.3955203
  45.8883039   0.3732943  60.0888060  47.0786165   0.3229532  59.1547279
  38.8070387  -2.9431895  59.3979831  39.6328407  -3.2428123  59.0178475
  38.4564439  -3.7124273  59.8469620  43.7751920  -3.5905427  61.4677505
  43.1531930  -4.2534722  61.1679733  44.4456787  -3.5644295  60.7851153
  54.3331294  -4.5682515  70.3411148  53.5426837  -4.5858377  69.8015648
  54.0964648  -4.0294222  71.0960185  54.4529169  -7.7190049  67.6543877
  54.5027174  -7.8840042  68.5959399  54.3443092  -8.5862790  67.2641757
  43.3365427  -5.0401503  54.9435966  43.4853548  -4.3566039  54.2902638
  44.1431871  -5.0596413  55.4585421  55.9547366  -5.2993108  67.8985898
  55.6632174  -4.9363127  68.7349359  55.3419497  -6.0126099  67.7199230
  57.1543048  -7.7340228  60.4188468  57.9889939  -7.2950424  60.5826029
  57.2902177  -8.2101575  59.5996714  54.2034554 -10.1760493  66.3665956
  54.6788675  -9.9832847  65.5584808  53.2800119 -10.1201307  66.1209340
  46.8360833  -2.5453373  52.4147713  46.2634800  -1.9263186  51.9618185
  47.4093627  -1.9954011  52.9487635  50.0558093  -2.2616223  53.5456295
  50.9888766  -2.3270661  53.7489171  49.9681306  -1.4259956  53.0870828
  52.6846109  -2.9450352  50.5060243  52.6059741  -3.2790489  51.3996001
  53.5055776  -2.4528585  50.5051715  47.1046324  -7.1574814  71.2164422
  48.0249333  -6.9796215  71.4104469  47.0695907  -8.1018769  71.0644122
  39.1191098  -0.8119281  61.1193646  38.9845566  -1.5718880  60.5531644
  38.7023160  -0.0878381  60.6522435  50.2550061  -5.6282357  50.1270221
  50.9585911  -5.4232355  50.7427877  49.5312710  -5.0605595  50.3919305
  51.0847871  -9.8772496  56.2472491  51.0283073  -9.4203944  55.4080124
  51.6376214 -10.6381811  56.0695334  42.2760224   0.0850036  61.3312089
  42.1592608   1.0295469  61.2290779  41.4552670  -0.2176402  61.7197888
  52.1636759  -5.1899828  52.1768681  52.9982362  -5.6218629  51.9946156
  52.0021101  -5.3617814  53.1045576  51.8182651  -8.6867715  53.5425021
  51.7631455  -8.8523443  52.6013465  51.1928706  -7.9791682  53.6987210
  49.1328558  -6.3818803  72.8678583  50.0019718  -6.2078150  72.5065218
  48.6535309  -5.5624386  72.7454313  43.3014738   0.7378298  64.5468017
  44.2041985   0.7701909  64.8634512  43.0752108  -0.1921251  64.5614353
  45.0568340  -0.5090715  61.2078096  44.1063971  -0.5088854  61.0942468
  45.3600826  -1.2557981  60.6914130  60.7921034   5.3269823  62.2723858
  61.4299444   5.2076571  61.5687198  60.6741877   6.2750667  62.3311810
  57.6010740   5.2797251  62.2085383  57.2629251   5.1638316  61.3205918
  58.4700508   4.8788416  62.1886389  53.4597556   7.1332728  58.1982274
  52.8962421   7.0422665  57.4298561  53.3449951   6.3132632  58.6784766
  58.0830523   6.4332103  68.1671588  58.0719164   6.0384901  67.2952092
  58.2451162   5.6998176  68.7605360  51.0061988   8.6283919  61.0366494
  51.7983279   8.2874744  60.6212793  51.2458638   8.7378894  61.9568647
  59.0397114  10.8003695  53.5096739  58.3885094  11.3857776  53.1230752
  59.8341477  11.3309890  53.5691776  52.9652741   7.8892833  53.9083873
  53.7383617   7.3421820  53.7696749  53.3178140   8.7537082  54.1198334
  54.8037784   9.2169215  67.1150772  54.5127650  10.1214846  66.9997438
  55.4394768   9.2585742  67.8294842  55.7293991   6.5946063  63.7052132
  56.3257563   6.3702086  62.9909095  55.7868962   5.8530809  64.3077580
  55.3019019   4.0485499  51.5402323  55.5544540   3.5267020  50.7785786
  54.3643578   3.8851644  51.6429006  60.3462302   3.0521277  59.3477066
  61.1325391   2.6340700  58.9967483  60.6101006   3.9567369  59.5158714
  60.5172379   8.4894127  54.0465723  59.8818212   8.5628754  54.7586627
  60.1869786   9.0787726  53.3684802  65.7470729   2.9896510  60.2510045
  66.4795901   2.4195727  60.4847874  64.9910085   2.6018111  60.6916550
  55.0215308   5.9513605  53.7426698  54.9051566   5.2758508  54.4107782
  55.1317568   5.4645979  52.9258851  57.3646849   5.4123752  57.4473387
  57.0005056   4.8854373  58.1586308  58.2213965   5.0222221  57.2739872
  63.2696150  -3.2981916  64.7104653  62.9379474  -2.4286505  64.4865868
  62.6741763  -3.6145632  65.3898684  57.0052336   0.4413651  52.4434736
  57.1726738   1.3093888  52.8105207  56.8149505   0.6040933  51.5196025
  59.7627669   8.9030630  64.1100566  59.4628392   9.8055669  64.0016373
  59.4178729   8.6362814  64.9621719  53.2140151   5.3544427  60.1437270
  52.2890647   5.2220641  60.3514962  53.4624564   6.1338646  60.6407213
  63.1624813   1.4213171  61.7898003  62.2541690   1.3528579  61.4956764
  63.1112409   1.8985116  62.6179829  56.9841557   2.8971309  53.4281402
  56.8641182   3.3428360  54.2666883  56.2894145   3.2456627  52.8694940
  50.5748962   4.9977701  60.9781059  50.7041343   5.2512180  61.8920471
  49.8946413   5.5905409  60.6585714  54.7448449  15.6674951  57.0771534
  54.6672479  16.6182776  57.1560014  54.1410093  15.3220823  57.7346460
  57.2365679   2.8402816  69.7332900  56.4599013   3.3996736  69.7235765
  57.8756242   3.3259599  70.2547771  65.0286459  -0.3770391  63.5675877
  64.3860840  -0.0837858  62.9215672  64.5241388  -0.4917471  64.3729074
  62.6826623   3.3692782  54.2561736  63.5944479   3.6020169  54.0809434
  62.1736270   3.9529826  53.6936815  55.4912051   5.6488270  69.2950867
  56.2326735   6.1873313  69.0185691  54.7849036   6.2754558  69.4522419
  60.9667391   7.7917410  67.8923029  61.3750747   7.3499821  67.1477661
  60.2444652   7.2170038  68.1457222  57.3198461   2.7290017  65.2656586
  58.1659656   3.1529430  65.4091235  57.2597098   2.0723641  65.9595149
  61.2896205   8.3518601  61.6475318  60.6605068   8.5164315  60.9451386
  60.9021867   8.7660210  62.4186282  65.1685437   9.2873038  59.0019682
  64.4836475   9.6671940  58.4516715  65.2529287   9.8968365  59.7351629
  60.4697906   0.3894385  66.9237760  60.2258838   1.1436446  66.3872035
  60.7457837   0.7679733  67.7585007  62.4236369   6.9332997  65.6015025
  62.6353264   7.5764757  64.9249406  62.3766117   6.0995314  65.1336955
  60.0262598  -0.4549182  62.5051597  59.1647077  -0.1567928  62.7968335
  60.0525032  -0.2378783  61.5732630  56.8424167   8.0893009  58.9125403
  57.3062513   8.3680712  58.1230025  56.5780965   7.1876453  58.7298494
  53.7348248   7.6364490  61.8505166  54.3049605   8.0651759  61.2122651
  54.3256360   7.3547075  62.5489352  55.7793053   4.2116161  55.7214968
  56.4817097   4.6637205  56.1888894  55.4473682   3.5699980  56.3494861
  54.2273415   2.8027918  70.0966177  53.5972075   3.4844199  70.3301574
  54.1209503   2.6910999  69.1519316  49.5218387   2.4699714  61.0232102
  48.7317441   2.7257242  60.5472212  50.0129635   3.2848052  61.1284142
  63.5382197   9.8104953  63.7737382  64.3599640   9.4085140  63.4920064
  63.5344600   9.7073187  64.7253498  51.4733133   2.8344293  57.9815578
  50.6764296   2.9462987  58.4999074  51.2458725   3.1730945  57.1156469
  57.3038800   9.3588996  65.9298093  57.3683233   9.8209403  66.7656265
  56.5949724   8.7286361  66.0580403  47.8056090   2.7230204  63.4547092
  48.0564129   3.6077214  63.7204668  48.3415639   2.5434806  62.6822184
  71.6288190   6.1543701  60.1222354  70.8751898   5.5851099  59.9666358
  71.7635731   6.1206366  61.0692989  57.0186818  11.0257104  55.7977073
  56.8832493  11.8708639  56.2261921  57.5596630  11.2276381  55.0343007
  53.5054158  -2.8951316  72.4591429  53.1121103  -3.4485118  73.1339073
  54.3220298  -2.5840738  72.8497946  50.4716215   8.5432542  56.3704998
  50.9840736   9.3375792  56.5210563  51.1238928   7.8458832  56.3038600
  52.2811100  11.6598298  58.4527752  52.4577728  12.5816263  58.2648735
  53.0767933  11.3456717  58.8822131  56.4222118  -1.4793437  70.0511685
  57.1631832  -0.8786284  69.9716148  56.6540041  -2.2215800  69.4929728
  51.5663457   3.7062930  68.3289915  51.4516972   2.8048187  68.6297014
  50.7107974   3.9526627  67.9774731  58.6455294  11.6480670  69.9277415
  58.2019148  10.8617049  69.6098320  59.3072508  11.8359821  69.2621306
  53.4042415  13.1776472  64.4538094  53.9549841  13.0493535  63.6815088
  52.5653891  13.4771361  64.1032987  60.7436532  11.9283470  67.9558817
  60.7255008  12.7492351  67.4639086  61.6656452  11.8037545  68.1808958
  57.2009586   9.4427600  68.7982325  57.7337923   8.6815888  68.5681633
  56.6723668   9.1501251  69.5406479  60.3679281  -5.4512334  64.3275967
  60.0243551  -4.5610693  64.2515077  60.7358244  -5.6410677  63.4645552
  48.4365132   6.8721196  57.1464569  49.2740354   7.2818204  56.9298277
  48.6143400   5.9320638  57.1164763  60.3329564   4.5396277  52.8348402
  59.8176188   5.3100881  53.0736789  60.0606873   3.8661413  53.4581463
  57.9176675  -0.6154023  57.8933640  57.0618272  -1.0047172  57.7139279
  58.3303627  -0.5362062  57.0333426  59.4475822  -3.0807679  62.2925200
  58.9440617  -3.1177544  61.4793005  59.7406429  -2.1714937  62.3521857
  55.6918708  -2.9968950  61.2991382  56.5571704  -3.1926141  60.9397271
  55.7596217  -3.2258598  62.2260738  65.3063838   7.2928631  54.7701575
  64.5293281   6.9539791  54.3256737  65.9855319   7.2981255  54.0956540
  60.1215867   2.4123369  54.6608183  59.8166003   2.7269518  55.5118326
  61.0746309   2.4904789  54.7035516  58.5662299   8.5713592  56.3101137
  58.0383661   7.8366352  55.9974374  58.0649802   9.3488268  56.0641105
  63.5455145   6.7662613  61.4268183  62.8878820   7.4561874  61.5148312
  64.3495544   7.1559045  61.7702170  53.2981027  -0.7666742  58.6707749
  53.8724779  -0.9891560  57.9380941  53.8852009  -0.6978047  59.4236350
  62.3560604   5.1206985  59.4772125  62.8692486   5.7536977  59.9793835
  63.0061828   4.5208181  59.1115485  53.6250614   1.2637719  52.6903634
  52.7887926   1.6012406  53.0112909  53.4855384   1.1286699  51.7530771
  55.6003694  -3.8925493  57.3982818  54.9468107  -4.2076476  56.7739433
  55.5584169  -4.5149752  58.1242641  56.7114899   6.3893802  49.3136110
  55.8041961   6.1583056  49.5127259  57.2085931   5.5931422  49.5010092
  59.6182978  15.0991310  52.2332796  58.9444677  15.4023006  52.8417754
  60.0048800  15.9020390  51.8838253  58.8341435   2.5956441  61.7230466
  57.9163996   2.8171388  61.5652154  59.2501578   2.6702751  60.8642173
  59.6176483   3.9947857  56.8533146  60.3648302   4.5069254  56.5440268
  59.8868072   3.6731909  57.7137539  57.8903133   6.4906397  53.8360100
  56.9814352   6.2065430  53.9332570  57.9198217   6.9105476  52.9763407
  63.1222400  10.1012987  57.6051268  62.6684727   9.2603897  57.6616458
  62.4916367  10.7374385  57.9426048  62.0655320   1.0304973  58.8351935
  61.3278077   0.5182359  59.1662178  62.3182093   0.5905354  58.0235212
  61.5655339  11.9389483  58.5401086  61.8578314  12.4994541  57.8213451
  62.0753960  12.2318044  59.2954245  62.1666947  -6.1918775  59.4293704
  62.4725824  -7.0521412  59.1419620  62.8919552  -5.6001155  59.2292698
  48.4591303   4.2111911  57.8175302  48.2615703   3.6181272  57.0926369
  47.9037967   3.9064122  58.5351241  56.4388027   4.1035018  59.9369896
  56.4936637   3.1508854  59.8612372  55.6279229   4.2594457  60.4211194
  57.5879221   8.0315141  51.1748179  57.1498651   7.3151000  50.7153816
  58.3289661   8.2591256  50.6133270  54.3780387   2.7212078  57.6960274
  53.5648252   3.0206248  58.1025467  54.8739381   2.3267766  58.4134757
  56.5288965  12.7169835  59.6294539  56.4865143  12.9430681  58.7003071
  57.4451663  12.4833209  59.7780340  59.9754598   3.1853902  66.5275168
  60.3303986   3.4125375  67.3869634  60.6226730   3.5172279  65.9052424
  65.7052335   6.3072338  57.2324497  65.5670234   6.4973934  56.3045687
  65.3488554   7.0691721  57.6892548  53.8694462   0.2930433  63.3121509
  54.5093841   0.1519192  62.6144473  53.0371992   0.0064946  62.9360111
  65.7321715   8.3748865  62.2435769  66.1658222   8.2824154  63.0918823
  66.4453296   8.3506365  61.6055785  54.6454765   9.5932864  59.4256502
  55.4395364   9.0983184  59.2239077  53.9346458   9.0650727  59.0624207
  59.4649610  11.9750959  63.7768869  59.5186632  12.5441895  64.5446585
  58.5964391  12.1452844  63.4122907  50.9537529   3.7375945  55.5016254
  50.0235117   3.6760401  55.7186217  51.0495001   3.2151898  54.7052896
  50.8723078   0.2630758  58.0894496  51.1329895   1.1776091  57.9803657
  51.6940250  -0.2044799  58.2391109  52.3448003   1.6768515  65.2593321
  53.0171057   1.4685877  64.6105970  51.5177790   1.4790601  64.8198553
  66.5937265   8.4172566  64.7768654  66.7873155   9.3218376  65.0227929
  66.4937883   7.9579985  65.6107239  58.2473575  -1.6969544  67.2758982
  57.6001490  -0.9979594  67.1823458  59.0174591  -1.2633400  67.6435230
  61.6552373   8.5679308  70.3509535  61.5037880   8.3389860  69.4339619
  61.6457053   9.5249910  70.3640880  58.4237710   6.1411221  65.3355801
  59.3529770   6.2922381  65.1624769  58.0028740   6.2295242  64.4804448
  57.2226041  10.1661886  63.1054339  57.0837127   9.7980670  63.9780277
  56.4340638  10.6809525  62.9338297  57.8174193  15.2670982  54.4479875
  57.9925949  14.7959025  55.2625498  57.1306981  15.8936748  54.6761136
  58.7731257   9.5443488  60.4943177  58.4381089   9.5044258  61.3900827
  58.2735202   8.8788204  60.0213587  52.7475501   4.9511118  66.0195758
  52.6095298   4.2191357  66.6207297  53.6580424   4.8620018  65.7379946
  61.7090448   6.8899523  50.7680236  61.0919619   6.1646351  50.6713289
  61.2406937   7.6508883  50.4247311  55.3757801   4.6631078  65.5079437
  56.0857420   4.0224270  65.4666056  55.3327109   4.9143972  66.4305618
  63.3644580  11.5998431  68.4286017  63.3057126  10.9157651  67.7616600
  63.7664098  12.3417421  67.9766643  54.0886735   1.6496295  67.3275077
  53.5524092   1.1987034  67.9796673  53.5003444   1.7842204  66.5845541
  52.3835279  18.4160345  61.2219736  52.6231877  19.0478869  61.8998754
  51.5404475  18.0648385  61.5085095  53.4988994   1.1084947  49.8901541
  52.6218460   0.9873748  49.5263787  53.9746747   0.3171025  49.6380429
  63.3661987   9.5638015  66.6599996  62.4788766   9.2263937  66.7826395
  63.9360538   8.8321046  66.8968762  45.0191134   5.8962107  59.9843048
  45.7062174   5.5823837  59.3964063  44.8639263   6.8003471  59.7110299
  49.8225856   0.7852303  64.4128071  49.7384045   0.1777973  63.6778481
  49.0008563   1.2761321  64.4137568  56.8963141  14.2239467  63.6261240
  56.8233312  15.0294439  64.1380544  56.4540534  14.4231433  62.8009261
  56.6852920  13.4611237  57.1364061  55.9020442  14.0032917  57.2302286
  57.3845665  13.9785217  57.5358302  59.9949570  -0.7294133  59.7798266
  60.4918270  -1.4824171  59.4599337  59.2236552  -0.6929817  59.2141476
  67.8479328   4.9746232  61.4216558  67.8369204   5.8570948  61.0510491
  66.9796707   4.6217783  61.2271095  59.3561824  14.1226301  65.7819398
  60.0689796  14.7573766  65.7095300  58.8651853  14.2190167  64.9659400
  61.0779351   8.0277554  57.3536690  60.1435630   8.1479016  57.1841394
  61.2556019   7.1250021  57.0896700  56.5784539   1.4123250  59.5069951
  56.2082327   0.8594290  60.1950857  57.0743631   0.8081383  58.9544951
  64.4651902   3.8694873  57.8886724  64.9312355   4.7022865  57.8147027
  64.9159403   3.4039855  58.5931983  54.4073738  11.8720745  66.6024969
  55.1083197  12.5057228  66.7554363  53.9368853  12.2135476  65.8420608
  62.5328133  10.2138694  54.8872876  62.8087977  10.0995289  55.7966750
  61.6632632   9.8156179  54.8485049  62.4368565  -3.7624540  61.9277625
  61.5231645  -3.5320313  62.0959832  62.8661667  -3.6786096  62.7791658
  62.2075024   4.4265352  64.4277519  61.5546474   4.6741260  63.7729972
  62.5855403   3.6129490  64.0939997  59.1682197  14.4625045  58.5305690
  59.3504592  13.6446701  58.9933442  59.9915183  14.6792738  58.0930580
  59.5024363  13.3893230  55.7920738  60.0312129  12.8785685  55.1790900
  59.7652583  13.0735761  56.6566271  58.2562597   5.1685163  70.9143556
  57.5803234   5.0679293  71.5845932  59.0790230   5.0124377  71.3779554
  50.0041456  11.4057100  63.5356072  50.5894892  10.6600788  63.6683976
  49.8066294  11.7161056  64.4192736  52.8580111  14.4408347  58.5518514
  52.1890486  14.9254475  58.0682554  52.7192981  14.6877568  59.4661893
  44.5959110   3.9762700  62.2560515  44.6343210   3.4426291  63.0497633
  44.0899403   3.4497905  61.6371492  56.9985379  16.4752091  65.1501172
  57.5503687  16.6383712  65.9150258  57.3391573  17.0656528  64.4781197
  51.9749873  -1.1772760  65.7523057  52.0391199  -0.3157929  65.3400455
  51.9116993  -1.7898758  65.0195416  51.4502145   0.8950373  69.3996091
  52.0774184   0.5127450  70.0133616  50.5930064   0.6764575  69.7651784
  61.8496254  11.3013348  71.0049827  62.3936158  11.9143306  70.5104782
  61.2683099  11.8592927  71.5216840  48.2267688   2.7026802  55.3314446
  48.5221129   1.7937481  55.2781500  47.3255724   2.6814542  55.0095449
  60.1353767  14.4234066  62.1364855  60.0104906  13.6223806  61.6275800
  60.7932858  14.9180260  61.6478825  51.7561935   0.7782799  61.3141995
  51.0348521   1.3918766  61.1749468  52.5455191   1.3140563  61.2358641
  62.1988675  12.2243086  63.7644405  61.2519011  12.1048437  63.6922731
  62.5471448  11.3365584  63.8470666  54.5588248  -1.8862775  67.5882647
  55.0822650  -1.6400478  68.3508956  54.3400582  -1.0542740  67.1685784
  49.9555530   0.3840900  55.4553771  49.6268236  -0.4961721  55.2728877
  50.3094900   0.3288568  56.3430161  59.2035108  12.0195802  59.9648757
  59.0560071  11.0912510  60.1456327  60.0288602  12.0415893  59.4805832
  53.0697353   0.6713870  55.8229249  53.4093425   1.1999791  55.1007857
  53.5169473   1.0094276  56.5987816  62.8069230  12.8424361  61.0513630
  63.7315778  12.6367223  60.9138081  62.6384534  12.5940762  61.9602971
  55.7640794  -0.9449080  65.2732317  55.4237614  -1.7441267  65.6752997
  55.0579800  -0.6447369  64.7009150  56.4157265  -3.8599767  63.7259640
  57.2383335  -4.3339289  63.6038530  56.6595329  -3.0809284  64.2258326
  55.0565500  -0.8311509  54.0222542  55.7773862  -0.4530256  53.5186259
  54.4330804  -0.1122632  54.1257520  59.1996623  -0.1266360  54.9580874
  59.4160237   0.7558278  54.6569702  58.7190690  -0.5180146  54.2286516
  53.9395844   2.8319353  61.5351619  53.7940425   3.1459656  62.4275900
  53.4621048   3.4504254  60.9822517  55.7992227  -0.1778099  61.5832508
  55.7853796  -1.0737005  61.2464806  56.5164655  -0.1707435  62.2170794
  57.6518358   0.2559242  63.6285636  57.3936136   1.1776312  63.6269966
  57.1203398  -0.1410324  64.3186100  62.5964546  13.3610029  56.4075721
  62.7701424  12.7956451  55.6549574  63.0893438  14.1610924  56.2255211
  48.4141506   5.3724698  64.4739280  47.8694974   6.1484506  64.6059554
  49.2920856   5.7195502  64.3158401  55.2029123  -1.2963718  56.8520078
  55.3245034  -2.2247072  57.0510966  54.9131165  -1.2825032  55.9398394
  58.0720313  -3.6108808  59.9886798  58.0942010  -3.5469475  59.0338778
  58.4888372  -4.4504299  60.1827304  68.4503938   6.1246452  58.0266021
  68.8935084   5.3753777  57.6285144  67.5730448   6.1156588  57.6439753
  63.5839719  12.6776793  53.5072619  64.2790624  13.2983486  53.7259934
  63.9262869  11.8272144  53.7824997  49.2007528   4.4994594  67.3669437
  48.4589264   4.6477229  67.9534067  48.8800272   4.7602860  66.5036186
  65.4831142  10.1276499  55.0359950  66.0082466  10.4663771  54.3109270
  65.3953495   9.1923514  54.8523085  57.1451191  14.0410572  67.1649827
  57.4538317  13.7959719  68.0372526  57.9426673  14.2457211  66.6768697
  57.1671803  16.1948482  59.3955203  56.7276793  15.7024861  60.0888060
  57.9179920  15.6521450  59.1547279  49.6464142  12.3860023  59.3979831
  50.4722162  12.0863795  59.0178475  49.2958194  11.6167645  59.8469620
  54.6145675  11.7386491  61.4677505  53.9925684  11.0757196  61.1679733
  55.2850542  11.7647623  60.7851153  47.8472747  10.3046349  60.3568765
  47.0104655   9.8768524  60.1752766  47.8196392  10.4978793  61.2939556
  54.6870202   0.2168279  71.0610011  54.7358358   1.0930402  70.6787781
  55.2292717  -0.3254328  70.4881654  65.1725048  10.7609402  70.3411148
  64.3820592  10.7433541  69.8015648  64.9358403  11.2997696  71.0960185
  65.2922923   7.6101869  67.6543877  65.3420928   7.4451876  68.5959399
  65.1836847   6.7429128  67.2641757  54.1759182  10.2890414  54.9435966
  54.3247302  10.9725879  54.2902638  54.9825625  10.2695504  55.4585421
  62.5826686   3.5932797  68.9703183  63.4836548   3.4539261  68.6787181
  62.6574660   3.7587251  69.9101361  56.9169491   0.9699651  67.8156370
  56.0472800   1.2633217  67.5438958  57.1528971   1.5540096  68.5363633
  66.7941120  10.0298810  67.8985898  66.5025928  10.3928791  68.7349359
  66.1813251   9.3165818  67.7199230  67.9936802   7.5951690  60.4188468
  68.8283694   8.0341494  60.5826029  68.1295931   7.1190343  59.5996714
  65.0428308   5.1531425  66.3665956  65.5182430   5.3459071  65.5584808
  64.1193874   5.2090611  66.1209340  51.9311815   6.3155592  55.9497034
  51.6857857   5.4117922  56.1477245  52.1007729   6.3172742  55.0076512
  59.6208525  -2.8120732  65.3321790  60.1390469  -2.0759705  65.0068279
  59.2663658  -2.5056738  66.1668549  51.2007462   2.0483950  53.4483196
  50.5076707   2.1228304  52.7923232  50.9559214   1.2844293  53.9704713
  59.8721119  -6.3920449  60.8522687  60.1522873  -7.0597260  61.4783113
  60.6571726  -6.1991354  60.3397351  57.6754587  12.7838545  52.4147713
  57.1028554  13.4028732  51.9618185  58.2487381  13.3337906  52.9487635
  63.7429977   2.0297185  64.5994262  64.6947400   2.1295282  64.6206486
  63.5733428   1.2375453  65.1092346  61.7644357  -0.8847232  64.7853663
  61.1694289  -0.6042219  64.0900151  61.4794053  -0.3953331  65.5570404
  60.8951847  13.0675695  53.5456295  61.8282520  13.0021257  53.7489171
  60.8075060  13.9031962  53.0870828  63.5239864  12.3841565  50.5060243
  63.4453495  12.0501429  51.3996001  64.3449531  12.8763333  50.5051715
  66.2218055   5.2503305  63.7136561  66.1894375   4.3119305  63.8996245
  66.8318679   5.3287341  62.9802386  58.0601386   4.1199358  49.7563766
  59.0060491   3.9905566  49.8252184  57.6815631   3.3814019  50.2333194
  66.3712544   2.0414348  63.7594845  65.8551592   1.2572805  63.5724774
  67.2552492   1.7133065  63.9241364  64.0323270  -4.2144636  59.7190657
  63.8348092  -4.5229548  60.6033989  64.6422976  -3.4882998  59.8488587
  72.0394605   6.3119311  62.8542598  72.7697993   6.0504599  63.4150302
  71.4301550   5.5748033  62.8944666  70.1209902   4.4527174  63.4517049
  69.3943066   4.3183139  62.8433541  69.7057189   4.7604003  64.2573767
  57.9440078   8.1717104  71.2164422  58.8643088   8.3495703  71.4104469
  57.9089661   7.2273149  71.0644122  56.2444303   2.0449334  49.6918651
  55.3375758   1.7482447  49.7681364  56.5220284   1.7479152  48.8252937
  47.1622243   3.3655697  60.1417697  46.8425028   2.5121005  59.8492071
  46.6155672   3.5804275  60.8975664  50.9402151   6.0818138  63.8587204
  51.1588161   7.0135246  63.8775237  51.3527925   5.7226113  64.6442007
  57.8606369  -3.4113776  55.8462892  57.0507097  -3.7566691  56.2218138
  58.5490786  -3.7206233  56.4350504  59.7896917  -4.3335730  57.4687189
  60.3427956  -3.9140276  58.1277212  60.0267003  -5.2599981  57.5110145
  55.8130016   1.6551344  73.2489953  55.7126743   2.6045701  73.1802044
  55.5951558   1.3269583  72.3766023  55.0143088  -1.0963731  49.8330630
  55.8762252  -0.7708833  50.0926447  55.1993432  -1.8832235  49.3203696
  47.0310503   6.9858609  62.1110819  46.3373975   6.5712562  61.5980773
  47.7783494   7.0279145  61.5144238  63.1675724  -2.2235204  56.9765853
  62.5874393  -1.5650400  56.5943905  62.9011657  -3.0457860  56.5653270
  61.6179291  -2.8230147  59.1787173  62.1179069  -2.7113612  58.3701492
  62.2614898  -3.1269094  59.8187982  55.6761286   5.0848483  72.0655014
  55.1928368   5.8848843  72.2718903  55.7622225   5.0956428  71.1122458
  48.9447246   6.9176863  59.9876834  48.9217934   7.0164550  59.0358717
  49.2547882   7.7642013  60.3094000  51.6034624   8.9753018  64.1023448
  52.5577877   8.9436960  64.0353380  51.4047147   8.5143641  64.9173674
  52.1934006   7.5454134  66.6694246  53.0126895   8.0398212  66.6929083
  52.4670814   6.6286102  66.6411813  61.9500602  -0.0635114  56.0322201
  61.0626457   0.2214537  55.8142396  62.3654591  -0.2241351  55.1849478
  65.3015138  -0.0388593  59.7476540  66.0775528   0.4507859  60.0201157
  64.5763272   0.3869461  60.2048410  67.7387697   0.6739026  60.8050481
  68.3332188   0.4334762  60.0943789  67.8114281  -0.0453843  61.4324017
  49.9584853  14.5172637  61.1193646  49.8239321  13.7573038  60.5531644
  49.5416915  15.2413537  60.6522435  61.0943816   9.7009561  50.1270221
  61.7979666   9.9059563  50.7427877  60.3706464  10.2686323  50.3919305
  61.9241626   5.4519422  56.2472491  61.8676827   5.9087973  55.4080124
  62.4769968   4.6910106  56.0695334  65.7346432   1.2409154  57.0722611
  65.4783366   0.8405789  57.9030819  65.1099300   1.9552948  56.9472750
  70.0458770   3.9805227  59.5793902  69.4858328   4.0498416  60.3525464
  69.4402273   3.8046212  58.8593398  53.1153979  15.4141954  61.3312089
  52.9986363  16.3587387  61.2290779  52.2946425  15.1115516  61.7197888
  63.0030513  10.1392090  52.1768681  63.8376117   9.7073288  51.9946156
  62.8414856   9.9674104  53.1045576  62.6576405   6.6424203  53.5425021
  62.6025209   6.4768475  52.6013465  62.0322461   7.3500236  53.6987210
  47.4468920   1.8792268  67.3686443  48.0927784   1.3691221  67.8573668
  47.2386071   2.6160949  67.9429868  59.9722312   8.9473115  72.8678583
  60.8413472   9.1213767  72.5065218  59.4929064   9.7667532  72.7454313
  55.9672531  -3.8567688  53.1210339  55.9551201  -2.9125848  53.2778610
  56.8595953  -4.0397542  52.8269800  54.1408493  16.0670216  64.5468017
  55.0435739  16.0993826  64.8634512  53.9145863  15.1370667  64.5614353
  55.8962095  14.8201203  61.2078096  54.9457726  14.8203064  61.0942468
  56.1994581  14.0733937  60.6914130  59.7824650  -7.2624911  57.3756276
  59.0157046  -7.8166425  57.5212958  60.1935355  -7.1903042  58.2370427
  51.7866411  -0.9740115  71.4661457  52.6497873  -1.3303311  71.6764782
  51.2131822  -1.3126221  72.1536861  71.6314788  20.6561741  62.2723858
  72.2693198  20.5368488  61.5687198  71.5135631  21.6042585  62.3311810
  68.4404494  20.6089169  62.2085383  68.1023006  20.4930234  61.3205918
  69.3094263  20.2080334  62.1886389  64.2991310  22.4624645  58.1982274
  63.7356175  22.3714582  57.4298561  64.1843705  21.6424550  58.6784766
  61.8455742  23.9575837  61.0366494  62.6377034  23.6166662  60.6212793
  62.0852392  24.0670812  61.9568647  69.8790869  26.1295613  53.5096739
  69.2278849  26.7149694  53.1230752  70.6735232  26.6601808  53.5691776
  63.8046496  23.2184750  53.9083873  64.5777372  22.6713737  53.7696749
  64.1571895  24.0829000  54.1198334  66.5687745  21.9237981  63.7052132
  67.1651318  21.6994003  62.9909095  66.6262717  21.1822727  64.3077580
  66.1412774  19.3777416  51.5402323  66.3938294  18.8558938  50.7785786
  65.2037333  19.2143562  51.6429006  71.1856057  18.3813195  59.3477066
  71.9719146  17.9632618  58.9967483  71.4494761  19.2859287  59.5158714
  71.3566134  23.8186045  54.0465723  70.7211967  23.8920672  54.7586627
  71.0263540  24.4079644  53.3684802  76.5864484  18.3188428  60.2510045
  77.3189656  17.7487645  60.4847874  75.8303839  17.9310028  60.6916550
  65.8609063  21.2805522  53.7426698  65.7445321  20.6050426  54.4107782
  65.9711322  20.7937896  52.9258851  68.2040603  20.7415669  57.4473387
  67.8398811  20.2146290  58.1586308  69.0607719  20.3514139  57.2739872
  74.1089904  12.0310002  64.7104653  73.7773229  12.9005413  64.4865868
  73.5135517  11.7146286  65.3898684  67.8446090  15.7705569  52.4434736
  68.0120493  16.6385806  52.8105207  67.6543260  15.9332851  51.5196025
  70.6021424  24.2322548  64.1100566  70.3022147  25.1347587  64.0016373
  70.2572483  23.9654731  64.9621719  64.0533905  20.6836345  60.1437270
  63.1284402  20.5512559  60.3514962  64.3018318  21.4630564  60.6407213
  74.0018567  16.7505088  61.7898003  73.0935445  16.6820497  61.4956764
  73.9506163  17.2277033  62.6179829  67.8235311  18.2263227  53.4281402
  67.7034937  18.6720277  54.2666883  67.1287900  18.5748544  52.8694940
  61.4142716  20.3269618  60.9781059  61.5435097  20.5804097  61.8920471
  60.7340167  20.9197326  60.6585714  65.5842203  30.9966868  57.0771534
  65.5066233  31.9474694  57.1560014  64.9803847  30.6512741  57.7346460
  68.0759433  18.1694734  69.7332900  67.2992767  18.7288654  69.7235765
  68.7149996  18.6551517  70.2547771  75.8680214  14.9521527  63.5675877
  75.2254594  15.2454060  62.9215672  75.3635142  14.8374447  64.3729074
  73.5220377  18.6984700  54.2561736  74.4338234  18.9312087  54.0809434
  73.0130025  19.2821744  53.6936815  71.8061145  23.1209328  67.8923029
  72.2144501  22.6791738  67.1477661  71.0838407  22.5461955  68.1457222
  68.1592215  18.0581934  65.2656586  69.0053410  18.4821348  65.4091235
  68.0990853  17.4015559  65.9595149  72.1289960  23.6810518  61.6475318
  71.4998822  23.8456232  60.9451386  71.7415622  24.0952128  62.4186282
  76.0079192  24.6164956  59.0019682  75.3230230  24.9963858  58.4516715
  76.0923041  25.2260283  59.7351629  71.3091661  15.7186303  66.9237760
  71.0652592  16.4728363  66.3872035  71.5851591  16.0971650  67.7585007
  73.2630123  22.2624915  65.6015025  73.4747019  22.9056675  64.9249406
  73.2159872  21.4287232  65.1336955  70.8656352  14.8742736  62.5051597
  70.0040831  15.1723989  62.7968335  70.8918787  15.0913135  61.5732630
  67.6817922  23.4184926  58.9125403  68.1456267  23.6972629  58.1230025
  67.4174720  22.5168371  58.7298494  64.5742003  22.9656408  61.8505166
  65.1443360  23.3943676  61.2122651  65.1650115  22.6838993  62.5489352
  66.6186808  19.5408079  55.7214968  67.3210851  19.9929122  56.1888894
  66.2867436  18.8991898  56.3494861  60.3612142  17.7991631  61.0232102
  59.5711196  18.0549160  60.5472212  60.8523389  18.6139969  61.1284142
  74.3775951  25.1396871  63.7737382  75.1993395  24.7377058  63.4920064
  74.3738354  25.0365105  64.7253498  62.3126887  18.1636211  57.9815578
  61.5158050  18.2754905  58.4999074  62.0852479  18.5022863  57.1156469
  68.1432555  24.6880914  65.9298093  68.2076987  25.1501321  66.7656265
  67.4343479  24.0578279  66.0580403  58.6449845  18.0522122  63.4547092
  58.8957883  18.9369132  63.7204668  59.1809393  17.8726723  62.6822184
  82.4681944  21.4835619  60.1222354  81.7145653  20.9143017  59.9666358
  82.6029486  21.4498284  61.0692989  67.8580572  26.3549021  55.7977073
  67.7226247  27.2000557  56.2261921  68.3990385  26.5568299  55.0343007
  64.3447912  12.4340601  72.4591429  63.9514858  11.8806800  73.1339073
  65.1614052  12.7451180  72.8497946  61.3109970  23.8724459  56.3704998
  61.8234490  24.6667710  56.5210563  61.9632683  23.1750750  56.3038600
  63.1204854  26.9890216  58.4527752  63.2971483  27.9108180  58.2648735
  63.9161688  26.6748635  58.8822131  67.2615873  13.8498480  70.0511685
  68.0025586  14.4505633  69.9716148  67.4933796  13.1076118  69.4929728
  71.5830287  27.2575388  67.9558817  71.5648762  28.0784269  67.4639086
  72.5050207  27.1329463  68.1808958  71.2073036   9.8779583  64.3275967
  70.8637305  10.7681225  64.2515077  71.5751999   9.6881241  63.4645552
  59.2758887  22.2013114  57.1464569  60.1134109  22.6110122  56.9298277
  59.4537154  21.2612556  57.1164763  71.1723319  19.8688194  52.8348402
  70.6569942  20.6392799  53.0736789  70.9000627  19.1953331  53.4581463
  68.7570430  14.7137895  57.8933640  67.9012026  14.3244746  57.7139279
  69.1697381  14.7929856  57.0333426  70.2869576  12.2484238  62.2925200
  69.7834372  12.2114374  61.4793005  70.5800183  13.1576981  62.3521857
  66.5312462  12.3322968  61.2991382  67.3965459  12.1365777  60.9397271
  66.5989971  12.1033320  62.2260738  76.1457593  22.6220549  54.7701575
  75.3687036  22.2831709  54.3256737  76.8249074  22.6273172  54.0956540
  70.9609622  17.7415286  54.6608183  70.6559757  18.0561436  55.5118326
  71.9140064  17.8196706  54.7035516  69.4056054  23.9005510  56.3101137
  68.8777415  23.1658269  55.9974374  68.9043556  24.6780186  56.0641105
  74.3848900  22.0954530  61.4268183  73.7272574  22.7853792  61.5148312
  75.1889299  22.4850962  61.7702170  64.1374781  14.5625176  58.6707749
  64.7118533  14.3400358  57.9380941  64.7245764  14.6313871  59.4236350
  73.1954358  20.4498903  59.4772125  73.7086240  21.0828895  59.9793835
  73.8455582  19.8500098  59.1115485  64.4644368  16.5929637  52.6903634
  63.6281681  16.9304324  53.0112909  64.3249138  16.4578617  51.7530771
  66.4397449  11.4366425  57.3982818  65.7861861  11.1215442  56.7739433
  66.3977923  10.8142165  58.1242641  67.5508654  21.7185720  49.3136110
  66.6435716  21.4874973  49.5127259  68.0479686  20.9223339  49.5010092
  70.4576733  30.4283227  52.2332796  69.7838431  30.7314924  52.8417754
  70.8442555  31.2312308  51.8838253  69.6735189  17.9248359  61.7230466
  68.7557751  18.1463306  61.5652154  70.0895333  17.9994669  60.8642173
  70.4570237  19.3239774  56.8533146  71.2042056  19.8361171  56.5440268
  70.7261827  19.0023827  57.7137539  68.7296887  21.8198315  53.8360100
  67.8208107  21.5357348  53.9332570  68.7591971  22.2397393  52.9763407
  73.9616155  25.4304904  57.6051268  73.5078482  24.5895814  57.6616458
  73.3310121  26.0666303  57.9426048  72.9049074  16.3596890  58.8351935
  72.1671831  15.8474277  59.1662178  73.1575848  15.9197272  58.0235212
  72.4049094  27.2681401  58.5401086  72.6972068  27.8286458  57.8213451
  72.9147715  27.5609962  59.2954245  73.0060702   9.1373142  59.4293704
  73.3119578   8.2770506  59.1419620  73.7313306   9.7290763  59.2292698
  59.2985058  19.5403829  57.8175302  59.1009457  18.9473190  57.0926369
  58.7431722  19.2356039  58.5351241  67.2781781  19.4326936  59.9369896
  67.3330391  18.4800772  59.8612372  66.4672983  19.5886375  60.4211194
  68.4272975  23.3607059  51.1748179  67.9892405  22.6442918  50.7153816
  69.1683416  23.5883173  50.6133270  65.2174141  18.0503995  57.6960274
  64.4042007  18.3498166  58.1025467  65.7133135  17.6559684  58.4134757
  67.3682719  28.0461752  59.6294539  67.3258898  28.2722598  58.7003071
  68.2845418  27.8125127  59.7780340  70.8148353  18.5145820  66.5275168
  71.1697741  18.7417293  67.3869634  71.4620484  18.8464197  65.9052424
  76.5446090  21.6364256  57.2324497  76.4063988  21.8265852  56.3045687
  76.1882309  22.3983638  57.6892548  64.7088216  15.6222351  63.3121509
  65.3487595  15.4811110  62.6144473  63.8765747  15.3356864  62.9360111
  76.5715469  23.7040783  62.2435769  77.0051976  23.6116072  63.0918823
  77.2847050  23.6798283  61.6055785  65.4848520  24.9224781  59.4256502
  66.2789118  24.4275101  59.2239077  64.7740212  24.3942644  59.0624207
  70.3043364  27.3042877  63.7768869  70.3580387  27.8733813  64.5446585
  69.4358146  27.4744762  63.4122907  61.7931283  19.0667863  55.5016254
  60.8628871  19.0052318  55.7186217  61.8888755  18.5443816  54.7052896
  61.7116832  15.5922676  58.0894496  61.9723650  16.5068009  57.9803657
  62.5334005  15.1247118  58.2391109  63.1841758  17.0060433  65.2593321
  63.8564811  16.7977795  64.6105970  62.3571544  16.8082519  64.8198553
  77.4331019  23.7464483  64.7768654  77.6266909  24.6510294  65.0227929
  77.3331637  23.2871902  65.6107239  69.0867330  13.6322374  67.2758982
  68.4395245  14.3312324  67.1823458  69.8568345  14.0658518  67.6435230
  72.4946128  23.8971226  70.3509535  72.3431634  23.6681778  69.4339619
  72.4850807  24.8541827  70.3640880  69.2631464  21.4703139  65.3355801
  70.1923524  21.6214298  65.1624769  68.8422494  21.5587160  64.4804448
  68.0619796  25.4953803  63.1054339  67.9230882  25.1272588  63.9780277
  67.2734392  26.0101443  62.9338297  68.6567948  30.5962900  54.4479875
  68.8319704  30.1250943  55.2625498  67.9700736  31.2228666  54.6761136
  69.6125011  24.8735406  60.4943177  69.2774844  24.8336176  61.3900827
  69.1128957  24.2080122  60.0213587  72.5484203  22.2191440  50.7680236
  71.9313373  21.4938268  50.6713289  72.0800691  22.9800801  50.4247311
  66.2151556  19.9922995  65.5079437  66.9251174  19.3516187  65.4666056
  66.1720864  20.2435890  66.4305618  74.2038334  26.9290349  68.4286017
  74.1450881  26.2449569  67.7616600  74.6057853  27.6709339  67.9766643
  64.9280490  16.9788213  67.3275077  64.3917847  16.5278952  67.9796673
  64.3397198  17.1134122  66.5845541  63.2229033  33.7452262  61.2219736
  63.4625631  34.3770787  61.8998754  62.3798230  33.3940302  61.5085095
  64.3382749  16.4376865  49.8901541  63.4612215  16.3165665  49.5263787
  64.8140502  15.6462943  49.6380429  74.2055742  24.8929933  66.6599996
  73.3182520  24.5555854  66.7826395  74.7754293  24.1612964  66.8968762
  55.8584889  21.2254024  59.9843048  56.5455929  20.9115754  59.3964063
  55.7033017  22.1295389  59.7110299  60.6619611  16.1144221  64.4128071
  60.5777800  15.5069890  63.6778481  59.8402317  16.6053239  64.4137568
  67.7356895  29.5531385  63.6261240  67.6627067  30.3586356  64.1380544
  67.2934288  29.7523351  62.8009261  67.5246675  28.7903155  57.1364061
  66.7414197  29.3324835  57.2302286  68.2239420  29.3077135  57.5358302
  70.8343325  14.5997784  59.7798266  71.3312024  13.8467747  59.4599337
  70.0630306  14.6362101  59.2141476  78.6873082  20.3038150  61.4216558
  78.6762958  21.1862865  61.0510491  77.8190462  19.9509701  61.2271095
  70.1955579  29.4518219  65.7819398  70.9083551  30.0865684  65.7095300
  69.7045607  29.5482085  64.9659400  71.9173105  23.3569472  57.3536690
  70.9829384  23.4770934  57.1841394  72.0949774  22.4541938  57.0896700
  67.4178294  16.7415167  59.5069951  67.0476081  16.1886208  60.1950857
  67.9137386  16.1373301  58.9544951  75.3045657  19.1986791  57.8886724
  75.7706109  20.0314782  57.8147027  75.7553157  18.7331772  58.5931983
  73.3721888  25.5430612  54.8872876  73.6481732  25.4287207  55.7966750
  72.5026387  25.1448097  54.8485049  73.2762320  11.5667378  61.9277625
  72.3625399  11.7971605  62.0959832  73.7055421  11.6505822  62.7791658
  73.0468778  19.7557270  64.4277519  72.3940228  20.0033177  63.7729972
  73.4249158  18.9421408  64.0939997  70.0075952  29.7916963  58.5305690
  70.1898346  28.9738619  58.9933442  70.8308938  30.0084655  58.0930580
  70.3418117  28.7185148  55.7920738  70.8705884  28.2077603  55.1790900
  70.6046337  28.4027678  56.6566271  60.8435210  26.7349017  63.5356072
  61.4288647  25.9892705  63.6683976  60.6460049  27.0452974  64.4192736
  63.6973865  29.7700265  58.5518514  63.0284241  30.2546392  58.0682554
  63.5586735  30.0169485  59.4661893  55.4352865  19.3054618  62.2560515
  55.4736964  18.7718208  63.0497633  54.9293158  18.7789823  61.6371492
  67.8379134  31.8044008  65.1501172  68.3897442  31.9675630  65.9150258
  68.1785327  32.3948446  64.4781197  62.8143627  14.1519158  65.7523057
  62.8784954  15.0133989  65.3400455  62.7510747  13.5393160  65.0195416
  62.2895900  16.2242291  69.3996091  62.9167939  15.8419368  70.0133616
  61.4323819  16.0056493  69.7651784  72.6890008  26.6305266  71.0049827
  73.2329912  27.2435224  70.5104782  72.1076853  27.1884844  71.5216840
  59.0661442  18.0318720  55.3314446  59.3614884  17.1229398  55.2781500
  58.1649478  18.0106459  55.0095449  70.9747521  29.7525984  62.1364855
  70.8498661  28.9515724  61.6275800  71.6326612  30.2472177  61.6478825
  62.5955689  16.1074716  61.3141995  61.8742275  16.7210684  61.1749468
  63.3848945  16.6432481  61.2358641  73.0382430  27.5535004  63.7644405
  72.0912765  27.4340355  63.6922731  73.3865203  26.6657502  63.8470666
  65.3982003  13.4429143  67.5882647  65.9216405  13.6891439  68.3508956
  65.1794336  14.2749178  67.1685784  60.7949284  15.7132817  55.4553771
  60.4661990  14.8330196  55.2728877  61.1488655  15.6580486  56.3430161
  70.0428863  27.3487720  59.9648757  69.8953825  26.4204428  60.1456327
  70.8682356  27.3707811  59.4805832  63.9091107  16.0005787  55.8229249
  64.2487180  16.5291708  55.1007857  64.3563228  16.3386193  56.5987816
  73.6462985  28.1716279  61.0513630  74.5709532  27.9659140  60.9138081
  73.4778288  27.9232680  61.9602971  66.6034548  14.3842838  65.2732317
  66.2631368  13.5850651  65.6752997  65.8973554  14.6844549  64.7009150
  67.2551020  11.4692150  63.7259640  68.0777089  10.9952629  63.6038530
  67.4989083  12.2482634  64.2258326  65.8959254  14.4980409  54.0222542
  66.6167617  14.8761662  53.5186259  65.2724558  15.2169286  54.1257520
  70.0390377  15.2025558  54.9580874  70.2553992  16.0850196  54.6569702
  69.5584444  14.8111771  54.2286516  64.7789599  18.1611271  61.5351619
  64.6334179  18.4751574  62.4275900  64.3014802  18.7796171  60.9822517
  66.6385981  15.1513819  61.5832508  66.6247550  14.2554912  61.2464806
  67.3558410  15.1584483  62.2170794  68.4912112  15.5851159  63.6285636
  68.2329890  16.5068230  63.6269966  67.9597153  15.1881594  64.3186100
  73.4358301  28.6901946  56.4075721  73.6095178  28.1248369  55.6549574
  73.9287192  29.4902841  56.2255211  66.0422877  14.0328199  56.8520078
  66.1638789  13.1044845  57.0510966  65.7524920  14.0466885  55.9398394
  68.9114068  11.7183110  59.9886798  68.9335765  11.7822443  59.0338778
  69.3282127  10.8787618  60.1827304  79.2897692  21.4538369  58.0266021
  79.7328838  20.7045694  57.6285144  78.4124202  21.4448506  57.6439753
  74.4233473  28.0068711  53.5072619  75.1184378  28.6275403  53.7259934
  74.7656624  27.1564062  53.7824997  76.3224897  25.4568416  55.0359950
  76.8476221  25.7955689  54.3109270  76.2347249  24.5215432  54.8523085
  68.0065557  31.5240400  59.3955203  67.5670548  31.0316778  60.0888060
  68.7573674  30.9813367  59.1547279  60.4857896  27.7151940  59.3979831
  61.3115916  27.4155712  59.0178475  60.1351948  26.9459563  59.8469620
  65.4539429  27.0678409  61.4677505  64.8319439  26.4049114  61.1679733
  66.1244296  27.0939541  60.7851153  58.6866501  25.6338267  60.3568765
  57.8498410  25.2060441  60.1752766  58.6590147  25.8270710  61.2939556
  65.5263957  15.5460197  71.0610011  65.5752112  16.4222319  70.6787781
  66.0686471  15.0037590  70.4881654  76.0118803  26.0901320  70.3411148
  75.2214346  26.0725459  69.8015648  75.7752157  26.6289614  71.0960185
  76.1316678  22.9393786  67.6543877  76.1814683  22.7743794  68.5959399
  76.0230601  22.0721045  67.2641757  65.0152936  25.6182332  54.9435966
  65.1641057  26.3017796  54.2902638  65.8219380  25.5987422  55.4585421
  73.4220440  18.9224714  68.9703183  74.3230303  18.7831179  68.6787181
  73.4968415  19.0879169  69.9101361  67.7563245  16.2991569  67.8156370
  66.8866555  16.5925135  67.5438958  67.9922726  16.8832014  68.5363633
  77.6334875  25.3590728  67.8985898  77.3419683  25.7220708  68.7349359
  77.0207006  24.6457736  67.7199230  78.8330557  22.9243608  60.4188468
  79.6677448  23.3633412  60.5826029  78.9689686  22.4482261  59.5996714
  75.8822063  20.4823342  66.3665956  76.3576184  20.6750989  65.5584808
  74.9587628  20.5382528  66.1209340  62.7705569  21.6447510  55.9497034
  62.5251611  20.7409840  56.1477245  62.9401484  21.6464660  55.0076512
  70.4602279  12.5171186  65.3321790  70.9784223  13.2532213  65.0068279
  70.1057412  12.8235179  66.1668549  62.0401217  17.3775867  53.4483196
  61.3470462  17.4520222  52.7923232  61.7952969  16.6136211  53.9704713
  70.7114873   8.9371469  60.8522687  70.9916627   8.2694658  61.4783113
  71.4965480   9.1300564  60.3397351  68.5148342  28.1130462  52.4147713
  67.9422309  28.7320650  51.9618185  69.0881136  28.6629824  52.9487635
  74.5823732  17.3589103  64.5994262  75.5341155  17.4587200  64.6206486
  74.4127182  16.5667371  65.1092346  72.6038111  14.4444686  64.7853663
  72.0088043  14.7249698  64.0900151  72.3187808  14.9338587  65.5570404
  71.7345602  28.3967613  53.5456295  72.6676275  28.3313174  53.7489171
  71.6468815  29.2323879  53.0870828  74.3633618  27.7133483  50.5060243
  74.2847250  27.3793346  51.3996001  75.1843285  28.2055251  50.5051715
  77.0611810  20.5795222  63.7136561  77.0288130  19.6411223  63.8996245
  77.6712433  20.6579259  62.9802386  68.8995140  19.4491275  49.7563766
  69.8454245  19.3197483  49.8252184  68.5209385  18.7105937  50.2333194
  77.2106298  17.3706266  63.7594845  76.6945347  16.5864722  63.5724774
  78.0946247  17.0424982  63.9241364  74.8717025  11.1147281  59.7190657
  74.6741846  10.8062369  60.6033989  75.4816731  11.8408920  59.8488587
  82.8788359  21.6411229  62.8542598  83.6091748  21.3796517  63.4150302
  82.2695305  20.9039951  62.8944666  80.9603657  19.7819092  63.4517049
  80.2336820  19.6475057  62.8433541  80.5450943  20.0895920  64.2573767
  67.0838058  17.3741252  49.6918651  66.1769513  17.0774364  49.7681364
  67.3614039  17.0771070  48.8252937  58.0015998  18.6947615  60.1417697
  57.6818782  17.8412923  59.8492071  57.4549426  18.9096193  60.8975664
  68.7000123  11.9178141  55.8462892  67.8900852  11.5725226  56.2218138
  69.3884540  11.6085685  56.4350504  70.6290672  10.9956188  57.4687189
  71.1821710  11.4151642  58.1277212  70.8660758  10.0691936  57.5110145
  66.6523771  16.9843262  73.2489953  66.5520498  17.9337619  73.1802044
  66.4345313  16.6561501  72.3766023  65.8536842  14.2328187  49.8330630
  66.7156006  14.5583085  50.0926447  66.0387186  13.4459683  49.3203696
  57.8704258  22.3150526  62.1110819  57.1767729  21.9004479  61.5980773
  58.6177249  22.3571063  61.5144238  74.0069479  13.1056713  56.9765853
  73.4268148  13.7641517  56.5943905  73.7405411  12.2834058  56.5653270
  72.4573045  12.5061771  59.1787173  72.9572823  12.6178305  58.3701492
  73.1008653  12.2022824  59.8187982  59.7841000  22.2468780  59.9876834
  59.7611689  22.3456468  59.0358717  60.0941637  23.0933931  60.3094000
  72.7894357  15.2656804  56.0322201  71.9020212  15.5506454  55.8142396
  73.2048346  15.1050567  55.1849478  76.1408893  15.2903325  59.7476540
  76.9169283  15.7799777  60.0201157  75.4157027  15.7161379  60.2048410
  78.5781451  16.0030944  60.8050481  79.1725942  15.7626680  60.0943789
  78.6508035  15.2838074  61.4324017  60.7978607  29.8464555  61.1193646
  60.6633075  29.0864956  60.5531644  60.3810669  30.5705455  60.6522435
  71.9337570  25.0301478  50.1270221  72.6373420  25.2351481  50.7427877
  71.2100219  25.5978240  50.3919305  72.7635380  20.7811340  56.2472491
  72.7070582  21.2379891  55.4080124  73.3163723  20.0202024  56.0695334
  76.5740186  16.5701071  57.0722611  76.3177121  16.1697707  57.9030819
  75.9493054  17.2844865  56.9472750  80.8852524  19.3097145  59.5793902
  80.3252082  19.3790334  60.3525464  80.2796028  19.1338129  58.8593398
  63.9547733  30.7433872  61.3312089  63.8380117  31.6879304  61.2290779
  63.1340179  30.4407433  61.7197888  73.8424268  25.4684007  52.1768681
  74.6769871  25.0365206  51.9946156  73.6808610  25.2966021  53.1045576
  73.4970160  21.9716121  53.5425021  73.4418964  21.8060392  52.6013465
  72.8716215  22.6792154  53.6987210  58.2862675  17.2084185  67.3686443
  58.9321538  16.6983139  67.8573668  58.0779826  17.9452867  67.9429868
  66.8066285  11.4724230  53.1210339  66.7944955  12.4166070  53.2778610
  67.6989707  11.2894375  52.8269800  66.7355849  30.1493120  61.2078096
  65.7851480  30.1494982  61.0942468  67.0388335  29.4025855  60.6914130
  70.6218405   8.0667006  57.3756276  69.8550800   7.5125493  57.5212958
  71.0329110   8.1388875  58.2370427  62.6260166  14.3551802  71.4661457
  63.4891627  13.9988607  71.6764782  62.0525576  14.0165697  72.1536861
  82.4708543  35.9853659  62.2723858  83.1086953  35.8660406  61.5687198
  82.3529386  36.9334503  62.3311810  79.2798249  35.9381087  62.2085383
  78.9416760  35.8222151  61.3205918  80.1488017  35.5372252  62.1886389
  75.1385065  37.7916563  58.1982274  74.5749930  37.7006500  57.4298561
  75.0237460  36.9716468  58.6784766  79.7618032  37.0915938  68.1671588
  79.7506673  36.6968737  67.2952092  79.9238671  36.3582011  68.7605360
  72.6849497  39.2867755  61.0366494  73.4770788  38.9458579  60.6212793
  72.9246147  39.3962730  61.9568647  80.7184623  41.4587531  53.5096739
  80.0672603  42.0441611  53.1230752  81.5128986  41.9893726  53.5691776
  74.6440250  38.5476668  53.9083873  75.4171126  38.0005655  53.7696749
  74.9965649  39.4120917  54.1198334  76.4825293  39.8753050  67.1150772
  76.1915159  40.7798681  66.9997438  77.1182277  39.9169578  67.8294842
  77.4081500  37.2529899  63.7052132  78.0045072  37.0285921  62.9909095
  77.4656471  36.5114644  64.3077580  76.9806528  34.7069334  51.5402323
  77.2332049  34.1850855  50.7785786  76.0431087  34.5435480  51.6429006
  82.0249811  33.7105112  59.3477066  82.8112900  33.2924536  58.9967483
  82.2888515  34.6151205  59.5158714  82.1959888  39.1477963  54.0465723
  81.5605721  39.2212589  54.7586627  81.8657295  39.7371562  53.3684802
  87.4258238  33.6480346  60.2510045  88.1583410  33.0779562  60.4847874
  86.6697594  33.2601946  60.6916550  76.7002817  36.6097440  53.7426698
  76.5839075  35.9342343  54.4107782  76.8105077  36.1229814  52.9258851
  79.0434358  36.0707587  57.4473387  78.6792565  35.5438208  58.1586308
  79.9001474  35.6806056  57.2739872  84.9483659  27.3601920  64.7104653
  84.6166983  28.2297331  64.4865868  84.3529272  27.0438204  65.3898684
  78.6839845  31.0997487  52.4434736  78.8514247  31.9677723  52.8105207
  78.4937014  31.2624769  51.5196025  81.4415178  39.5614466  64.1100566
  81.1415901  40.4639505  64.0016373  81.0966238  39.2946649  64.9621719
  74.8927660  36.0128263  60.1437270  73.9678156  35.8804477  60.3514962
  75.1412073  36.7922482  60.6407213  84.8412322  32.0797006  61.7898003
  83.9329199  32.0112414  61.4956764  84.7899918  32.5568951  62.6179829
  78.6629066  33.5555144  53.4281402  78.5428691  34.0012195  54.2666883
  77.9681654  33.9040462  52.8694940  72.2536471  35.6561536  60.9781059
  72.3828852  35.9096015  61.8920471  71.5733922  36.2489244  60.6585714
  78.9153188  33.4986652  69.7332900  78.1386522  34.0580572  69.7235765
  79.5543751  33.9843435  70.2547771  86.7073968  30.2813444  63.5675877
  86.0648349  30.5745977  62.9215672  86.2028897  30.1666365  64.3729074
  84.3614132  34.0276618  54.2561736  85.2731988  34.2604004  54.0809434
  83.8523779  34.6113662  53.6936815  77.1699560  36.3072105  69.2950867
  77.9114244  36.8457149  69.0185691  76.4636545  36.9338394  69.4522419
  82.6454900  38.4501245  67.8923029  83.0538256  38.0083656  67.1477661
  81.9232161  37.8753873  68.1457222  78.9985970  33.3873852  65.2656586
  79.8447165  33.8113266  65.4091235  78.9384607  32.7307476  65.9595149
  82.9683714  39.0102436  61.6475318  82.3392577  39.1748150  60.9451386
  82.5809376  39.4244046  62.4186282  86.8472946  39.9456874  59.0019682
  86.1623984  40.3255775  58.4516715  86.9316796  40.5552200  59.7351629
  82.1485415  31.0478220  66.9237760  81.9046347  31.8020281  66.3872035
  82.4245346  31.4263568  67.7585007  84.1023878  37.5916833  65.6015025
  84.3140773  38.2348593  64.9249406  84.0553626  36.7579149  65.1336955
  81.7050107  30.2034653  62.5051597  80.8434586  30.5015907  62.7968335
  81.7312541  30.4205052  61.5732630  78.5211676  38.7476844  58.9125403
  78.9850022  39.0264547  58.1230025  78.2568474  37.8460289  58.7298494
  75.4135757  38.2948326  61.8505166  75.9837114  38.7235594  61.2122651
  76.0043869  38.0130910  62.5489352  77.4580562  34.8699996  55.7214968
  78.1604606  35.3221040  56.1888894  77.1261191  34.2283815  56.3494861
  75.9060924  33.4611753  70.0966177  75.2759584  34.1428034  70.3301574
  75.7997012  33.3494835  69.1519316  71.2005896  33.1283549  61.0232102
  70.4104950  33.3841078  60.5472212  71.6917144  33.9431887  61.1284142
  85.2169706  40.4688788  63.7737382  86.0387149  40.0668976  63.4920064
  85.2132109  40.3657022  64.7253498  73.1520642  33.4928128  57.9815578
  72.3551805  33.6046823  58.4999074  72.9246234  33.8314781  57.1156469
  78.9826309  40.0172832  65.9298093  79.0470742  40.4793239  66.7656265
  78.2737233  39.3870196  66.0580403  69.4843599  33.3814040  63.4547092
  69.7351638  34.2661049  63.7204668  70.0203148  33.2018641  62.6822184
  93.3075699  36.8127537  60.1222354  92.5539407  36.2434935  59.9666358
  93.4423240  36.7790201  61.0692989  78.6974327  41.6840939  55.7977073
  78.5620002  42.5292475  56.2261921  79.2384139  41.8860217  55.0343007
  75.1841666  27.7632519  72.4591429  74.7908612  27.2098717  73.1339073
  76.0007807  28.0743097  72.8497946  72.1503724  39.2016377  56.3704998
  72.6628245  39.9959627  56.5210563  72.8026437  38.5042668  56.3038600
  73.9598609  42.3182133  58.4527752  74.1365237  43.2400098  58.2648735
  74.7555442  42.0040553  58.8822131  78.1009627  29.1790398  70.0511685
  78.8419341  29.7797551  69.9716148  78.3327550  28.4368036  69.4929728
  73.2450965  34.3646765  68.3289915  73.1304481  33.4632022  68.6297014
  72.3895483  34.6110462  67.9774731  78.8797095  40.1011435  68.7982325
  79.4125432  39.3399723  68.5681633  78.3511177  39.8085087  69.5406479
  82.0466790  25.2071501  64.3275967  81.7031060  26.0973143  64.2515077
  82.4145753  25.0173159  63.4645552  70.1152641  37.5305031  57.1464569
  70.9527863  37.9402040  56.9298277  70.2930909  36.5904474  57.1164763
  82.0117073  35.1980112  52.8348402  81.4963697  35.9684717  53.0736789
  81.7394382  34.5245248  53.4581463  79.5964184  30.0429813  57.8933640
  78.7405781  29.6536663  57.7139279  80.0091136  30.1221774  57.0333426
  81.1263331  27.5776156  62.2925200  80.6228126  27.5406291  61.4793005
  81.4193938  28.4868899  62.3521857  77.3706217  27.6614886  61.2991382
  78.2359213  27.4657694  60.9397271  77.4383726  27.4325238  62.2260738
  86.9851347  37.9512467  54.7701575  86.2080790  37.6123626  54.3256737
  87.6642828  37.9565090  54.0956540  81.8003376  33.0707204  54.6608183
  81.4953512  33.3853353  55.5118326  82.7533818  33.1488624  54.7035516
  80.2449808  39.2297427  56.3101137  79.7171170  38.4950187  55.9974374
  79.7437311  40.0072104  56.0641105  85.2242654  37.4246448  61.4268183
  84.5666329  38.1145709  61.5148312  86.0283053  37.8142880  61.7702170
  74.9768536  29.8917094  58.6707749  75.5512288  29.6692275  57.9380941
  75.5639518  29.9605788  59.4236350  84.0348113  35.7790821  59.4772125
  84.5479995  36.4120812  59.9793835  84.6849337  35.1792016  59.1115485
  75.3038123  31.9221555  52.6903634  74.4675435  32.2596241  53.0112909
  75.1642893  31.7870535  51.7530771  77.2791203  26.7658343  57.3982818
  76.6255616  26.4507360  56.7739433  77.2371678  26.1434083  58.1242641
  78.3902408  37.0477638  49.3136110  77.4829470  36.8166891  49.5127259
  78.8873440  36.2515257  49.5010092  81.2970487  45.7575145  52.2332796
  80.6232186  46.0606842  52.8417754  81.6836309  46.5604225  51.8838253
  80.5128944  33.2540276  61.7230466  79.5951505  33.4755223  61.5652154
  80.9289087  33.3286587  60.8642173  81.2963992  34.6531692  56.8533146
  82.0435811  35.1653089  56.5440268  81.5655581  34.3315745  57.7137539
  79.5690642  37.1490233  53.8360100  78.6601861  36.8649265  53.9332570
  79.5985726  37.5689311  52.9763407  84.8009909  40.7596822  57.6051268
  84.3472236  39.9187732  57.6616458  84.1703876  41.3958220  57.9426048
  83.7442829  31.6888808  58.8351935  83.0065586  31.1766194  59.1662178
  83.9969602  31.2489190  58.0235212  83.2442848  42.5973319  58.5401086
  83.5365823  43.1578376  57.8213451  83.7541469  42.8901880  59.2954245
  83.8454456  24.4665060  59.4293704  84.1513333  23.6062424  59.1419620
  84.5707061  25.0582680  59.2292698  70.1378812  34.8695747  57.8175302
  69.9403212  34.2765107  57.0926369  69.5825476  34.5647957  58.5351241
  78.1175536  34.7618853  59.9369896  78.1724146  33.8092690  59.8612372
  77.3066738  34.9178292  60.4211194  79.2666730  38.6898976  51.1748179
  78.8286160  37.9734835  50.7153816  80.0077170  38.9175091  50.6133270
  76.0567896  33.3795913  57.6960274  75.2435761  33.6790083  58.1025467
  76.5526890  32.9851602  58.4134757  78.2076474  43.3753670  59.6294539
  78.1652652  43.6014516  58.7003071  79.1239172  43.1417044  59.7780340
  81.6542107  33.8437737  66.5275168  82.0091495  34.0709211  67.3869634
  82.3014239  34.1756114  65.9052424  87.3839844  36.9656173  57.2324497
  87.2457743  37.1557769  56.3045687  87.0276063  37.7275556  57.6892548
  75.5481970  30.9514268  63.3121509  76.1881350  30.8103028  62.6144473
  74.7159501  30.6648782  62.9360111  87.4109224  39.0332700  62.2435769
  87.8445731  38.9407989  63.0918823  88.1240805  39.0090201  61.6055785
  76.3242274  40.2516699  59.4256502  77.1182873  39.7567019  59.2239077
  75.6133967  39.7234562  59.0624207  72.6325038  34.3959781  55.5016254
  71.7022626  34.3344236  55.7186217  72.7282510  33.8735733  54.7052896
  72.5510587  30.9214593  58.0894496  72.8117404  31.8359927  57.9803657
  73.3727759  30.4539036  58.2391109  74.0235512  32.3352351  65.2593321
  74.6958566  32.1269713  64.6105970  73.1965299  32.1374437  64.8198553
  88.2724774  39.0756401  64.7768654  88.4660664  39.9802211  65.0227929
  88.1725392  38.6163820  65.6107239  79.9261084  28.9614292  67.2758982
  79.2788999  29.6604241  67.1823458  80.6962100  29.3950435  67.6435230
  83.3339882  39.2263144  70.3509535  83.1825389  38.9973695  69.4339619
  83.3244562  40.1833745  70.3640880  80.1025219  36.7995056  65.3355801
  81.0317279  36.9506216  65.1624769  79.6816249  36.8879077  64.4804448
  78.9013550  40.8245721  63.1054339  78.7624636  40.4564505  63.9780277
  78.1128147  41.3393360  62.9338297  79.4961702  45.9254817  54.4479875
  79.6713458  45.4542861  55.2625498  78.8094490  46.5520584  54.6761136
  80.4518766  40.2027324  60.4943177  80.1168598  40.1628094  61.3900827
  79.9522711  39.5372039  60.0213587  74.4263010  35.6094954  66.0195758
  74.2882807  34.8775192  66.6207297  75.3367933  35.5203854  65.7379946
  83.3877957  37.5483358  50.7680236  82.7707128  36.8230186  50.6713289
  82.9194446  38.3092718  50.4247311  77.0545310  35.3214913  65.5079437
  77.7644929  34.6808105  65.4666056  77.0114618  35.5727808  66.4305618
  75.7674244  32.3080131  67.3275077  75.2311601  31.8570869  67.9796673
  75.1790953  32.4426040  66.5845541  75.1776503  31.7668782  49.8901541
  74.3005969  31.6457583  49.5263787  75.6534256  30.9754861  49.6380429
  85.0449496  40.2221850  66.6599996  84.1576275  39.8847772  66.7826395
  85.6148047  39.4904881  66.8968762  66.6978643  36.5545942  59.9843048
  67.3849683  36.2407672  59.3964063  66.5426772  37.4587307  59.7110299
  71.5013365  31.4436138  64.4128071  71.4171554  30.8361808  63.6778481
  70.6796072  31.9345157  64.4137568  78.3640429  44.1195073  57.1364061
  77.5807951  44.6616753  57.2302286  79.0633174  44.6369052  57.5358302
  81.6737079  29.9289702  59.7798266  82.1705779  29.1759664  59.4599337
  80.9024061  29.9654019  59.2141476  89.5266837  35.6330068  61.4216558
  89.5156713  36.5154783  61.0510491  88.6584216  35.2801618  61.2271095
  82.7566860  38.6861389  57.3536690  81.8223139  38.8062852  57.1841394
  82.9343528  37.7833856  57.0896700  78.2572048  32.0707085  59.5069951
  77.8869836  31.5178125  60.1950857  78.7531140  31.4665218  58.9544951
  86.1439411  34.5278709  57.8886724  86.6099863  35.3606700  57.8147027
  86.5946912  34.0623690  58.5931983  84.2115642  40.8722530  54.8872876
  84.4875486  40.7579124  55.7966750  83.3420141  40.4740015  54.8485049
  84.1156074  26.8959296  61.9277625  83.2019154  27.1263522  62.0959832
  84.5449175  26.9797740  62.7791658  83.8862533  35.0849187  64.4277519
  83.2333983  35.3325095  63.7729972  84.2642912  34.2713326  64.0939997
  80.8469706  45.1208881  58.5305690  81.0292101  44.3030537  58.9933442
  81.6702692  45.3376573  58.0930580  81.1811872  44.0477066  55.7920738
  81.7099638  43.5369520  55.1790900  81.4440091  43.7319596  56.6566271
  79.9350106  35.8268999  70.9143556  79.2590743  35.7263128  71.5845932
  80.7577739  35.6708212  71.3779554  71.6828965  42.0640935  63.5356072
  72.2682401  41.3184623  63.6683976  71.4853803  42.3744892  64.4192736
  66.2746619  34.6346535  62.2560515  66.3130719  34.1010126  63.0497633
  65.7686912  34.1081741  61.6371492  73.6537382  29.4811076  65.7523057
  73.7178708  30.3425907  65.3400455  73.5904502  28.8685077  65.0195416
  73.1289654  31.5534208  69.3996091  73.7561693  31.1711286  70.0133616
  72.2717573  31.3348410  69.7651784  69.9055197  33.3610637  55.3314446
  70.2008638  32.4521316  55.2781500  69.0043233  33.3398377  55.0095449
  73.4349444  31.4366634  61.3141995  72.7136030  32.0502602  61.1749468
  74.2242700  31.9724399  61.2358641  76.2375757  28.7721061  67.5882647
  76.7610159  29.0183357  68.3508956  76.0188091  29.6041095  67.1685784
  71.6343039  31.0424735  55.4553771  71.3055745  30.1622114  55.2728877
  71.9882409  30.9872404  56.3430161  80.8822617  42.6779638  59.9648757
  80.7347580  41.7496345  60.1456327  81.7076111  42.6999729  59.4805832
  74.7484862  31.3297705  55.8229249  75.0880934  31.8583626  55.1007857
  75.1956982  31.6678111  56.5987816  77.4428303  29.7134756  65.2732317
  77.1025123  28.9142569  65.6752997  76.7367309  30.0136466  64.7009150
  78.0944774  26.7984068  63.7259640  78.9170844  26.3244546  63.6038530
  78.3382838  27.5774552  64.2258326  76.7353009  29.8272326  54.0222542
  77.4561371  30.2053579  53.5186259  76.1118313  30.5461203  54.1257520
  80.8784132  30.5317475  54.9580874  81.0947746  31.4142113  54.6569702
  80.3978199  30.1403689  54.2286516  75.6183353  33.4903189  61.5351619
  75.4727934  33.8043492  62.4275900  75.1408557  34.1088089  60.9822517
  77.4779736  30.4805737  61.5832508  77.4641305  29.5846830  61.2464806
  78.1952164  30.4876400  62.2170794  79.3305867  30.9143077  63.6285636
  79.0723645  31.8360148  63.6269966  78.7990907  30.5173511  64.3186100
  84.2752055  44.0193864  56.4075721  84.4488933  43.4540286  55.6549574
  84.7680947  44.8194759  56.2255211  70.0929015  36.0308533  64.4739280
  69.5482483  36.8068341  64.6059554  70.9708365  36.3779338  64.3158401
  76.8816632  29.3620117  56.8520078  77.0032543  28.4336763  57.0510966
  76.5918674  29.3758803  55.9398394  79.7507822  27.0475027  59.9886798
  79.7729519  27.1114360  59.0338778  80.1675881  26.2079536  60.1827304
  90.1291447  36.7830287  58.0266021  90.5722593  36.0337612  57.6285144
  89.2517957  36.7740423  57.6439753  85.2627228  43.3360628  53.5072619
  85.9578133  43.9567321  53.7259934  85.6050378  42.4855980  53.7824997
  70.8795037  35.1578429  67.3669437  70.1376773  35.3061065  67.9534067
  70.5587781  35.4186695  66.5036186  87.1618651  40.7860334  55.0359950
  87.6869975  41.1247607  54.3109270  87.0741004  39.8507349  54.8523085
  71.3251651  43.0443858  59.3979831  72.1509671  42.7447630  59.0178475
  70.9745703  42.2751481  59.8469620  76.2933184  42.3970326  61.4677505
  75.6713193  41.7341031  61.1679733  76.9638051  42.4231458  60.7851153
  69.5260256  40.9630185  60.3568765  68.6892164  40.5352359  60.1752766
  69.4983901  41.1562628  61.2939556  76.3657711  30.8752114  71.0610011
  76.4145867  31.7514237  70.6787781  76.9080226  30.3329507  70.4881654
  86.8512557  41.4193238  70.3411148  86.0608101  41.4017376  69.8015648
  86.6145912  41.9581531  71.0960185  86.9710432  38.2685704  67.6543877
  87.0208437  38.1035711  68.5959399  86.8624356  37.4012963  67.2641757
  75.8546691  40.9474250  54.9435966  76.0034811  41.6309714  54.2902638
  76.6613134  40.9279340  55.4585421  84.2614195  34.2516632  68.9703183
  85.1624057  34.1123097  68.6787181  84.3362169  34.4171087  69.9101361
  78.5957000  31.6283487  67.8156370  77.7260309  31.9217053  67.5438958
  78.8316480  32.2123932  68.5363633  88.4728629  40.6882645  67.8985898
  88.1813437  41.0512626  68.7349359  87.8600760  39.9749654  67.7199230
  89.6724311  38.2535525  60.4188468  90.5071203  38.6925329  60.5826029
  89.8083440  37.7774178  59.5996714  86.7215817  35.8115260  66.3665956
  87.1969939  36.0042906  65.5584808  85.7981383  35.8674446  66.1209340
  73.6099324  36.9739427  55.9497034  73.3645366  36.0701757  56.1477245
  73.7795238  36.9756578  55.0076512  81.2996034  27.8463104  65.3321790
  81.8177978  28.5824131  65.0068279  80.9451167  28.1527097  66.1668549
  72.8794971  32.7067785  53.4483196  72.1864216  32.7812140  52.7923232
  72.6346723  31.9428128  53.9704713  81.5508628  24.2663386  60.8522687
  81.8310382  23.5986575  61.4783113  82.3359235  24.4592482  60.3397351
  79.3542096  43.4422380  52.4147713  78.7816063  44.0612567  51.9618185
  79.9274890  43.9921742  52.9487635  85.4217486  32.6881020  64.5994262
  86.3734909  32.7879118  64.6206486  85.2520937  31.8959289  65.1092346
  83.4431866  29.7736603  64.7853663  82.8481798  30.0541616  64.0900151
  83.1581562  30.2630504  65.5570404  82.5739356  43.7259530  53.5456295
  83.5070029  43.6605092  53.7489171  82.4862569  44.5615797  53.0870828
  85.2027373  43.0425401  50.5060243  85.1241004  42.7085264  51.3996001
  86.0237040  43.5347168  50.5051715  87.9005564  35.9087140  63.7136561
  87.8681884  34.9703141  63.8996245  88.5106188  35.9871177  62.9802386
  79.7388895  34.7783193  49.7563766  80.6848000  34.6489401  49.8252184
  79.3603140  34.0397855  50.2333194  88.0500053  32.6998183  63.7594845
  87.5339101  31.9156640  63.5724774  88.9340001  32.3716900  63.9241364
  85.7110779  26.4439199  59.7190657  85.5135601  26.1354287  60.6033989
  86.3210485  27.1700838  59.8488587  93.7182114  36.9703147  62.8542598
  94.4485502  36.7088435  63.4150302  93.1089059  36.2331869  62.8944666
  91.7997411  35.1111009  63.4517049  91.0730575  34.9766974  62.8433541
  91.3844698  35.4187838  64.2573767  79.6227587  38.8300939  71.2164422
  80.5430597  39.0079538  71.4104469  79.5877170  37.8856984  71.0644122
  77.9231812  32.7033169  49.6918651  77.0163267  32.4066282  49.7681364
  78.2007793  32.4062987  48.8252937  68.8409752  34.0239533  60.1417697
  68.5212537  33.1704841  59.8492071  68.2943181  34.2388111  60.8975664
  72.6189660  36.7401974  63.8587204  72.8375670  37.6719081  63.8775237
  73.0315434  36.3809948  64.6442007  79.5393878  27.2470059  55.8462892
  78.7294606  26.9017144  56.2218138  80.2278295  26.9377603  56.4350504
  81.4684426  26.3248106  57.4687189  82.0215465  26.7443559  58.1277212
  81.7054512  25.3983854  57.5110145  77.4917525  32.3135179  73.2489953
  77.3914252  33.2629536  73.1802044  77.2739067  31.9853418  72.3766023
  76.6930597  29.5620104  49.8330630  77.5549761  29.8875003  50.0926447
  76.8780941  28.7751600  49.3203696  68.7098012  37.6442444  62.1110819
  68.0161484  37.2296397  61.5980773  69.4571003  37.6862981  61.5144238
  84.8463233  28.4348631  56.9765853  84.2661902  29.0933435  56.5943905
  84.5799166  27.6125976  56.5653270  83.2966800  27.8353689  59.1787173
  83.7966578  27.9470223  58.3701492  83.9402407  27.5314741  59.8187982
  77.3548795  35.7432318  72.0655014  76.8715877  36.5432678  72.2718903
  77.4409734  35.7540263  71.1122458  70.6234755  37.5760698  59.9876834
  70.6005443  37.6748385  59.0358717  70.9335391  38.4225849  60.3094000
  73.2822133  39.6336853  64.1023448  74.2365386  39.6020795  64.0353380
  73.0834656  39.1727477  64.9173674  73.8721515  38.2037969  66.6694246
  74.6914404  38.6982048  66.6929083  74.1458323  37.2869937  66.6411813
  83.6288111  30.5948721  56.0322201  82.7413966  30.8798372  55.8142396
  84.0442100  30.4342485  55.1849478  86.9802647  30.6195242  59.7476540
  87.7563037  31.1091695  60.0201157  86.2550781  31.0453296  60.2048410
  89.4175206  31.3322861  60.8050481  90.0119697  31.0918597  60.0943789
  89.4901790  30.6129992  61.4324017  82.7731325  40.3593396  50.1270221
  83.4767175  40.5643398  50.7427877  82.0493973  40.9270158  50.3919305
  83.6029135  36.1103257  56.2472491  83.5464336  36.5671809  55.4080124
  84.1557477  35.3493942  56.0695334  87.4133941  31.8992989  57.0722611
  87.1570875  31.4989625  57.9030819  86.7886809  32.6136783  56.9472750
  91.7246279  34.6389062  59.5793902  91.1645837  34.7082252  60.3525464
  91.1189782  34.4630047  58.8593398  84.6818022  40.7975925  52.1768681
  85.5163626  40.3657124  51.9946156  84.5202365  40.6257939  53.1045576
  84.3363914  37.3008038  53.5425021  84.2812718  37.1352310  52.6013465
  83.7109969  38.0084071  53.6987210  69.1256429  32.5376103  67.3686443
  69.7715293  32.0275057  67.8573668  68.9173580  33.2744784  67.9429868
  81.6509821  39.6056950  72.8678583  82.5200981  39.7797603  72.5065218
  81.1716573  40.4251367  72.7454313  77.6460040  26.8016147  53.1210339
  77.6338710  27.7457987  53.2778610  78.5383462  26.6186293  52.8269800
  81.4612159  23.3958924  57.3756276  80.6944555  22.8417411  57.5212958
  81.8722864  23.4680793  58.2370427  73.4653920  29.6843720  71.4661457
  74.3285382  29.3280525  71.6764782  72.8919331  29.3457615  72.1536861
  93.3102297  51.3145576  62.2723858  93.9480707  51.1952324  61.5687198
  93.1923140  52.2626420  62.3311810  90.1192003  51.2673004  62.2085383
  89.7810515  51.1514069  61.3205918  90.9881772  50.8664169  62.1886389
  85.9778819  53.1208481  58.1982274  85.4143684  53.0298418  57.4298561
  85.8631214  52.3008385  58.6784766  83.5243251  54.6159672  61.0366494
  84.3164543  54.2750497  60.6212793  83.7639901  54.7254647  61.9568647
  91.5578378  56.7879448  53.5096739  90.9066358  57.3733529  53.1230752
  92.3522741  57.3185643  53.5691776  85.4834005  53.8768586  53.9083873
  86.2564881  53.3297573  53.7696749  85.8359404  54.7412835  54.1198334
  88.2475254  52.5821816  63.7052132  88.8438827  52.3577839  62.9909095
  88.3050226  51.8406562  64.3077580  87.8200283  50.0361252  51.5402323
  88.0725803  49.5142773  50.7785786  86.8824842  49.8727397  51.6429006
  92.8643566  49.0397030  59.3477066  93.6506655  48.6216453  58.9967483
  93.1282270  49.9443122  59.5158714  93.0353643  54.4769880  54.0465723
  92.3999476  54.5504507  54.7586627  92.7051049  55.0663479  53.3684802
  98.2651993  48.9772263  60.2510045  98.9977165  48.4071480  60.4847874
  97.5091348  48.5893864  60.6916550  87.5396572  51.9389358  53.7426698
  87.4232830  51.2634261  54.4107782  87.6498831  51.4521732  52.9258851
  89.8828112  51.3999505  57.4473387  89.5186320  50.8730126  58.1586308
  90.7395228  51.0097974  57.2739872  95.7877413  42.6893837  64.7104653
  95.4560738  43.5589248  64.4865868  95.1923026  42.3730121  65.3898684
  89.5233599  46.4289405  52.4434736  89.6908002  47.2969641  52.8105207
  89.3330769  46.5916686  51.5196025  85.7321414  51.3420180  60.1437270
  84.8071911  51.2096394  60.3514962  85.9805827  52.1214400  60.6407213
  95.6806076  47.4088924  61.7898003  94.7722954  47.3404332  61.4956764
  95.6293672  47.8860869  62.6179829  89.5022820  48.8847062  53.4281402
  89.3822446  49.3304113  54.2666883  88.8075409  49.2332380  52.8694940
  83.0930225  50.9853454  60.9781059  83.2222606  51.2387933  61.8920471
  82.4127676  51.5781162  60.6585714  87.2629712  61.6550704  57.0771534
  87.1853742  62.6058529  57.1560014  86.6591356  61.3096576  57.7346460
  89.7546942  48.8278569  69.7332900  88.9780276  49.3872489  69.7235765
  90.3937505  49.3135352  70.2547771  97.5467723  45.6105362  63.5675877
  96.9042103  45.9037895  62.9215672  97.0422651  45.4958282  64.3729074
  95.2007886  49.3568535  54.2561736  96.1125743  49.5895922  54.0809434
  94.6917534  49.9405579  53.6936815  89.8379724  48.7165770  65.2656586
  90.6840919  49.1405183  65.4091235  89.7778362  48.0599394  65.9595149
  93.8077469  54.3394354  61.6475318  93.1786331  54.5040068  60.9451386
  93.4203131  54.7535963  62.4186282  97.6866701  55.2748792  59.0019682
  97.0017739  55.6547693  58.4516715  97.7710550  55.8844118  59.7351629
  92.9879170  46.3770138  66.9237760  92.7440101  47.1312199  66.3872035
  93.2639100  46.7555486  67.7585007  92.5443861  45.5326571  62.5051597
  91.6828340  45.8307825  62.7968335  92.5706296  45.7496970  61.5732630
  89.3605431  54.0768762  58.9125403  89.8243776  54.3556465  58.1230025
  89.0962229  53.1752206  58.7298494  86.2529512  53.6240243  61.8505166
  86.8230869  54.0527512  61.2122651  86.8437624  53.3422828  62.5489352
  88.2974317  50.1991914  55.7214968  88.9998360  50.6512958  56.1888894
  87.9654945  49.5575733  56.3494861  82.0399651  48.4575467  61.0232102
  81.2498705  48.7132995  60.5472212  82.5310898  49.2723805  61.1284142
  83.9914396  48.8220046  57.9815578  83.1945559  48.9338740  58.4999074
  83.7639988  49.1606698  57.1156469 104.1469453  52.1419454  60.1222354
 103.3933162  51.5726853  59.9666358 104.2816994  52.1082119  61.0692989
  89.5368081  57.0132857  55.7977073  89.4013756  57.8584392  56.2261921
  90.0777894  57.2152134  55.0343007  82.9897479  54.5308295  56.3704998
  83.5021999  55.3251545  56.5210563  83.6420192  53.8334585  56.3038600
  84.7992363  57.6474051  58.4527752  84.9758992  58.5692016  58.2648735
  85.5949197  57.3332470  58.8822131  88.9403382  44.5082316  70.0511685
  89.6813095  45.1089469  69.9716148  89.1721305  43.7659953  69.4929728
  92.8860545  40.5363419  64.3275967  92.5424814  41.4265060  64.2515077
  93.2539508  40.3465076  63.4645552  80.9546396  52.8596949  57.1464569
  81.7921618  53.2693957  56.9298277  81.1324663  51.9196391  57.1164763
  92.8510828  50.5272030  52.8348402  92.3357451  51.2976634  53.0736789
  92.5788136  49.8537166  53.4581463  90.4357939  45.3721731  57.8933640
  89.5799535  44.9828581  57.7139279  90.8484890  45.4513691  57.0333426
  91.9657085  42.9068074  62.2925200  91.4621881  42.8698209  61.4793005
  92.2587692  43.8160816  62.3521857  88.2099971  42.9906803  61.2991382
  89.0752968  42.7949612  60.9397271  88.2777480  42.7617155  62.2260738
  97.8245102  53.2804384  54.7701575  97.0474545  52.9415544  54.3256737
  98.5036583  53.2857008  54.0956540  92.6397131  48.3999122  54.6608183
  92.3347266  48.7145271  55.5118326  93.5927573  48.4780542  54.7035516
  91.0843563  54.5589345  56.3101137  90.5564924  53.8242105  55.9974374
  90.5831065  55.3364021  56.0641105  96.0636409  52.7538366  61.4268183
  95.4060083  53.4437627  61.5148312  96.8676808  53.1434798  61.7702170
  85.8162290  45.2209011  58.6707749  86.3906042  44.9984193  57.9380941
  86.4033273  45.2897706  59.4236350  94.8741867  51.1082738  59.4772125
  95.3873749  51.7412730  59.9793835  95.5243091  50.5083934  59.1115485
  86.1431877  47.2513472  52.6903634  85.3069190  47.5888159  53.0112909
  86.0036647  47.1162452  51.7530771  88.1184958  42.0950260  57.3982818
  87.4649370  41.7799277  56.7739433  88.0765432  41.4726001  58.1242641
  89.2296163  52.3769555  49.3136110  88.3223225  52.1458809  49.5127259
  89.7267195  51.5807175  49.5010092  92.1364242  61.0867063  52.2332796
  91.4625940  61.3898759  52.8417754  92.5230064  61.8896143  51.8838253
  91.3522698  48.5832194  61.7230466  90.4345260  48.8047141  61.5652154
  91.7682842  48.6578504  60.8642173  92.1357746  49.9823610  56.8533146
  92.8829565  50.4945007  56.5440268  92.4049336  49.6607662  57.7137539
  90.4084396  52.4782150  53.8360100  89.4995616  52.1941183  53.9332570
  90.4379480  52.8981229  52.9763407  95.6403664  56.0888740  57.6051268
  95.1865991  55.2479650  57.6616458  95.0097630  56.7250138  57.9426048
  94.5836583  47.0180726  58.8351935  93.8459340  46.5058112  59.1662178
  94.8363357  46.5781107  58.0235212  94.0836603  57.9265236  58.5401086
  94.3759577  58.4870294  57.8213451  94.5935223  58.2193797  59.2954245
  94.6848211  39.7956978  59.4293704  94.9907087  38.9354341  59.1419620
  95.4100815  40.3874598  59.2292698  88.9569290  50.0910771  59.9369896
  89.0117900  49.1384607  59.8612372  88.1460492  50.2470210  60.4211194
  90.1060484  54.0190894  51.1748179  89.6679914  53.3026753  50.7153816
  90.8470925  54.2467009  50.6133270  86.8961650  48.7087831  57.6960274
  86.0829516  49.0082001  58.1025467  87.3920644  48.3143519  58.4134757
  89.0470228  58.7045588  59.6294539  89.0046407  58.9306434  58.7003071
  89.9632927  58.4708962  59.7780340  92.4935862  49.1729655  66.5275168
  92.8485250  49.4001128  67.3869634  93.1407993  49.5048032  65.9052424
  98.2233599  52.2948091  57.2324497  98.0851497  52.4849687  56.3045687
  97.8669818  53.0567474  57.6892548  98.2502978  54.3624618  62.2435769
  98.6839485  54.2699907  63.0918823  98.9634559  54.3382118  61.6055785
  87.1636029  55.5808617  59.4256502  87.9576627  55.0858937  59.2239077
  86.4527721  55.0526480  59.0624207  83.4718792  49.7251698  55.5016254
  82.5416380  49.6636154  55.7186217  83.5676264  49.2027651  54.7052896
  83.3904341  46.2506511  58.0894496  83.6511159  47.1651844  57.9803657
  84.2121514  45.7830954  58.2391109  90.7654839  44.2906209  67.2758982
  90.1182754  44.9896159  67.1823458  91.5355854  44.7242353  67.6435230
  90.3355457  61.2546735  54.4479875  90.5107213  60.7834778  55.2625498
  89.6488245  61.8812501  54.6761136  91.2912520  55.5319241  60.4943177
  90.9562353  55.4920011  61.3900827  90.7916466  54.8663957  60.0213587
  94.2271712  52.8775276  50.7680236  93.6100882  52.1522104  50.6713289
  93.7588200  53.6384636  50.4247311  87.8939065  50.6506831  65.5079437
  88.6038683  50.0100023  65.4666056  87.8508373  50.9019725  66.4305618
  86.0170258  47.0960700  49.8901541  85.1399724  46.9749501  49.5263787
  86.4928011  46.3046778  49.6380429  89.4144404  60.2115220  63.6261240
  89.3414575  61.0170192  64.1380544  88.9721797  60.4107186  62.8009261
  89.2034184  59.4486990  57.1364061  88.4201706  59.9908670  57.2302286
  89.9026929  59.9660970  57.5358302  92.5130834  45.2581620  59.7798266
  93.0099533  44.5051582  59.4599337  91.7417815  45.2945936  59.2141476
 100.3660591  50.9621985  61.4216558 100.3550467  51.8446701  61.0510491
  99.4977971  50.6093536  61.2271095  93.5960614  54.0153307  57.3536690
  92.6616893  54.1354769  57.1841394  93.7737283  53.1125774  57.0896700
  89.0965802  47.3999003  59.5069951  88.7263590  46.8470043  60.1950857
  89.5924895  46.7957136  58.9544951  96.9833166  49.8570626  57.8886724
  97.4493618  50.6898618  57.8147027  97.4340666  49.3915608  58.5931983
  95.0509397  56.2014448  54.8872876  95.3269241  56.0871042  55.7966750
  94.1813896  55.8031932  54.8485049  94.9549829  42.2251213  61.9277625
  94.0412908  42.4555440  62.0959832  95.3842930  42.3089657  62.7791658
  94.7256287  50.4141105  64.4277519  94.0727737  50.6617013  63.7729972
  95.1036667  49.6005243  64.0939997  91.6863461  60.4500798  58.5305690
  91.8685855  59.6322454  58.9933442  92.5096447  60.6668491  58.0930580
  92.0205626  59.3768983  55.7920738  92.5493393  58.8661438  55.1790900
  92.2833846  59.0611514  56.6566271  85.3761374  60.4284100  58.5518514
  84.7071750  60.9130228  58.0682554  85.2374244  60.6753321  59.4661893
  80.7448951  48.6902555  55.3314446  81.0402393  47.7813234  55.2781500
  79.8436987  48.6690295  55.0095449  82.4736793  46.3716653  55.4553771
  82.1449499  45.4914032  55.2728877  82.8276164  46.3164321  56.3430161
  85.5878616  46.6589623  55.8229249  85.9274689  47.1875544  55.1007857
  86.0350737  46.9970029  56.5987816  88.2822057  45.0426673  65.2732317
  87.9418877  44.2434486  65.6752997  87.5761063  45.3428384  64.7009150
  88.9338529  42.1275986  63.7259640  89.7564598  41.6536464  63.6038530
  89.1776592  42.9066469  64.2258326  87.5746763  45.1564244  54.0222542
  88.2955126  45.5345497  53.5186259  86.9512067  45.8753121  54.1257520
  91.7177886  45.8609393  54.9580874  91.9341501  46.7434031  54.6569702
  91.2371953  45.4695607  54.2286516  86.4577108  48.8195106  61.5351619
  86.3121688  49.1335409  62.4275900  85.9802311  49.4380007  60.9822517
  88.3173490  45.8097654  61.5832508  88.3035059  44.9138748  61.2464806
  89.0345919  45.8168318  62.2170794  90.1699621  46.2434995  63.6285636
  89.9117399  47.1652065  63.6269966  89.6384662  45.8465429  64.3186100
  95.1145810  59.3485782  56.4075721  95.2882687  58.7832204  55.6549574
  95.6074701  60.1486677  56.2255211  87.7210386  44.6912035  56.8520078
  87.8426298  43.7628681  57.0510966  87.4312429  44.7050721  55.9398394
  90.5901577  42.3766945  59.9886798  90.6123274  42.4406278  59.0338778
  91.0069636  41.5371454  60.1827304 100.9685201  52.1122205  58.0266021
 101.4116347  51.3629530  57.6285144 100.0911711  52.1032341  57.6439753
  96.1020982  58.6652546  53.5072619  96.7971887  59.2859239  53.7259934
  96.4444133  57.8147897  53.7824997  98.0012406  56.1152252  55.0359950
  98.5263730  56.4539524  54.3109270  97.9134758  55.1799267  54.8523085
  87.1326938  57.7262244  61.4677505  86.5106948  57.0632949  61.1679733
  87.8031805  57.7523376  60.7851153  86.6940445  56.2766167  54.9435966
  86.8428566  56.9601632  54.2902638  87.5006889  56.2571257  55.4585421
 100.5118066  53.5827443  60.4188468 101.3464957  54.0217247  60.5826029
 100.6477195  53.1066096  59.5996714  84.4493078  52.3031345  55.9497034
  84.2039120  51.3993675  56.1477245  84.6188993  52.3048495  55.0076512
  92.1389788  43.1755021  65.3321790  92.6571732  43.9116048  65.0068279
  91.7844921  43.4819015  66.1668549  83.7188726  48.0359703  53.4483196
  83.0257971  48.1104058  52.7923232  83.4740478  47.2720046  53.9704713
  92.3902382  39.5955304  60.8522687  92.6704136  38.9278493  61.4783113
  93.1752989  39.7884399  60.3397351  90.1935851  58.7714298  52.4147713
  89.6209818  59.3904485  51.9618185  90.7668645  59.3213659  52.9487635
  96.2611241  48.0172938  64.5994262  97.2128664  48.1171036  64.6206486
  96.0914691  47.2251206  65.1092346  94.2825620  45.1028521  64.7853663
  93.6875552  45.3833534  64.0900151  93.9975317  45.5922422  65.5570404
  93.4133111  59.0551448  53.5456295  94.3463784  58.9897010  53.7489171
  93.3256323  59.8907715  53.0870828  96.0421127  58.3717318  50.5060243
  95.9634759  58.0377182  51.3996001  96.8630794  58.8639086  50.5051715
  98.7399319  51.2379058  63.7136561  98.7075639  50.2995058  63.8996245
  99.3499942  51.3163094  62.9802386  90.5782649  50.1075111  49.7563766
  91.5241754  49.9781319  49.8252184  90.1996894  49.3689772  50.2333194
  98.8893807  48.0290101  63.7594845  98.3732856  47.2448558  63.5724774
  99.7733756  47.7008818  63.9241364  96.5504534  41.7731117  59.7190657
  96.3529355  41.4646205  60.6033989  97.1604239  42.4992755  59.8488587
 104.5575868  52.2995064  62.8542598 105.2879257  52.0380353  63.4150302
 103.9482814  51.5623786  62.8944666 102.6391165  50.4402927  63.4517049
 101.9124329  50.3058892  62.8433541 102.2238452  50.7479756  64.2573767
  88.7625567  48.0325087  49.6918651  87.8557022  47.7358200  49.7681364
  89.0401548  47.7354905  48.8252937  83.4583414  52.0693891  63.8587204
  83.6769424  53.0010999  63.8775237  83.8709188  51.7101866  64.6442007
  90.3787632  42.5761977  55.8462892  89.5688361  42.2309062  56.2218138
  91.0672049  42.2669520  56.4350504  92.3078181  41.6540023  57.4687189
  92.8609219  42.0735477  58.1277212  92.5448267  40.7275772  57.5110145
  87.5324351  44.8912022  49.8330630  88.3943515  45.2166920  50.0926447
  87.7174695  44.1043518  49.3203696  95.6856988  43.7640549  56.9765853
  95.1055657  44.4225353  56.5943905  95.4192920  42.9417893  56.5653270
  94.1360554  43.1645606  59.1787173  94.6360332  43.2762141  58.3701492
  94.7796162  42.8606659  59.8187982  84.1215887  54.9628771  64.1023448
  85.0759141  54.9312713  64.0353380  83.9228411  54.5019394  64.9173674
  94.4681866  45.9240639  56.0322201  93.5807721  46.2090290  55.8142396
  94.8835855  45.7634402  55.1849478  97.8196402  45.9487160  59.7476540
  98.5956792  46.4383612  60.0201157  97.0944536  46.3745214  60.2048410
 100.2568960  46.6614779  60.8050481 100.8513451  46.4210515  60.0943789
 100.3295544  45.9421910  61.4324017  93.6125079  55.6885314  50.1270221
  94.3160929  55.8935316  50.7427877  92.8887728  56.2562076  50.3919305
  94.4422889  51.4395175  56.2472491  94.3858091  51.8963726  55.4080124
  94.9951232  50.6785860  56.0695334  98.2527695  47.2284907  57.0722611
  97.9964630  46.8281542  57.9030819  97.6280563  47.9428701  56.9472750
 102.5640033  49.9680980  59.5793902 102.0039591  50.0374169  60.3525464
 101.9583537  49.7921965  58.8593398  95.5211777  56.1267843  52.1768681
  96.3557380  55.6949041  51.9946156  95.3596119  55.9549857  53.1045576
  95.1757669  52.6299956  53.5425021  95.1206472  52.4644228  52.6013465
  94.5503724  53.3375989  53.6987210  88.4853794  42.1308065  53.1210339
  88.4732464  43.0749905  53.2778610  89.3777216  41.9478211  52.8269800
  92.3005914  38.7250842  57.3756276  91.5338309  38.1709328  57.5212958
  92.7116619  38.7972711  58.2370427 102.3972132  72.1171366  53.5096739
 101.7460112  72.7025447  53.1230752 103.1916495  72.6477561  53.5691776
  98.6594037  65.3653169  51.5402323  98.9119558  64.8434691  50.7785786
  97.7218596  65.2019315  51.6429006 103.7037320  64.3688948  59.3477066
 104.4900409  63.9508371  58.9967483 103.9676024  65.2735040  59.5158714
 109.1045747  64.3064181  60.2510045 109.8370919  63.7363398  60.4847874
 108.3485103  63.9185781  60.6916550  98.3790326  67.2681275  53.7426698
  98.2626584  66.5926179  54.4107782  98.4892586  66.7813649  52.9258851
 106.6271168  58.0185755  64.7104653 106.2954492  58.8881166  64.4865868
 106.0316781  57.7022039  65.3898684 100.3627354  61.7581322  52.4434736
 100.5301756  62.6261559  52.8105207 100.1724523  61.9208604  51.5196025
 106.5199831  62.7380841  61.7898003 105.6116708  62.6696250  61.4956764
 106.4687427  63.2152786  62.6179829 100.3416575  64.2138980  53.4281402
 100.2216200  64.6596030  54.2666883  99.6469163  64.5624297  52.8694940
 100.5940697  64.1570487  69.7332900  99.8174031  64.7164407  69.7235765
 101.2331260  64.6427270  70.2547771 108.3861477  60.9397280  63.5675877
 107.7435858  61.2329813  62.9215672 107.8816406  60.8250200  64.3729074
 106.0401641  64.6860453  54.2561736 106.9519497  64.9187840  54.0809434
 105.5311288  65.2697497  53.6936815 103.8272924  61.7062056  66.9237760
 103.5833856  62.4604116  66.3872035 104.1032855  62.0847403  67.7585007
 103.3837616  60.8618489  62.5051597 102.5222095  61.1599742  62.7968335
 103.4100050  61.0788888  61.5732630 114.9863208  67.4711372  60.1222354
 114.2326916  66.9018770  59.9666358 115.1210749  67.4374037  61.0692989
 103.7254299  55.8655336  64.3275967 103.3818569  56.7556978  64.2515077
 104.0933262  55.6756994  63.4645552 103.6904582  65.8563947  52.8348402
 103.1751206  66.6268552  53.0736789 103.4181891  65.1829084  53.4581463
 101.2751693  60.7013648  57.8933640 100.4193289  60.3120499  57.7139279
 101.6878645  60.7805609  57.0333426 102.8050840  58.2359991  62.2925200
 102.3015635  58.1990127  61.4793005 103.0981447  59.1452734  62.3521857
 108.6638856  68.6096302  54.7701575 107.8868299  68.2707462  54.3256737
 109.3430337  68.6148925  54.0956540 103.4790885  63.7291039  54.6608183
 103.1741021  64.0437189  55.5118326 104.4321327  63.8072459  54.7035516
 101.9237317  69.8881263  56.3101137 101.3958679  69.1534022  55.9974374
 101.4224820  70.6655939  56.0641105  96.6556045  60.5500929  58.6707749
  97.2299797  60.3276111  57.9380941  97.2427027  60.6189624  59.4236350
  96.9825632  62.5805390  52.6903634  96.1462944  62.9180077  53.0112909
  96.8430401  62.4454370  51.7530771  98.9578712  57.4242178  57.3982818
  98.3043125  57.1091195  56.7739433  98.9159187  56.8017918  58.1242641
 100.0689917  67.7061473  49.3136110  99.1616979  67.4750727  49.5127259
 100.5660949  66.9099092  49.5010092 102.1916453  63.9124112  61.7230466
 101.2739014  64.1339059  61.5652154 102.6076596  63.9870422  60.8642173
 102.9751501  65.3115527  56.8533146 103.7223320  65.8236924  56.5440268
 103.2443090  64.9899580  57.7137539 101.2478151  67.8074068  53.8360100
 100.3389370  67.5233101  53.9332570 101.2773235  68.2273147  52.9763407
 106.4797418  71.4180657  57.6051268 106.0259745  70.5771567  57.6616458
 105.8491385  72.0542056  57.9426048 105.4230338  62.3472643  58.8351935
 104.6853095  61.8350030  59.1662178 105.6757111  61.9073025  58.0235212
 104.9230357  73.2557154  58.5401086 105.2153332  73.8162211  57.8213451
 105.4328978  73.5485715  59.2954245 105.5241965  55.1248895  59.4293704
 105.8300842  54.2646259  59.1419620 106.2494570  55.7166516  59.2292698
  99.7963045  65.4202689  59.9369896  99.8511655  64.4676525  59.8612372
  98.9854247  65.5762128  60.4211194 100.9454239  69.3482812  51.1748179
 100.5073668  68.6318671  50.7153816 101.6864679  69.5758926  50.6133270
  97.7355405  64.0379748  57.6960274  96.9223270  64.3373919  58.1025467
  98.2314399  63.6435437  58.4134757 103.3329616  64.5021573  66.5275168
 103.6879004  64.7293046  67.3869634 103.9801748  64.8339950  65.9052424
  94.2298096  61.5798429  58.0894496  94.4904913  62.4943762  57.9803657
  95.0515268  61.1122871  58.2391109 105.0665466  68.2067193  50.7680236
 104.4494637  67.4814021  50.6713289 104.5981955  68.9676554  50.4247311
  96.8564012  62.4252618  49.8901541  95.9793478  62.3041418  49.5263787
  97.3321765  61.6338696  49.6380429 103.3524588  60.5873537  59.7798266
 103.8493288  59.8343500  59.4599337 102.5811570  60.6237854  59.2141476
 104.4354369  69.3445225  57.3536690 103.5010648  69.4646687  57.1841394
 104.6131037  68.4417691  57.0896700  99.9359557  62.7290920  59.5069951
  99.5657345  62.1761961  60.1950857 100.4318649  62.1249054  58.9544951
 107.8226920  65.1862544  57.8886724 108.2887372  66.0190535  57.8147027
 108.2734421  64.7207525  58.5931983 105.8903151  71.5306365  54.8872876
 106.1662995  71.4162960  55.7966750 105.0207650  71.1323850  54.8485049
 105.7943583  57.5543131  61.9277625 104.8806663  57.7847358  62.0959832
 106.2236684  57.6381575  62.7791658 101.6137615  66.4852834  70.9143556
 100.9378252  66.3846963  71.5845932 102.4365248  66.3292048  71.3779554
  91.5842706  64.0194473  55.3314446  91.8796147  63.1105151  55.2781500
  90.6830742  63.9982212  55.0095449  93.3130548  61.7008570  55.4553771
  92.9843254  60.8205949  55.2728877  93.6669918  61.6456239  56.3430161
  96.4272371  61.9881540  55.8229249  96.7668443  62.5167462  55.1007857
  96.8744491  62.3261946  56.5987816  98.4140518  60.4856162  54.0222542
  99.1348880  60.8637415  53.5186259  97.7905822  61.2045039  54.1257520
 102.5571641  61.1901311  54.9580874 102.7735255  62.0725949  54.6569702
 102.0765708  60.7987524  54.2286516  98.5604141  60.0203952  56.8520078
  98.6820052  59.0920598  57.0510966  98.2706183  60.0342638  55.9398394
 101.4295331  57.7058863  59.9886798 101.4517028  57.7698196  59.0338778
 101.8463390  56.8663371  60.1827304 106.9414737  73.9944464  53.5072619
 107.6365642  74.6151156  53.7259934 107.2837887  73.1439815  53.7824997
 108.8406160  71.4444169  55.0359950 109.3657484  71.7831442  54.3109270
 108.7528513  70.5091185  54.8523085 105.9401704  64.9100467  68.9703183
 106.8411566  64.7706932  68.6787181 106.0149678  65.0754922  69.9101361
  94.5582480  63.3651620  53.4483196  93.8651725  63.4395975  52.7923232
  94.3134232  62.6011964  53.9704713 103.2296137  54.9247222  60.8522687
 103.5097891  54.2570411  61.4783113 104.0146744  55.1176317  60.3397351
 107.1004995  63.3464856  64.5994262 108.0522418  63.4462953  64.6206486
 106.9308446  62.5543124  65.1092346 105.1219375  60.4320439  64.7853663
 104.5269307  60.7125451  64.0900151 104.8369071  60.9214340  65.5570404
 106.8814882  73.7009236  50.5060243 106.8028513  73.3669100  51.3996001
 107.7024549  74.1931004  50.5051715 101.4176404  65.4367028  49.7563766
 102.3635509  65.3073236  49.8252184 101.0390649  64.6981690  50.2333194
 109.7287561  63.3582019  63.7594845 109.2126610  62.5740475  63.5724774
 110.6127510  63.0300735  63.9241364 107.3898288  57.1023034  59.7190657
 107.1923110  56.7938122  60.6033989 107.9997994  57.8284673  59.8488587
 115.3969623  67.6286982  62.8542598 116.1273011  67.3672270  63.4150302
 114.7876568  66.8915704  62.8944666 113.4784920  65.7694845  63.4517049
 112.7518084  65.6350810  62.8433541 113.0632207  66.0771673  64.2573767
  99.6019321  63.3617005  49.6918651  98.6950776  63.0650117  49.7681364
  99.8795302  63.0646823  48.8252937 101.2181387  57.9053894  55.8462892
 100.4082115  57.5600979  56.2218138 101.9065804  57.5961438  56.4350504
 103.1471935  56.9831941  57.4687189 103.7002974  57.4027395  58.1277212
 103.3842021  56.0567689  57.5110145  98.3718106  60.2203940  49.8330630
  99.2337270  60.5458838  50.0926447  98.5568450  59.4335436  49.3203696
 106.5250742  59.0932466  56.9765853 105.9449411  59.7517270  56.5943905
 106.2586675  58.2709811  56.5653270 104.9754308  58.4937524  59.1787173
 105.4754087  58.6054059  58.3701492 105.6189916  58.1898577  59.8187982
 105.3075620  61.2532557  56.0322201 104.4201475  61.5382207  55.8142396
 105.7229609  61.0926320  55.1849478 108.6590156  61.2779078  59.7476540
 109.4350546  61.7675530  60.0201157 107.9338290  61.7037132  60.2048410
 111.0962715  61.9906697  60.8050481 111.6907206  61.7502433  60.0943789
 111.1689299  61.2713827  61.4324017 104.4518834  71.0177231  50.1270221
 105.1554684  71.2227234  50.7427877 103.7281482  71.5853993  50.3919305
 105.2816644  66.7687093  56.2472491 105.2251845  67.2255644  55.4080124
 105.8344986  66.0077777  56.0695334 109.0921450  62.5576824  57.0722611
 108.8358384  62.1573460  57.9030819 108.4674318  63.2720618  56.9472750
 113.4033788  65.2972898  59.5793902 112.8433346  65.3666087  60.3525464
 112.7977291  65.1213882  58.8593398 106.3605531  71.4559761  52.1768681
 107.1951135  71.0240959  51.9946156 106.1989874  71.2841774  53.1045576
 106.0151423  67.9591874  53.5425021 105.9600227  67.7936145  52.6013465
 105.3897478  68.6667907  53.6987210  99.3247549  57.4599983  53.1210339
  99.3126218  58.4041823  53.2778610 100.2170971  57.2770128  52.8269800
 103.1399668  54.0542759  57.3756276 102.3732064  53.5001246  57.5212958
 103.5510373  54.1264628  58.2370427 111.2021108  77.0873240  52.4434736
 111.3695511  77.9553476  52.8105207 111.0118277  77.2500522  51.5196025
 107.6957767  77.7544535  49.8901541 106.8187233  77.6333336  49.5263787
 108.1715520  76.9630614  49.6380429 110.4413076  78.6908922  49.6918651
 109.5344531  78.3942035  49.7681364 110.7189057  78.3938740  48.8252937
 109.2111860  75.5495857  49.8330630 110.0731024  75.8750756  50.0926447
 109.3962204  74.7627353  49.3203696 110.1641303  72.7891901  53.1210339
 110.1519973  73.7333740  53.2778610 111.0564725  72.6062046  52.8269800
 113.9793423  69.3834677  57.3756276 113.2125818  68.8293164  57.5212958
 114.3904128  69.4556546  58.2370427 125.8283561  97.3021329  62.2723858
 126.4661971  97.1828077  61.5687198 125.7104403  98.2502173  62.3311810
 118.4960083  99.1084234  58.1982274 117.9324948  99.0174171  57.4298561
 118.3812478  98.2884138  58.6784766 116.0424515 100.6035425  61.0366494
 116.8345806 100.2626250  60.6212793 116.2821165 100.7130400  61.9568647
 124.0759641 102.7755202  53.5096739 123.4247621 103.3609282  53.1230752
 124.8704004 103.3061396  53.5691776 118.0015268  99.8644339  53.9083873
 118.7746144  99.3173326  53.7696749 118.3540667 100.7288588  54.1198334
 120.3381546  96.0237005  51.5402323 120.5907067  95.5018526  50.7785786
 119.4006105  95.8603150  51.6429006 125.3824829  95.0272783  59.3477066
 126.1687918  94.6092206  58.9967483 125.6463533  95.9318875  59.5158714
 125.5534906 100.4645633  54.0465723 124.9180739 100.5380260  54.7586627
 125.2232313 101.0539232  53.3684802 120.0577835  97.9265111  53.7426698
 119.9414093  97.2510014  54.4107782 120.1680095  97.4397485  52.9258851
 122.4009376  97.3875258  57.4473387 122.0367583  96.8605879  58.1586308
 123.2576492  96.9973727  57.2739872 122.0414863  92.4165158  52.4434736
 122.2089265  93.2845394  52.8105207 121.8512032  92.5792439  51.5196025
 124.7990196 100.8782136  64.1100566 124.4990919 101.7807175  64.0016373
 124.4541256 100.6114320  64.9621719 122.0204084  94.8722815  53.4281402
 121.9003709  95.3179866  54.2666883 121.3256672  95.2208133  52.8694940
 119.7810976 107.6426457  57.0771534 119.7035006 108.5934282  57.1560014
 119.1772619 107.2972329  57.7346460 127.7189150  95.3444288  54.2561736
 128.6307006  95.5771675  54.0809434 127.2098797  95.9281332  53.6936815
 126.3258732 100.3270107  61.6475318 125.6967595 100.4915821  60.9451386
 125.9384394 100.7411716  62.4186282 130.2047964 101.2624545  59.0019682
 129.5199002 101.6423446  58.4516715 130.2891813 101.8719871  59.7351629
 127.4598896  98.9084504  65.6015025 127.6715791  99.5516263  64.9249406
 127.4128644  98.0746820  65.1336955 121.8786694 100.0644515  58.9125403
 122.3425040 100.3432218  58.1230025 121.6143492  99.1627959  58.7298494
 118.7710775  99.6115996  61.8505166 119.3412132 100.0403265  61.2122651
 119.3618887  99.3298581  62.5489352 120.8155580  96.1867667  55.7214968
 121.5179624  96.6388711  56.1888894 120.4836209  95.5451486  56.3494861
 128.5744724 101.7856459  63.7737382 129.3962167 101.3836646  63.4920064
 128.5707127 101.6824693  64.7253498 136.6650717  98.1295207  60.1222354
 135.9114425  97.5602606  59.9666358 136.7998258  98.0957872  61.0692989
 122.0549345 103.0008610  55.7977073 121.9195020 103.8460145  56.2261921
 122.5959157 103.2027887  55.0343007 115.5078742 100.5184048  56.3704998
 116.0203263 101.3127298  56.5210563 116.1601455  99.8210338  56.3038600
 117.3173627 103.6349804  58.4527752 117.4940255 104.5567769  58.2648735
 118.1130460 103.3208223  58.8822131 123.6817821 103.6232176  69.9277415
 123.2381675 102.8368555  69.6098320 124.3435035 103.8111327  69.2621306
 118.4404942 105.1527978  64.4538094 118.9912367 105.0245041  63.6815088
 117.6016418 105.4522867  64.1032987 125.7799059 103.9034976  67.9558817
 125.7617535 104.7243857  67.4639086 126.7018979 103.7789051  68.1808958
 125.3692091  96.5147783  52.8348402 124.8538715  97.2852387  53.0736789
 125.0969400  95.8412919  53.4581463 130.3426365  99.2680137  54.7701575
 129.5655808  98.9291297  54.3256737 131.0217846  99.2732761  54.0956540
 125.1578394  94.3874875  54.6608183 124.8528530  94.7021024  55.5118326
 126.1108836  94.4656295  54.7035516 123.6024826 100.5465098  56.3101137
 123.0746188  99.8117858  55.9974374 123.1012329 101.3239775  56.0641105
 128.5817672  98.7414119  61.4268183 127.9241347  99.4313380  61.5148312
 129.3858071  99.1310551  61.7702170 127.3923131  97.0958491  59.4772125
 127.9055013  97.7288483  59.9793835 128.0424355  96.4959687  59.1115485
 121.7477426  98.3645308  49.3136110 120.8404488  98.1334562  49.5127259
 122.2448458  97.5682928  49.5010092 124.6545505 107.0742816  52.2332796
 123.9807204 107.3774512  52.8417754 125.0411327 107.8771896  51.8838253
 124.6539010  95.9699363  56.8533146 125.4010829  96.4820760  56.5440268
 124.9230599  95.6483415  57.7137539 122.9265660  98.4657903  53.8360100
 122.0176879  98.1816936  53.9332570 122.9560744  98.8856982  52.9763407
 128.1584927 102.0764493  57.6051268 127.7047254 101.2355403  57.6616458
 127.5278894 102.7125891  57.9426048 126.6017866 103.9140989  58.5401086
 126.8940841 104.4746047  57.8213451 127.1116487 104.2069550  59.2954245
 121.4750554  96.0786524  59.9369896 121.5299164  95.1260360  59.8612372
 120.6641756  96.2345963  60.4211194 122.6241748 100.0066647  51.1748179
 122.1861177  99.2902506  50.7153816 123.3652188 100.2342762  50.6133270
 121.5651492 104.6921341  59.6294539 121.5227670 104.9182187  58.7003071
 122.4814190 104.4584715  59.7780340 130.7414862  98.2823844  57.2324497
 130.6032761  98.4725440  56.3045687 130.3851081  99.0443227  57.6892548
 130.7684242 100.3500371  62.2435769 131.2020749 100.2575660  63.0918823
 131.4815823 100.3257871  61.6055785 119.6817292 101.5684370  59.4256502
 120.4757891 101.0734690  59.2239077 118.9708985 101.0402233  59.0624207
 124.5012137 103.9502465  63.7768869 124.5549159 104.5193401  64.5446585
 123.6326918 104.1204350  63.4122907 131.6299791 100.3924072  64.7768654
 131.8235682 101.2969882  65.0227929 131.5300410  99.9331491  65.6107239
 126.6914900 100.5430814  70.3509535 126.5400407 100.3141366  69.4339619
 126.6819580 101.5001416  70.3640880 122.2588568 102.1413392  63.1054339
 122.1199654 101.7732176  63.9780277 121.4703165 102.6561031  62.9338297
 122.8536720 107.2422488  54.4479875 123.0288476 106.7710531  55.2625498
 122.1669508 107.8688254  54.6761136 123.8093783 101.5194994  60.4943177
 123.4743616 101.4795764  61.3900827 123.3097729 100.8539710  60.0213587
 126.7452975  98.8651029  50.7680236 126.1282146  98.1397857  50.6713289
 126.2769464  99.6260389  50.4247311 128.4007107 103.5749937  68.4286017
 128.3419653 102.8909157  67.7616600 128.8026625 104.3168927  67.9766643
 117.4197806 110.3911851  61.2219736 117.6594404 111.0230375  61.8998754
 116.5767002 110.0399891  61.5085095 118.5351521  93.0836453  49.8901541
 117.6580987  92.9625254  49.5263787 119.0109274  92.2922531  49.6380429
 128.4024514 101.5389521  66.6599996 127.5151293 101.2015443  66.7826395
 128.9723065 100.8072552  66.8968762 110.0553661  97.8713613  59.9843048
 110.7424701  97.5575343  59.3964063 109.9001790  98.7754977  59.7110299
 121.9325667 106.1990973  63.6261240 121.8595839 107.0045945  64.1380544
 121.4903061 106.3982939  62.8009261 121.7215447 105.4362743  57.1364061
 120.9382969 105.9784423  57.2302286 122.4208192 105.9536723  57.5358302
 132.8841855  96.9497738  61.4216558 132.8731731  97.8322454  61.0510491
 132.0159234  96.5969289  61.2271095 124.3924351 106.0977807  65.7819398
 125.1052323 106.7325272  65.7095300 123.9014380 106.1941673  64.9659400
 126.1141878 100.0029060  57.3536690 125.1798157 100.1230522  57.1841394
 126.2918546  99.1001527  57.0896700 129.5014429  95.8446379  57.8886724
 129.9674881  96.6774371  57.8147027 129.9521930  95.3791361  58.5931983
 119.4436265 103.8472251  66.6024969 120.1445724 104.4808734  66.7554363
 118.9731380 104.1886982  65.8420608 127.5690660 102.1890201  54.8872876
 127.8450504 102.0746795  55.7966750 126.6995159 101.7907685  54.8485049
 127.2437550  96.4016858  64.4277519 126.5909001  96.6492766  63.7729972
 127.6217930  95.5880996  64.0939997 124.2044724 106.4376551  58.5305690
 124.3867119 105.6198207  58.9933442 125.0277710 106.6544244  58.0930580
 124.5386890 105.3644737  55.7920738 125.0674656 104.8537191  55.1790900
 124.8015109 105.0487267  56.6566271 115.0403983 103.3808606  63.5356072
 115.6257419 102.6352294  63.6683976 114.8428821 103.6912563  64.4192736
 117.8942638 106.4159853  58.5518514 117.2253013 106.9005981  58.0682554
 117.7555508 106.6629074  59.4661893 109.6321637  95.9514206  62.2560515
 109.6705737  95.4177797  63.0497633 109.1261930  95.4249412  61.6371492
 122.0347906 108.4503597  65.1501172 122.5866214 108.6135218  65.9150258
 122.3754100 109.0408035  64.4781197 126.8858781 103.2764854  71.0049827
 127.4298685 103.8894812  70.5104782 126.3045626 103.8344433  71.5216840
 125.1716294 106.3985572  62.1364855 125.0467433 105.5975312  61.6275800
 125.8295385 106.8931766  61.6478825 127.2351202 104.1994592  63.7644405
 126.2881538 104.0799944  63.6922731 127.5833975 103.3117090  63.8470666
 124.2397635 103.9947309  59.9648757 124.0922598 103.0664016  60.1456327
 125.0651129 104.0167399  59.4805832 127.8431757 104.8175867  61.0513630
 128.7678305 104.6118729  60.9138081 127.6747061 104.5692268  61.9602971
 127.6327073 105.3361535  56.4075721 127.8063951 104.7707957  55.6549574
 128.1255965 106.1362430  56.2255211 133.4866465  98.0997958  58.0266021
 133.9297611  97.3505283  57.6285144 132.6092975  98.0908094  57.6439753
 128.6202246 104.6528299  53.5072619 129.3153151 105.2734992  53.7259934
 128.9625396 103.8023650  53.7824997 130.5193669 102.1028005  55.0359950
 131.0444993 102.4415277  54.3109270 130.4316022 101.1675020  54.8523085
 122.1813718 106.0162078  67.1649827 122.4900844 105.7711225  68.0372526
 122.9789200 106.2208717  66.6768697 122.2034330 108.1699988  59.3955203
 121.7639320 107.6776367  60.0888060 122.9542447 107.6272956  59.1547279
 114.6826669 104.3611529  59.3979831 115.5084689 104.0615301  59.0178475
 114.3320721 103.5919151  59.8469620 119.6508202 103.7137997  61.4677505
 119.0288211 103.0508702  61.1679733 120.3213069 103.7399129  60.7851153
 112.8835274 102.2797855  60.3568765 112.0467182 101.8520030  60.1752766
 112.8558919 102.4730299  61.2939556 130.2087575 102.7360908  70.3411148
 129.4183119 102.7185047  69.8015648 129.9720930 103.2749202  71.0960185
 130.3285450  99.5853375  67.6543877 130.3783455  99.4203382  68.5959399
 130.2199373  98.7180634  67.2641757 119.2121709 102.2641920  54.9435966
 119.3609829 102.9477385  54.2902638 120.0188152 102.2447010  55.4585421
 131.8303647 102.0050316  67.8985898 131.5388455 102.3680297  68.7349359
 131.2175778 101.2917324  67.7199230 133.0299329  99.5703196  60.4188468
 133.8646221 100.0093000  60.5826029 133.1658458  99.0941849  59.5996714
 116.9674342  98.2907098  55.9497034 116.7220384  97.3869428  56.1477245
 117.1370256  98.2924248  55.0076512 122.7117114 104.7590051  52.4147713
 122.1391081 105.3780238  51.9618185 123.2849908 105.3089412  52.9487635
 125.9314374 105.0427201  53.5456295 126.8645047 104.9772763  53.7489171
 125.8437587 105.8783468  53.0870828 128.5602391 104.3593071  50.5060243
 128.4816022 104.0252935  51.3996001 129.3812058 104.8514839  50.5051715
 131.2580582  97.2254811  63.7136561 131.2256902  96.2870811  63.8996245
 131.8681206  97.3038847  62.9802386 123.0963913  96.0950864  49.7563766
 124.0423018  95.9657072  49.8252184 122.7178158  95.3565525  50.2333194
 137.0757132  98.2870817  62.8542598 137.8060520  98.0256106  63.4150302
 136.4664077  97.5499539  62.8944666 135.1572429  96.4278680  63.4517049
 134.4305593  96.2934645  62.8433541 134.7419716  96.7355509  64.2573767
 122.9802605 100.1468610  71.2164422 123.9005615 100.3247209  71.4104469
 122.9452188  99.2024655  71.0644122 121.2806830  94.0200840  49.6918651
 120.3738285  93.7233953  49.7681364 121.5582811  93.7230658  48.8252937
 115.9764678  98.0569644  63.8587204 116.1950688  98.9886752  63.8775237
 116.3890452  97.6977619  64.6442007 112.0673030  98.9610115  62.1110819
 111.3736502  98.5464068  61.5980773 112.8146021  99.0030651  61.5144238
 120.7123813  97.0599989  72.0655014 120.2290895  97.8600349  72.2718903
 120.7984752  97.0707934  71.1122458 113.9809773  98.8928369  59.9876834
 113.9580461  98.9916056  59.0358717 114.2910409  99.7393519  60.3094000
 117.2296533  99.5205640  66.6694246 118.0489422 100.0149718  66.6929083
 117.5033341  98.6037608  66.6411813 126.9863129  91.9116392  56.0322201
 126.0988984  92.1966043  55.8142396 127.4017118  91.7510155  55.1849478
 114.9947380 106.4924143  61.1193646 114.8601848 105.7324544  60.5531644
 114.5779442 107.2165043  60.6522435 126.1306343 101.6761067  50.1270221
 126.8342193 101.8811069  50.7427877 125.4068991 102.2437829  50.3919305
 126.9604153  97.4270928  56.2472491 126.9039354  97.8839479  55.4080124
 127.5132495  96.6661613  56.0695334 130.7708959  93.2160660  57.0722611
 130.5145893  92.8157295  57.9030819 130.1461827  93.9304454  56.9472750
 135.0821297  95.9556733  59.5793902 134.5220855  96.0249922  60.3525464
 134.4764800  95.7797718  58.8593398 118.1516505 107.3893460  61.3312089
 118.0348890 108.3338893  61.2290779 117.3308952 107.0867022  61.7197888
 128.0393040 102.1143596  52.1768681 128.8738644 101.6824794  51.9946156
 127.8777383 101.9425610  53.1045576 127.6938932  98.6175709  53.5425021
 127.6387736  98.4519981  52.6013465 127.0684987  99.3251742  53.6987210
 125.0084839 100.9224621  72.8678583 125.8775999 101.0965273  72.5065218
 124.5291591 101.7419038  72.7454313 119.1771020 108.0421722  64.5468017
 120.0798266 108.0745332  64.8634512 118.9508390 107.1122173  64.5614353
 120.9324622 106.7952709  61.2078096 119.9820253 106.7954570  61.0942468
 121.2357108 106.0485443  60.6914130 136.6677315 112.6313247  62.2723858
 137.3055725 112.5119994  61.5687198 136.5498158 113.5794091  62.3311810
 133.4767021 112.5840675  62.2085383 133.1385533 112.4681740  61.3205918
 134.3456790 112.1831840  62.1886389 129.3353837 114.4376152  58.1982274
 128.7718702 114.3466088  57.4298561 129.2206232 113.6176056  58.6784766
 133.9586804 113.7375527  68.1671588 133.9475445 113.3428325  67.2952092
 134.1207444 113.0041599  68.7605360 126.8818269 115.9327343  61.0366494
 127.6739561 115.5918168  60.6212793 127.1214919 116.0422318  61.9568647
 134.9153396 118.1047119  53.5096739 134.2641376 118.6901200  53.1230752
 135.7097759 118.6353314  53.5691776 128.8409023 115.1936256  53.9083873
 129.6139899 114.6465243  53.7696749 129.1934422 116.0580506  54.1198334
 130.6794065 116.5212639  67.1150772 130.3883931 117.4258269  66.9997438
 131.3151050 116.5629166  67.8294842 131.6050272 113.8989487  63.7052132
 132.2013845 113.6745510  62.9909095 131.6625244 113.1574233  64.3077580
 131.1775301 111.3528922  51.5402323 131.4300821 110.8310444  50.7785786
 130.2399860 111.1895068  51.6429006 136.2218584 110.3564701  59.3477066
 137.0081673 109.9384124  58.9967483 136.4857288 111.2610793  59.5158714
 136.3928661 115.7937551  54.0465723 135.7574494 115.8672178  54.7586627
 136.0626067 116.3831150  53.3684802 141.6227011 110.2939934  60.2510045
 142.3552183 109.7239151  60.4847874 140.8666366 109.9061534  60.6916550
 130.8971589 113.2557028  53.7426698 130.7807848 112.5801932  54.4107782
 131.0073849 112.7689402  52.9258851 133.2403130 112.7167176  57.4473387
 132.8761338 112.1897797  58.1586308 134.0970246 112.3265645  57.2739872
 139.1452431 104.0061508  64.7104653 138.8135756 104.8756919  64.4865868
 138.5498044 103.6897792  65.3898684 132.8808617 107.7457075  52.4434736
 133.0483020 108.6137312  52.8105207 132.6905786 107.9084357  51.5196025
 135.6383951 116.2074054  64.1100566 135.3384674 117.1099093  64.0016373
 135.2935010 115.9406237  64.9621719 129.0896432 112.6587851  60.1437270
 128.1646929 112.5264065  60.3514962 129.3380845 113.4382070  60.6407213
 139.0381094 108.7256594  61.7898003 138.1297972 108.6572003  61.4956764
 138.9868690 109.2028539  62.6179829 132.8597838 110.2014733  53.4281402
 132.7397463 110.6471783  54.2666883 132.1650427 110.5500050  52.8694940
 126.4505243 112.3021125  60.9781059 126.5797624 112.5555603  61.8920471
 125.7702694 112.8948833  60.6585714 130.6204730 122.9718374  57.0771534
 130.5428760 123.9226200  57.1560014 130.0166374 122.6264247  57.7346460
 133.1121960 110.1446240  69.7332900 132.3355294 110.7040160  69.7235765
 133.7512523 110.6303023  70.2547771 140.9042741 106.9273033  63.5675877
 140.2617121 107.2205566  62.9215672 140.3997669 106.8125953  64.3729074
 138.5582904 110.6736206  54.2561736 139.4700761 110.9063593  54.0809434
 138.0492552 111.2573250  53.6936815 131.3668332 112.9531693  69.2950867
 132.1083017 113.4916737  69.0185691 130.6605318 113.5797982  69.4522419
 136.8423672 115.0960834  67.8923029 137.2507028 114.6543244  67.1477661
 136.1200934 114.5213461  68.1457222 133.1954742 110.0333441  65.2656586
 134.0415937 110.4572854  65.4091235 133.1353380 109.3767065  65.9595149
 137.1652487 115.6562024  61.6475318 136.5361349 115.8207738  60.9451386
 136.7778149 116.0703634  62.4186282 141.0441719 116.5916462  59.0019682
 140.3592757 116.9715364  58.4516715 141.1285568 117.2011789  59.7351629
 136.3454187 107.6937809  66.9237760 136.1015119 108.4479869  66.3872035
 136.6214118 108.0723156  67.7585007 138.2992650 114.2376421  65.6015025
 138.5109545 114.8808181  64.9249406 138.2522398 113.4038738  65.1336955
 135.9018879 106.8494242  62.5051597 135.0403358 107.1475495  62.7968335
 135.9281314 107.0664641  61.5732630 132.7180449 115.3936432  58.9125403
 133.1818794 115.6724135  58.1230025 132.4537247 114.4919877  58.7298494
 129.6104530 114.9407914  61.8505166 130.1805887 115.3695182  61.2122651
 130.2012642 114.6590499  62.5489352 131.6549335 111.5159585  55.7214968
 132.3573378 111.9680628  56.1888894 131.3229963 110.8743404  56.3494861
 130.1029696 110.1071341  70.0966177 129.4728357 110.7887622  70.3301574
 129.9965784 109.9954423  69.1519316 125.3974669 109.7743137  61.0232102
 124.6073723 110.0300666  60.5472212 125.8885916 110.5891475  61.1284142
 139.4138478 117.1148377  63.7737382 140.2355922 116.7128564  63.4920064
 139.4100881 117.0116611  64.7253498 127.3489414 110.1387717  57.9815578
 126.5520577 110.2506411  58.4999074 127.1215006 110.4774369  57.1156469
 133.1795082 116.6632420  65.9298093 133.2439514 117.1252827  66.7656265
 132.4706006 116.0329785  66.0580403 123.6812372 110.0273628  63.4547092
 123.9320410 110.9120638  63.7204668 124.2171920 109.8478229  62.6822184
 147.5044471 113.4587125  60.1222354 146.7508180 112.8894523  59.9666358
 147.6392012 113.4249790  61.0692989 132.8943099 118.3300527  55.7977073
 132.7588774 119.1752063  56.2261921 133.4352912 118.5319805  55.0343007
 129.3810439 104.4092107  72.4591429 128.9877384 103.8558306  73.1339073
 130.1976579 104.7202686  72.8497946 126.3472497 115.8475965  56.3704998
 126.8597017 116.6419216  56.5210563 126.9995210 115.1502256  56.3038600
 128.1567381 118.9641722  58.4527752 128.3334010 119.8859686  58.2648735
 128.9524215 118.6500141  58.8822131 132.2978400 105.8249986  70.0511685
 133.0388113 106.4257140  69.9716148 132.5296323 105.0827624  69.4929728
 127.4419738 111.0106354  68.3289915 127.3273253 110.1091611  68.6297014
 126.5864256 111.2570050  67.9774731 134.5211576 118.9524094  69.9277415
 134.0775430 118.1660473  69.6098320 135.1828789 119.1403244  69.2621306
 129.2798697 120.4819896  64.4538094 129.8306122 120.3536959  63.6815088
 128.4410173 120.7814785  64.1032987 136.6192814 119.2326894  67.9558817
 136.6011289 120.0535775  67.4639086 137.5412734 119.1080969  68.1808958
 133.0765868 116.7471023  68.7982325 133.6094205 115.9859312  68.5681633
 132.5479949 116.4544675  69.5406479 136.2435563 101.8531089  64.3275967
 135.8999832 102.7432731  64.2515077 136.6114525 101.6632747  63.4645552
 124.3121413 114.1764620  57.1464569 125.1496635 114.5861628  56.9298277
 124.4899681 113.2364062  57.1164763 136.2085846 111.8439700  52.8348402
 135.6932469 112.6144305  53.0736789 135.9363154 111.1704837  53.4581463
 133.7932957 106.6889401  57.8933640 132.9374553 106.2996252  57.7139279
 134.2059908 106.7681362  57.0333426 135.3232103 104.2235744  62.2925200
 134.8196899 104.1865880  61.4793005 135.6162710 105.1328487  62.3521857
 131.5674989 104.3074474  61.2991382 132.4327986 104.1117283  60.9397271
 131.6352498 104.0784826  62.2260738 141.1820120 114.5972055  54.7701575
 140.4049562 114.2583215  54.3256737 141.8611601 114.6024678  54.0956540
 135.9972149 109.7166793  54.6608183 135.6922284 110.0312942  55.5118326
 136.9502591 109.7948212  54.7035516 134.4418581 115.8757016  56.3101137
 133.9139942 115.1409775  55.9974374 133.9406083 116.6531692  56.0641105
 139.4211427 114.0706036  61.4268183 138.7635101 114.7605298  61.5148312
 140.2251826 114.4602468  61.7702170 129.1737308 106.5376682  58.6707749
 129.7481060 106.3151864  57.9380941 129.7608291 106.6065377  59.4236350
 138.2316885 112.4250409  59.4772125 138.7448767 113.0580401  59.9793835
 138.8818109 111.8251605  59.1115485 129.5006895 108.5681143  52.6903634
 128.6644208 108.9055830  53.0112909 129.3611665 108.4330123  51.7530771
 131.4759976 103.4117931  57.3982818 130.8224388 103.0966948  56.7739433
 131.4340450 102.7893671  58.1242641 132.5871181 113.6937226  49.3136110
 131.6798243 113.4626480  49.5127259 133.0842213 112.8974845  49.5010092
 135.4939260 122.4034733  52.2332796 134.8200958 122.7066430  52.8417754
 135.8805082 123.2063814  51.8838253 134.7097716 109.8999865  61.7230466
 133.7920278 110.1214812  61.5652154 135.1257860 109.9746175  60.8642173
 135.4932764 111.2991280  56.8533146 136.2404583 111.8112677  56.5440268
 135.7624354 110.9775333  57.7137539 133.7659414 113.7949821  53.8360100
 132.8570633 113.5108854  53.9332570 133.7954498 114.2148900  52.9763407
 138.9978682 117.4056410  57.6051268 138.5441009 116.5647320  57.6616458
 138.3672648 118.0417809  57.9426048 137.9411601 108.3348397  58.8351935
 137.2034358 107.8225783  59.1662178 138.1938375 107.8948778  58.0235212
 137.4411621 119.2432907  58.5401086 137.7334595 119.8037964  57.8213451
 137.9510241 119.5361468  59.2954245 138.0423229 101.1124649  59.4293704
 138.3482105 100.2522012  59.1419620 138.7675833 101.7042269  59.2292698
 124.3347585 111.5155335  57.8175302 124.1371984 110.9224696  57.0926369
 123.7794249 111.2107545  58.5351241 132.3144308 111.4078442  59.9369896
 132.3692918 110.4552278  59.8612372 131.5035510 111.5637881  60.4211194
 133.4635502 115.3358565  51.1748179 133.0254932 114.6194424  50.7153816
 134.2045943 115.5634679  50.6133270 130.2536668 110.0255501  57.6960274
 129.4404534 110.3249672  58.1025467 130.7495662 109.6311190  58.4134757
 132.4045246 120.0213258  59.6294539 132.3621425 120.2474105  58.7003071
 133.3207945 119.7876633  59.7780340 135.8510880 110.4897326  66.5275168
 136.2060268 110.7168799  67.3869634 136.4983011 110.8215703  65.9052424
 141.5808617 113.6115762  57.2324497 141.4426515 113.8017358  56.3045687
 141.2244836 114.3735144  57.6892548 129.7450743 107.5973857  63.3121509
 130.3850122 107.4562616  62.6144473 128.9128273 107.3108370  62.9360111
 141.6077996 115.6792289  62.2435769 142.0414503 115.5867578  63.0918823
 142.3209577 115.6549789  61.6055785 130.5211047 116.8976287  59.4256502
 131.3151645 116.4026607  59.2239077 129.8102739 116.3694150  59.0624207
 135.3405891 119.2794383  63.7768869 135.3942914 119.8485319  64.5446585
 134.4720673 119.4496268  63.4122907 126.8293810 111.0419369  55.5016254
 125.8991398 110.9803824  55.7186217 126.9251282 110.5195322  54.7052896
 126.7479359 107.5674182  58.0894496 127.0086177 108.4819515  57.9803657
 127.5696532 107.0998624  58.2391109 128.2204285 108.9811939  65.2593321
 128.8927338 108.7729301  64.6105970 127.3934071 108.7834025  64.8198553
 142.4693546 115.7215989  64.7768654 142.6629436 116.6261800  65.0227929
 142.3694164 115.2623408  65.6107239 134.1229857 105.6073880  67.2758982
 133.4757772 106.3063830  67.1823458 134.8930872 106.0410024  67.6435230
 137.5308655 115.8722732  70.3509535 137.3794161 115.6433284  69.4339619
 137.5213334 116.8293334  70.3640880 134.2993991 113.4454645  65.3355801
 135.2286051 113.5965804  65.1624769 133.8785021 113.5338666  64.4804448
 133.0982323 117.4705309  63.1054339 132.9593409 117.1024094  63.9780277
 132.3096919 117.9852949  62.9338297 133.6930475 122.5714406  54.4479875
 133.8682230 122.1002449  55.2625498 133.0063263 123.1980172  54.6761136
 134.6487538 116.8486912  60.4943177 134.3137371 116.8087682  61.3900827
 134.1491484 116.1831628  60.0213587 128.6231782 112.2554542  66.0195758
 128.4851580 111.5234781  66.6207297 129.5336705 112.1663442  65.7379946
 137.5846730 114.1942946  50.7680236 136.9675900 113.4689774  50.6713289
 137.1163218 114.9552307  50.4247311 131.2514083 111.9674501  65.5079437
 131.9613701 111.3267693  65.4666056 131.2083391 112.2187396  66.4305618
 139.2400861 118.9041855  68.4286017 139.1813407 118.2201075  67.7616600
 139.6420380 119.6460845  67.9766643 129.9643017 108.9539719  67.3275077
 129.4280374 108.5030458  67.9796673 129.3759725 109.0885628  66.5845541
 128.2591560 125.7203768  61.2219736 128.4988158 126.3522293  61.8998754
 127.4160757 125.3691809  61.5085095 129.3745276 108.4128371  49.8901541
 128.4974742 108.2917171  49.5263787 129.8503029 107.6214449  49.6380429
 139.2418269 116.8681439  66.6599996 138.3545047 116.5307360  66.7826395
 139.8116820 116.1364470  66.8968762 120.8947416 113.2005530  59.9843048
 121.5818456 112.8867260  59.3964063 120.7395544 114.1046895  59.7110299
 125.6982138 108.0895727  64.4128071 125.6140327 107.4821396  63.6778481
 124.8764844 108.5804745  64.4137568 132.7719422 121.5282891  63.6261240
 132.6989593 122.3337862  64.1380544 132.3296815 121.7274857  62.8009261
 132.5609202 120.7654661  57.1364061 131.7776723 121.3076341  57.2302286
 133.2601947 121.2828641  57.5358302 135.8705852 106.5749290  59.7798266
 136.3674551 105.8219253  59.4599337 135.0992833 106.6113607  59.2141476
 143.7235609 112.2789656  61.4216558 143.7125485 113.1614371  61.0510491
 142.8552989 111.9261207  61.2271095 135.2318105 121.4269725  65.7819398
 135.9446078 122.0617190  65.7095300 134.7408134 121.5233591  64.9659400
 136.9535632 115.3320978  57.3536690 136.0191911 115.4522440  57.1841394
 137.1312301 114.4293444  57.0896700 132.4540820 108.7166673  59.5069951
 132.0838608 108.1637714  60.1950857 132.9499913 108.1124807  58.9544951
 140.3408184 111.1738297  57.8886724 140.8068636 112.0066289  57.8147027
 140.7915684 110.7083278  58.5931983 130.2830019 119.1764168  66.6024969
 130.9839479 119.8100651  66.7554363 129.8125134 119.5178900  65.8420608
 138.4084415 117.5182118  54.8872876 138.6844259 117.4038713  55.7966750
 137.5388914 117.1199603  54.8485049 138.3124846 103.5418884  61.9277625
 137.3987926 103.7723111  62.0959832 138.7417948 103.6257328  62.7791658
 138.0831305 111.7308776  64.4277519 137.4302755 111.9784683  63.7729972
 138.4611685 110.9172914  64.0939997 135.0438479 121.7668469  58.5305690
 135.2260873 120.9490125  58.9933442 135.8671465 121.9836161  58.0930580
 135.3780644 120.6936654  55.7920738 135.9068411 120.1829109  55.1790900
 135.6408864 120.3779184  56.6566271 134.1318878 112.4728587  70.9143556
 133.4559515 112.3722716  71.5845932 134.9546512 112.3167801  71.3779554
 125.8797737 118.7100523  63.5356072 126.4651174 117.9644211  63.6683976
 125.6822576 119.0204480  64.4192736 128.7336392 121.7451771  58.5518514
 128.0646768 122.2297898  58.0682554 128.5949262 121.9920991  59.4661893
 120.4715392 111.2806124  62.2560515 120.5099491 110.7469714  63.0497633
 119.9655685 110.7541329  61.6371492 132.8741661 123.7795514  65.1501172
 133.4259969 123.9427136  65.9150258 133.2147854 124.3699952  64.4781197
 127.8506154 106.1270664  65.7523057 127.9147481 106.9885495  65.3400455
 127.7873274 105.5144666  65.0195416 127.3258427 108.1993797  69.3996091
 127.9530465 107.8170874  70.0133616 126.4686345 107.9807999  69.7651784
 137.7252535 118.6056772  71.0049827 138.2692439 119.2186730  70.5104782
 137.1439380 119.1636350  71.5216840 124.1023969 110.0070226  55.3314446
 124.3977410 109.0980904  55.2781500 123.2012005 109.9857965  55.0095449
 136.0110048 121.7277490  62.1364855 135.8861188 120.9267230  61.6275800
 136.6689139 122.2223683  61.6478825 127.6318216 108.0826222  61.3141995
 126.9104802 108.6962190  61.1749468 128.4211472 108.6183987  61.2358641
 138.0744957 119.5286510  63.7644405 137.1275292 119.4091861  63.6922731
 138.4227730 118.6409008  63.8470666 130.4344530 105.4180649  67.5882647
 130.9578932 105.6642945  68.3508956 130.2156863 106.2500684  67.1685784
 125.8311811 107.6884323  55.4553771 125.5024517 106.8081702  55.2728877
 126.1851182 107.6331992  56.3430161 135.0791390 119.3239226  59.9648757
 134.9316352 118.3955934  60.1456327 135.9044883 119.3459317  59.4805832
 128.9453634 107.9757293  55.8229249 129.2849707 108.5043215  55.1007857
 129.3925755 108.3137699  56.5987816 138.6825512 120.1467785  61.0513630
 139.6072059 119.9410646  60.9138081 138.5140815 119.8984186  61.9602971
 131.6397075 106.3594344  65.2732317 131.2993895 105.5602157  65.6752997
 130.9336081 106.6596055  64.7009150 132.2913547 103.4443656  63.7259640
 133.1139616 102.9704135  63.6038530 132.5351610 104.2234140  64.2258326
 130.9321781 106.4731915  54.0222542 131.6530144 106.8513168  53.5186259
 130.3087085 107.1920792  54.1257520 135.0752904 107.1777064  54.9580874
 135.2916519 108.0601702  54.6569702 134.5946971 106.7863277  54.2286516
 129.8152126 110.1362777  61.5351619 129.6696706 110.4503080  62.4275900
 129.3377329 110.7547677  60.9822517 131.6748508 107.1265325  61.5832508
 131.6610077 106.2306418  61.2464806 132.3920937 107.1335989  62.2170794
 133.5274639 107.5602665  63.6285636 133.2692417 108.4819736  63.6269966
 132.9959680 107.1633100  64.3186100 138.4720828 120.6653452  56.4075721
 138.6457705 120.0999875  55.6549574 138.9649719 121.4654347  56.2255211
 124.2897788 112.6768121  64.4739280 123.7451256 113.4527929  64.6059554
 125.1677138 113.0238926  64.3158401 131.0785404 106.0079705  56.8520078
 131.2001316 105.0796352  57.0510966 130.7887447 106.0218391  55.9398394
 133.9476595 103.6934616  59.9886798 133.9698292 103.7573949  59.0338778
 134.3644654 102.8539124  60.1827304 144.3260219 113.4289875  58.0266021
 144.7691365 112.6797201  57.6285144 143.4486729 113.4200012  57.6439753
 139.4596000 119.9820217  53.5072619 140.1546905 120.6026909  53.7259934
 139.8019151 119.1315568  53.7824997 125.0763810 111.8038018  67.3669437
 124.3345546 111.9520653  67.9534067 124.7556554 112.0646283  66.5036186
 141.3587424 117.4319922  55.0359950 141.8838748 117.7707195  54.3109270
 141.2709776 116.4966938  54.8523085 133.0207472 121.3453996  67.1649827
 133.3294599 121.1003143  68.0372526 133.8182954 121.5500634  66.6768697
 133.0428084 123.4991906  59.3955203 132.6033075 123.0068284  60.0888060
 133.7936201 122.9564873  59.1547279 125.5220423 119.6903446  59.3979831
 126.3478443 119.3907218  59.0178475 125.1714475 118.9211069  59.8469620
 130.4901956 119.0429915  61.4677505 129.8681966 118.3800620  61.1679733
 131.1606823 119.0691047  60.7851153 123.7229028 117.6089773  60.3568765
 122.8860937 117.1811947  60.1752766 123.6952674 117.8022216  61.2939556
 130.5626484 107.5211703  71.0610011 130.6114639 108.3973826  70.6787781
 131.1048998 106.9789096  70.4881654 141.0481330 118.0652826  70.3411148
 140.2576873 118.0476965  69.8015648 140.8114684 118.6041120  71.0960185
 141.1679205 114.9145292  67.6543877 141.2177210 114.7495300  68.5959399
 141.0593128 114.0472551  67.2641757 130.0515463 117.5933838  54.9435966
 130.2003584 118.2769302  54.2902638 130.8581907 117.5738928  55.4585421
 138.4582967 110.8976220  68.9703183 139.3592830 110.7582685  68.6787181
 138.5330942 111.0630675  69.9101361 132.7925772 108.2743075  67.8156370
 131.9229082 108.5676641  67.5438958 133.0285253 108.8583520  68.5363633
 142.6697401 117.3342234  67.8985898 142.3782210 117.6972214  68.7349359
 142.0569533 116.6209242  67.7199230 143.8693084 114.8995114  60.4188468
 144.7039975 115.3384918  60.5826029 144.0052213 114.4233767  59.5996714
 140.9184590 112.4574848  66.3665956 141.3938711 112.6502495  65.5584808
 139.9950155 112.5134034  66.1209340 127.8068096 113.6199016  55.9497034
 127.5614138 112.7161346  56.1477245 127.9764011 113.6216166  55.0076512
 135.4964806 104.4922692  65.3321790 136.0146750 105.2283719  65.0068279
 135.1419939 104.7986685  66.1668549 127.0763744 109.3527373  53.4483196
 126.3832989 109.4271728  52.7923232 126.8315496 108.5887717  53.9704713
 135.7477400 100.9122975  60.8522687 136.0279154 100.2446164  61.4783113
 136.5328007 101.1052070  60.3397351 133.5510869 120.0881968  52.4147713
 132.9784836 120.7072156  51.9618185 134.1243663 120.6381330  52.9487635
 139.6186259 109.3340609  64.5994262 140.5703682 109.4338706  64.6206486
 139.4489709 108.5418877  65.1092346 137.6400638 106.4196192  64.7853663
 137.0450570 106.7001204  64.0900151 137.3550335 106.9090093  65.5570404
 136.7708129 120.3719119  53.5456295 137.7038802 120.3064680  53.7489171
 136.6831341 121.2075385  53.0870828 139.3996145 119.6884989  50.5060243
 139.3209777 119.3544853  51.3996001 140.2205812 120.1806757  50.5051715
 142.0974336 112.5546728  63.7136561 142.0650657 111.6162729  63.8996245
 142.7074960 112.6330765  62.9802386 133.9357667 111.4242781  49.7563766
 134.8816772 111.2948989  49.8252184 133.5571912 110.6857443  50.2333194
 142.2468825 109.3457772  63.7594845 141.7307874 108.5616228  63.5724774
 143.1308773 109.0176488  63.9241364 139.9079552 103.0898787  59.7190657
 139.7104373 102.7813875  60.6033989 140.5179257 103.8160426  59.8488587
 145.9966183 111.7570598  63.4517049 145.2699347 111.6226563  62.8433541
 145.5813470 112.0647426  64.2573767 133.8196360 115.4760527  71.2164422
 134.7399369 115.6539126  71.4104469 133.7845943 114.5316573  71.0644122
 132.1200584 109.3492758  49.6918651 131.2132040 109.0525870  49.7681364
 132.3976565 109.0522576  48.8252937 123.0378525 110.6699121  60.1417697
 122.7181309 109.8164429  59.8492071 122.4911953 110.8847699  60.8975664
 126.8158432 113.3861562  63.8587204 127.0344442 114.3178670  63.8775237
 127.2284206 113.0269536  64.6442007 133.7362650 103.8929647  55.8462892
 132.9263379 103.5476732  56.2218138 134.4247067 103.5837191  56.4350504
 135.6653198 102.9707694  57.4687189 136.2184237 103.3903148  58.1277212
 135.9023285 102.0443442  57.5110145 131.6886298 108.9594768  73.2489953
 131.5883025 109.9089125  73.1802044 131.4707840 108.6313007  72.3766023
 130.8899369 106.2079693  49.8330630 131.7518533 106.5334591  50.0926447
 131.0749713 105.4211189  49.3203696 122.9066785 114.2902033  62.1110819
 122.2130256 113.8755985  61.5980773 123.6539776 114.3322569  61.5144238
 139.0432006 105.0808219  56.9765853 138.4630675 105.7393023  56.5943905
 138.7767938 104.2585564  56.5653270 137.4935572 104.4813277  59.1787173
 137.9935350 104.5929812  58.3701492 138.1371180 104.1774330  59.8187982
 131.5517568 112.3891907  72.0655014 131.0684649 113.1892267  72.2718903
 131.6378507 112.3999851  71.1122458 124.8203527 114.2220286  59.9876834
 124.7974216 114.3207974  59.0358717 125.1304164 115.0685437  60.3094000
 127.4790905 116.2796441  64.1023448 128.4334159 116.2480384  64.0353380
 127.2803429 115.8187065  64.9173674 128.0690287 114.8497557  66.6694246
 128.8883176 115.3441636  66.6929083 128.3427095 113.9329526  66.6411813
 137.8256884 107.2408310  56.0322201 136.9382739 107.5257960  55.8142396
 138.2410873 107.0802073  55.1849478 141.1771420 107.2654831  59.7476540
 141.9531810 107.7551283  60.0201157 140.4519554 107.6912885  60.2048410
 143.6143978 107.9782450  60.8050481 144.2088469 107.7378186  60.0943789
 143.6870562 107.2589580  61.4324017 125.8341134 121.8216061  61.1193646
 125.6995602 121.0616462  60.5531644 125.4173196 122.5456961  60.6522435
 136.9700097 117.0052984  50.1270221 137.6735947 117.2102987  50.7427877
 136.2462746 117.5729746  50.3919305 137.7997907 112.7562846  56.2472491
 137.7433109 113.2131397  55.4080124 138.3526250 111.9953530  56.0695334
 141.6102713 108.5452577  57.0722611 141.3539647 108.1449213  57.9030819
 140.9855581 109.2596371  56.9472750 145.9215051 111.2848651  59.5793902
 145.3614609 111.3541840  60.3525464 145.3158554 111.1089635  58.8593398
 128.9910260 122.7185378  61.3312089 128.8742644 123.6630810  61.2290779
 128.1702706 122.4158939  61.7197888 138.8786794 117.4435514  52.1768681
 139.7132398 117.0116712  51.9946156 138.7171137 117.2717527  53.1045576
 138.5332687 113.9467627  53.5425021 138.4781490 113.7811898  52.6013465
 137.9078742 114.6543660  53.6987210 123.3225202 109.1835691  67.3686443
 123.9684065 108.6734645  67.8573668 123.1142353 109.9204373  67.9429868
 135.8478594 116.2516539  72.8678583 136.7169753 116.4257191  72.5065218
 135.3685345 117.0710956  72.7454313 131.8428812 103.4475736  53.1210339
 131.8307482 104.3917576  53.2778610 132.7352234 103.2645881  52.8269800
 130.0164774 123.3713640  64.5468017 130.9192021 123.4037250  64.8634512
 129.7902144 122.4414091  64.5614353 131.7718376 122.1244626  61.2078096
 130.8214007 122.1246488  61.0942468 132.0750862 121.3777361  60.6914130
 135.6580932 100.0418512  57.3756276 134.8913327  99.4876999  57.5212958
 136.0691637 100.1140381  58.2370427 127.6622693 106.3303308  71.4661457
 128.5254154 105.9740113  71.6764782 127.0888103 105.9917203  72.1536861
 144.3160776 127.9132593  62.2085383 143.9779287 127.7973657  61.3205918
 145.1850544 127.5123758  62.1886389 140.1747592 129.7668069  58.1982274
 139.6112457 129.6758006  57.4298561 140.0599987 128.9467974  58.6784766
 137.7212023 131.2619261  61.0366494 138.5133315 130.9210085  60.6212793
 137.9608674 131.3714236  61.9568647 139.6802777 130.5228174  53.9083873
 140.4533653 129.9757161  53.7696749 140.0328176 131.3872423  54.1198334
 142.4444027 129.2281405  63.7052132 143.0407599 129.0037427  62.9909095
 142.5018998 128.4866150  64.3077580 142.0169055 126.6820840  51.5402323
 142.2694576 126.1602361  50.7785786 141.0793614 126.5186986  51.6429006
 147.0612338 125.6856619  59.3477066 147.8475427 125.2676042  58.9967483
 147.3251042 126.5902711  59.5158714 141.7365344 128.5848946  53.7426698
 141.6201602 127.9093849  54.4107782 141.8467604 128.0981320  52.9258851
 144.0796885 128.0459093  57.4473387 143.7155092 127.5189714  58.1586308
 144.9364001 127.6557562  57.2739872 143.7202372 123.0748993  52.4434736
 143.8876774 123.9429229  52.8105207 143.5299541 123.2376275  51.5196025
 139.9290187 127.9879769  60.1437270 139.0040683 127.8555983  60.3514962
 140.1774600 128.7673988  60.6407213 143.6991593 125.5306650  53.4281402
 143.5791218 125.9763701  54.2666883 143.0044181 125.8791968  52.8694940
 137.2898998 127.6313042  60.9781059 137.4191379 127.8847521  61.8920471
 136.6096449 128.2240750  60.6585714 143.9515715 125.4738158  69.7332900
 143.1749049 126.0332078  69.7235765 144.5906278 125.9594941  70.2547771
 142.2062087 128.2823611  69.2950867 142.9476771 128.8208655  69.0185691
 141.4999072 128.9089900  69.4522419 144.0348497 125.3625358  65.2656586
 144.8809692 125.7864772  65.4091235 143.9747134 124.7058982  65.9595149
 147.1847942 123.0229727  66.9237760 146.9408874 123.7771787  66.3872035
 147.4607872 123.4015074  67.7585007 146.7412634 122.1786160  62.5051597
 145.8797113 122.4767413  62.7968335 146.7675068 122.3956558  61.5732630
 140.4498284 130.2699832  61.8505166 141.0199641 130.6987100  61.2122651
 141.0406396 129.9882416  62.5489352 142.4943089 126.8451502  55.7214968
 143.1967133 127.2972546  56.1888894 142.1623718 126.2035321  56.3494861
 140.9423451 125.4363259  70.0966177 140.3122111 126.1179540  70.3301574
 140.8359539 125.3246341  69.1519316 136.2368423 125.1035055  61.0232102
 135.4467477 125.3592584  60.5472212 136.7279670 125.9183393  61.1284142
 138.1883169 125.4679634  57.9815578 137.3914332 125.5798329  58.4999074
 137.9608761 125.8066287  57.1156469 134.5206126 125.3565546  63.4547092
 134.7714165 126.2412556  63.7204668 135.0565675 125.1770147  62.6822184
 140.2204193 119.7384025  72.4591429 139.8271139 119.1850224  73.1339073
 141.0370334 120.0494603  72.8497946 137.1866251 131.1767883  56.3704998
 137.6990772 131.9711133  56.5210563 137.8388964 130.4794174  56.3038600
 143.1372154 121.1541904  70.0511685 143.8781868 121.7549057  69.9716148
 143.3690077 120.4119542  69.4929728 138.2813492 126.3398271  68.3289915
 138.1667008 125.4383529  68.6297014 137.4258010 126.5861968  67.9774731
 147.0829317 117.1823007  64.3275967 146.7393587 118.0724649  64.2515077
 147.4508280 116.9924665  63.4645552 135.1515168 129.5056537  57.1464569
 135.9890390 129.9153546  56.9298277 135.3293436 128.5655980  57.1164763
 144.6326711 122.0181319  57.8933640 143.7768307 121.6288169  57.7139279
 145.0453663 122.0973280  57.0333426 146.1625858 119.5527662  62.2925200
 145.6590653 119.5157797  61.4793005 146.4556465 120.4620405  62.3521857
 142.4068744 119.6366392  61.2991382 143.2721740 119.4409201  60.9397271
 142.4746253 119.4076744  62.2260738 146.8365903 125.0458710  54.6608183
 146.5316039 125.3604859  55.5118326 147.7896345 125.1240130  54.7035516
 140.0131063 121.8668600  58.6707749 140.5874815 121.6443781  57.9380941
 140.6002045 121.9357294  59.4236350 140.3400650 123.8973061  52.6903634
 139.5037962 124.2347747  53.0112909 140.2005419 123.7622041  51.7530771
 142.3153730 118.7409849  57.3982818 141.6618143 118.4258866  56.7739433
 142.2734205 118.1185589  58.1242641 143.4264935 129.0229144  49.3136110
 142.5191997 128.7918397  49.5127259 143.9235967 128.2266763  49.5010092
 145.5491471 125.2291782  61.7230466 144.6314032 125.4506729  61.5652154
 145.9651614 125.3038093  60.8642173 135.1741339 126.8447253  57.8175302
 134.9765739 126.2516613  57.0926369 134.6188003 126.5399463  58.5351241
 143.1538063 126.7370359  59.9369896 143.2086673 125.7844196  59.8612372
 142.3429265 126.8929798  60.4211194 141.0930423 125.3547419  57.6960274
 140.2798288 125.6541590  58.1025467 141.5889417 124.9603108  58.4134757
 146.6904634 125.8189243  66.5275168 147.0454022 126.0460717  67.3869634
 147.3376766 126.1507620  65.9052424 140.5844497 122.9265775  63.3121509
 141.2243877 122.7854534  62.6144473 139.7522028 122.6400288  62.9360111
 137.6687565 126.3711287  55.5016254 136.7385153 126.3095742  55.7186217
 137.7645037 125.8487239  54.7052896 137.5873114 122.8966100  58.0894496
 137.8479931 123.8111433  57.9803657 138.4090286 122.4290542  58.2391109
 139.0598039 124.3103857  65.2593321 139.7321093 124.1021219  64.6105970
 138.2327826 124.1125943  64.8198553 144.9623611 120.9365798  67.2758982
 144.3151526 121.6355747  67.1823458 145.7324627 121.3701942  67.6435230
 139.4625536 127.5846460  66.0195758 139.3245334 126.8526698  66.6207297
 140.3730460 127.4955360  65.7379946 142.0907837 127.2966419  65.5079437
 142.8007456 126.6559611  65.4666056 142.0477145 127.5479314  66.4305618
 140.8036771 124.2831637  67.3275077 140.2674128 123.8322375  67.9796673
 140.2153480 124.4177546  66.5845541 140.2139030 123.7420288  49.8901541
 139.3368496 123.6209089  49.5263787 140.6896783 122.9506367  49.6380429
 131.7341170 128.5297448  59.9843048 132.4212210 128.2159178  59.3964063
 131.5789299 129.4338813  59.7110299 136.5375892 123.4187645  64.4128071
 136.4534081 122.8113314  63.6778481 135.7158599 123.9096663  64.4137568
 146.7099606 121.9041208  59.7798266 147.2068306 121.1511170  59.4599337
 145.9386588 121.9405525  59.2141476 143.2934575 124.0458591  59.5069951
 142.9232362 123.4929631  60.1950857 143.7893667 123.4416725  58.9544951
 144.9712632 127.8020505  70.9143556 144.2953270 127.7014634  71.5845932
 145.7940266 127.6459718  71.3779554 136.7191492 134.0392441  63.5356072
 137.3044928 133.2936129  63.6683976 136.5216330 134.3496398  64.4192736
 131.3109146 126.6098041  62.2560515 131.3493246 126.0761632  63.0497633
 130.8049439 126.0833247  61.6371492 138.6899909 121.4562582  65.7523057
 138.7541235 122.3177413  65.3400455 138.6267029 120.8436584  65.0195416
 138.1652181 123.5285714  69.3996091 138.7924220 123.1462792  70.0133616
 137.3080100 123.3099916  69.7651784 134.9417724 125.3362144  55.3314446
 135.2371165 124.4272822  55.2781500 134.0405760 125.3149883  55.0095449
 138.4711971 123.4118140  61.3141995 137.7498557 124.0254108  61.1749468
 139.2605227 123.9475905  61.2358641 141.2738284 120.7472567  67.5882647
 141.7972686 120.9934863  68.3508956 141.0550618 121.5792601  67.1685784
 136.6705565 123.0176241  55.4553771 136.3418272 122.1373620  55.2728877
 137.0244936 122.9623910  56.3430161 139.7847389 123.3049211  55.8229249
 140.1243461 123.8335132  55.1007857 140.2319509 123.6429617  56.5987816
 142.4790829 121.6886262  65.2732317 142.1387650 120.8894075  65.6752997
 141.7729836 121.9887973  64.7009150 143.1307301 118.7735574  63.7259640
 143.9533371 118.2996052  63.6038530 143.3745365 119.5526058  64.2258326
 141.7715536 121.8023833  54.0222542 142.4923898 122.1805085  53.5186259
 141.1480840 122.5212709  54.1257520 145.9146659 122.5068982  54.9580874
 146.1310273 123.3893619  54.6569702 145.4340726 122.1155195  54.2286516
 140.6545880 125.4654695  61.5351619 140.5090461 125.7794998  62.4275900
 140.1771084 126.0839595  60.9822517 142.5142263 122.4557243  61.5832508
 142.5003832 121.5598336  61.2464806 143.2314691 122.4627906  62.2170794
 144.3668394 122.8894583  63.6285636 144.1086171 123.8111654  63.6269966
 143.8353434 122.4925017  64.3186100 135.1291542 128.0060039  64.4739280
 134.5845010 128.7819847  64.6059554 136.0070892 128.3530844  64.3158401
 141.9179159 121.3371623  56.8520078 142.0395070 120.4088269  57.0510966
 141.6281201 121.3510309  55.9398394 144.7870349 119.0226533  59.9886798
 144.8092046 119.0865867  59.0338778 145.2038408 118.1831042  60.1827304
 135.9157564 127.1329935  67.3669437 135.1739300 127.2812571  67.9534067
 135.5950308 127.3938201  66.5036186 134.5622783 132.9381691  60.3568765
 133.7254691 132.5103865  60.1752766 134.5346428 133.1314134  61.2939556
 141.4020238 122.8503620  71.0610011 141.4508394 123.7265743  70.6787781
 141.9442753 122.3081013  70.4881654 143.6319527 123.6034993  67.8156370
 142.7622836 123.8968559  67.5438958 143.8679007 124.1875438  68.5363633
 138.6461851 128.9490933  55.9497034 138.4007893 128.0453263  56.1477245
 138.8157765 128.9508084  55.0076512 146.3358561 119.8214610  65.3321790
 146.8540505 120.5575637  65.0068279 145.9813693 120.1278603  66.1668549
 137.9157498 124.6819291  53.4483196 137.2226743 124.7563646  52.7923232
 137.6709250 123.9179635  53.9704713 146.5871155 116.2414892  60.8522687
 146.8672909 115.5738081  61.4783113 147.3721762 116.4343988  60.3397351
 144.7751422 126.7534699  49.7563766 145.7210527 126.6240907  49.8252184
 144.3965667 126.0149361  50.2333194 142.9594339 124.6784675  49.6918651
 142.0525794 124.3817788  49.7681364 143.2370320 124.3814493  48.8252937
 133.8772279 125.9991039  60.1417697 133.5575064 125.1456347  59.8492071
 133.3305708 126.2139617  60.8975664 137.6552187 128.7153480  63.8587204
 137.8738197 129.6470588  63.8775237 138.0677961 128.3561454  64.6442007
 144.5756405 119.2221565  55.8462892 143.7657133 118.8768650  56.2218138
 145.2640822 118.9129109  56.4350504 146.5046953 118.2999612  57.4687189
 147.0577992 118.7195065  58.1277212 146.7417039 117.3735360  57.5110145
 142.5280052 124.2886685  73.2489953 142.4276779 125.2381042  73.1802044
 142.3101594 123.9604924  72.3766023 141.7293124 121.5371611  49.8330630
 142.5912288 121.8626509  50.0926447 141.9143468 120.7503106  49.3203696
 133.7460539 129.6193950  62.1110819 133.0524011 129.2047903  61.5980773
 134.4933530 129.6614487  61.5144238 142.3911322 127.7183824  72.0655014
 141.9078404 128.5184184  72.2718903 142.4772261 127.7291769  71.1122458
 135.6597282 129.5512204  59.9876834 135.6367970 129.6499891  59.0358717
 135.9697918 130.3977355  60.3094000 138.3184660 131.6088359  64.1023448
 139.2727913 131.5772301  64.0353380 138.1197183 131.1478983  64.9173674
 138.9084042 130.1789475  66.6694246 139.7276931 130.6733554  66.6929083
 139.1820850 129.2621443  66.6411813 134.1618956 124.5127609  67.3686443
 134.8077820 124.0026563  67.8573668 133.9536107 125.2496291  67.9429868
 142.6822567 118.7767654  53.1210339 142.6701236 119.7209493  53.2778610
 143.5745988 118.5937799  52.8269800 146.4974686 115.3710430  57.3756276
 145.7307082 114.8168917  57.5212958 146.9085391 115.4432299  58.2370427
 138.5016447 121.6595226  71.4661457 139.3647909 121.3032031  71.6764782
 137.9281858 121.3209121  72.1536861  54.7448450  -7.3262927  43.8016840
  54.6672480  -6.3755102  43.8805321  54.1410094  -7.6717054  44.4591767
  53.4042417  -9.8161406  51.1783401  53.9549842  -9.9444342  50.4060394
  52.5653893  -9.5166517  50.8278293  59.6182979  -7.8946568  38.9578103
  58.9444678  -7.5914871  39.5663061  60.0048801  -7.0917488  38.6083560
  57.8174195  -7.7266895  41.1725182  57.9925950  -8.1978852  41.9870805
  57.1306983  -7.1001129  41.4006443  52.3835280  -4.5777533  47.9465042
  52.6231878  -3.9459008  48.6244061  51.5404476  -4.9289493  48.2330401
  56.8963142  -8.7698410  50.3506546  56.8233313  -7.9643439  50.8625851
  56.4540535  -8.5706444  49.5254568  56.6852921  -9.5326640  43.8609368
  55.9020443  -8.9904960  43.9547592  57.3845667  -9.0152661  44.2603609
  59.3561825  -8.8711576  52.5064705  60.0689798  -8.2364111  52.4340606
  58.8651854  -8.7747710  51.6904707  52.8580112  -8.5529530  45.2763821
  52.1890487  -8.0683403  44.7927861  52.7192982  -8.3060310  46.1907199
  56.9985381  -6.5185787  51.8746479  57.5503689  -6.3554165  52.6395564
  57.3391574  -5.9281349  51.2026504  57.1451192  -8.9527305  53.8895133
  57.4538318  -9.1978158  54.7617833  57.9426674  -8.7480667  53.4014004
  57.1671804  -6.7989396  46.1200510  56.7276794  -7.2913017  46.8133367
  57.9179921  -7.3416428  45.8792585  49.6464143 -10.6077855  46.1225138
  50.4722163 -10.9074083  45.7423782  49.2958195 -11.3770232  46.5714927
  49.9584854  -8.4765240  47.8438953  49.8239322  -9.2364839  47.2776951
  49.5416916  -7.7524340  47.3767741  53.1153980  -7.5795923  48.0557395
  52.9986364  -6.6350491  47.9536085  52.2946426  -7.8822362  48.4443194
  54.1408494  -6.9267661  51.2713324  55.0435741  -6.8944051  51.5879819
  53.9145864  -7.8567210  51.2859659  55.8962096  -8.1736675  47.9323402
  54.9457727  -8.1734813  47.8187775  56.1994582  -8.9203940  47.4159437
  71.6314789  -2.3376136  48.9969165  72.2693199  -2.4569389  48.2932505
  71.5135632  -1.3895293  49.0557117  68.4404496  -2.3848708  48.9330689
  68.1023007  -2.5007644  48.0451224  69.3094264  -2.7857543  48.9131695
  64.2991311  -0.5313232  44.9227580  63.7356177  -0.6223295  44.1543868
  64.1843706  -1.3513328  45.4030073  68.9224279  -1.2313857  54.8916895
  68.9112919  -1.6261058  54.0197399  69.0844918  -1.9647784  55.4850666
  61.8455743   0.9637960  47.7611801  62.6377035   0.6228784  47.3458100
  62.0852393   1.0732935  48.6813954  69.8790870   3.1357736  40.2342045
  69.2278850   3.7211816  39.8476059  70.6735233   3.6663931  40.2937083
  63.8046497   0.2246873  40.6329180  64.5777373  -0.3224140  40.4942055
  64.1571896   1.0891122  40.8443641  65.6431540   1.5523255  53.8396079
  65.3521406   2.4568886  53.7242745  66.2788524   1.5939783  54.5540148
  66.5687747  -1.0699896  50.4297438  67.1651319  -1.2943874  49.7154401
  66.6262718  -1.8115151  51.0322886  66.1412775  -3.6160461  38.2647629
  66.3938296  -4.1378940  37.5031092  65.2037334  -3.7794316  38.3674313
  71.3566135   0.8248168  40.7711029  70.7211968   0.8982794  41.4831934
  71.0263542   1.4141767  40.0930109  65.8609064  -1.7132355  40.4672004
  65.7445322  -2.3887452  41.1353089  65.9711324  -2.1999981  39.6504157
  68.2040605  -2.2522208  44.1718694  67.8398812  -2.7791587  44.8831615
  69.0607721  -2.6423739  43.9985179  70.6021425   1.2384671  50.8345873
  70.3022148   2.1409709  50.7261680  70.2572484   0.9716854  51.6867025
  64.0533906  -2.3101532  46.8682577  63.1284403  -2.4425318  47.0760269
  64.3018320  -1.5307313  47.3652519  67.8235313  -4.7674651  40.1526709
  67.7034938  -4.3217600  40.9912189  67.1287901  -4.4189333  39.5940247
  61.4142717  -2.6668259  47.7026366  61.5435099  -2.4133780  48.6165778
  60.7340169  -2.0740551  47.3831021  65.5842205   8.0028991  43.8016840
  65.5066234   8.9536816  43.8805321  64.9803848   7.6574864  44.4591767
  68.0759434  -4.8243144  56.4578207  67.2992769  -4.2649223  56.4481072
  68.7149998  -4.3386361  56.9793077  66.3305807  -2.0157690  56.0196174
  67.0720491  -1.4772646  55.7430998  65.6242792  -1.3891401  56.1767726
  71.8061146   0.1271450  54.6168336  72.2144502  -0.3146139  53.8722968
  71.0838408  -0.4475922  54.8702528  68.1592216  -4.9355943  51.9901893
  69.0053412  -4.5116529  52.1336542  68.0990854  -5.5922319  52.6840456
  72.1289961   0.6872641  48.3720624  71.4998824   0.8518355  47.6696692
  71.7415623   1.1014250  49.1431589  76.0079193   1.6227079  45.7264988
  75.3230231   2.0025980  45.1762022  76.0923042   2.2322405  46.4596936
  73.2630125  -0.7312962  52.3260332  73.4747020  -0.0881202  51.6494713
  73.2159873  -1.5650646  51.8582262  67.6817923   0.4247049  45.6370710
  68.1456268   0.7034752  44.8475332  67.4174721  -0.4769506  45.4543800
  64.5742004  -0.0281469  48.5750473  65.1443361   0.4005799  47.9367957
  65.1650116  -0.3098885  49.2734658  66.6186809  -3.4529799  42.4460275
  67.3210852  -3.0008755  42.9134201  66.2867437  -4.0945980  43.0740168
  65.0667171  -4.8618042  56.8211484  64.4365831  -4.1801761  57.0546881
  64.9603258  -4.9734960  55.8764622  60.3612143  -5.1946246  47.7477408
  59.5711197  -4.9388717  47.2717519  60.8523390  -4.3797908  47.8529449
  74.3775953   2.1458993  50.4982689  75.1993396   1.7439180  50.2165371
  74.3738355   2.0427227  51.4498805  62.3126888  -4.8301667  44.7060885
  61.5158052  -4.7182972  45.2244381  62.0852481  -4.4915015  43.8401775
  68.1432556   1.6943036  52.6543400  68.2076988   2.1563444  53.4901571
  67.4343480   1.0640401  52.7825709  58.6449846  -4.9415756  50.1792399
  58.8957884  -4.0568746  50.4449975  59.1809394  -5.1211154  49.4067491
  67.8580574   3.3611144  42.5222380  67.7226248   4.2062680  42.9507228
  68.3990386   3.5630422  41.7588314  61.3109971   0.8786582  43.0950305
  61.8234492   1.6729832  43.2455870  61.9632684   0.1812872  43.0283906
  63.1204856   3.9952338  45.1773058  63.2971484   4.9170303  44.9894042
  63.9161689   3.6810758  45.6067438  62.4057212  -3.9583030  55.0535221
  62.2910727  -4.8597773  55.3542320  61.5501730  -3.7119333  54.7020038
  69.4849050   3.9834710  56.6522722  69.0412904   3.1971089  56.3343627
  70.1466264   4.1713861  55.9866613  64.2436171   5.5130512  51.1783401
  64.7943596   5.3847575  50.4060394  63.4047647   5.8125401  50.8278293
  71.5830288   4.2637510  54.6804123  71.5648763   5.0846391  54.1884392
  72.5050208   4.1391586  54.9054264  68.0403342   1.7781640  55.5227632
  68.5731679   1.0169928  55.2926940  67.5117423   1.4855292  56.2651786
  59.2758888  -0.7924764  43.8709876  60.1134110  -0.3827755  43.6543583
  59.4537155  -1.7325322  43.8410069  71.1723320  -3.1249683  39.5593709
  70.6569943  -2.3545078  39.7982096  70.9000628  -3.7984547  40.1826770
  76.1457594  -0.3717328  41.4946882  75.3687037  -0.7106169  41.0502044
  76.8249075  -0.3664705  40.8201847  69.4056055   0.9067632  43.0346444
  68.8777416   0.1720392  42.7219681  68.9043558   1.6842309  42.7886412
  74.3848901  -0.8983347  48.1513490  73.7272575  -0.2084086  48.2393619
  75.1889300  -0.5086915  48.4947476  73.1954360  -2.5438974  46.2017432
  73.7086241  -1.9108983  46.7039141  73.8455584  -3.1437779  45.8360792
  64.4644370  -6.4008240  39.4148940  63.6281682  -6.0633554  39.7358215
  64.3249139  -6.5359261  38.4776077  67.5508655  -1.2752157  36.0381417
  66.6435717  -1.5062904  36.2372566  68.0479687  -2.0714538  36.2255398
  70.4576734   7.4345350  38.9578103  69.7838433   7.7377047  39.5663061
  70.8442556   8.2374430  38.6083560  69.6735191  -5.0689519  48.4475772
  68.7557752  -4.8474572  48.2897460  70.0895334  -4.9943208  47.5887480
  70.4570238  -3.6698103  43.5778453  71.2042057  -3.1576706  43.2685575
  70.7261828  -3.9914050  44.4382846  68.7296889  -1.1739562  40.5605407
  67.8208108  -1.4580530  40.6577877  68.7591972  -0.7540484  39.7008714
  73.9616156   2.4367027  44.3296574  73.5078483   1.5957937  44.3861765
  73.3310123   3.0728425  44.6671355  72.4049095   4.2743524  45.2646392
  72.6972070   4.8348581  44.5458758  72.9147716   4.5672085  46.0199552
  59.2985059  -3.4534048  44.5420609  59.1009459  -4.0464688  43.8171676
  58.7431723  -3.7581838  45.2596548  67.2781783  -3.5610942  46.6615202
  67.3330392  -4.5137105  46.5857679  66.4672985  -3.4051503  47.1456501
  68.4272976   0.3669181  37.8993485  67.9892406  -0.3494960  37.4399123
  69.1683417   0.5945296  37.3378577  65.2174143  -4.9433882  44.4205581
  64.4042008  -4.6439712  44.8270773  65.7133137  -5.3378193  45.1380063
  67.3682720   5.0523875  46.3539846  67.3258899   5.2784721  45.4248378
  68.2845419   4.8187249  46.5025647  70.8148354  -4.4792058  53.2520475
  71.1697742  -4.2520585  54.1114941  71.4620485  -4.1473681  52.6297730
  76.5446091  -1.3573622  43.9569804  76.4063990  -1.1672026  43.0290993
  76.1882310  -0.5954239  44.4137855  76.5715471   0.7102905  48.9681075
  77.0051977   0.6178194  49.8164129  77.2847051   0.6860406  48.3301091
  65.4848521   1.9286904  46.1501808  66.2789120   1.4337224  45.9484383
  64.7740214   1.4004767  45.7869514  70.3043366   4.3104999  50.5014176
  70.3580388   4.8795936  51.2691892  69.4358147   4.4806884  50.1368213
  61.7931285  -3.9270014  42.2261561  60.8628873  -3.9885559  42.4431523
  61.8888757  -4.4494062  41.4298202  61.7116834  -7.4015202  44.8139803
  61.9723651  -6.4869868  44.7048963  62.5334006  -7.8690759  44.9636416
  63.1841759  -5.9877444  51.9838627  63.8564812  -6.1960082  51.3351276
  62.3571546  -6.1855358  51.5443860  77.4331020   0.7526606  51.5013961
  77.6266910   1.6572416  51.7473236  77.3331638   0.2934025  52.3352546
  72.4946129   0.9033349  57.0754841  72.3431635   0.6743900  56.1584925
  72.4850808   1.8603950  57.0886186  69.2631465  -1.5234739  52.0601108
  70.1923525  -1.3723579  51.8870075  68.8422495  -1.4350718  51.2049754
  68.0619797   2.5015926  49.8299646  67.9230883   2.1334710  50.7025584
  67.2734393   3.0163565  49.6583603  68.6567949   7.6025022  41.1725182
  68.8319705   7.1313065  41.9870805  67.9700737   8.2290788  41.4006443
  69.6125012   1.8797528  47.2188483  69.2774845   1.8398298  48.1146133
  69.1128958   1.2142244  46.7458894  63.5869256  -2.7134841  52.7441064
  63.4489054  -3.4454603  53.3452604  64.4974180  -2.8025941  52.4625252
  72.5484204  -0.7746437  37.4925543  71.9313375  -1.4999609  37.3958596
  72.0800692  -0.0137077  37.1492617  66.2151557  -3.0014882  52.2324744
  66.9251175  -3.6421690  52.1911363  66.1720865  -2.7501987  53.1550925
  74.2038336   3.9352471  55.1531323  74.1450882   3.2511691  54.4861906
  74.6057854   4.6771461  54.7011949  64.9280491  -6.0149664  54.0520384
  64.3917848  -6.4658926  54.7041980  64.3397199  -5.8803755  53.3090848
  63.2229034  10.7514385  47.9465042  63.4625633  11.3832909  48.6244061
  62.3798231  10.4002425  48.2330401  74.2055743   1.8992055  53.3845303
  73.3182522   1.5617977  53.5071702  74.7754294   1.1675086  53.6214068
  55.8584890  -1.7683853  46.7088354  56.5455930  -2.0822123  46.1209370
  55.7033019  -0.8642489  46.4355606  60.6619612  -6.8793657  51.1373378
  60.5777801  -7.4867987  50.4023788  59.8402319  -6.3884638  51.1382874
  67.7356896   6.5593507  50.3506546  67.6627068   7.3648479  50.8625851
  67.2934289   6.7585473  49.5254568  67.5246676   5.7965277  43.8609368
  66.7414198   6.3386958  43.9547592  68.2239421   6.3139257  44.2603609
  70.1955580   6.4580341  52.5064705  70.9083552   7.0927806  52.4340606
  69.7045608   6.5544207  51.6904707  71.9173107   0.3631594  44.0781997
  70.9829385   0.4833057  43.9086701  72.0949775  -0.5395939  43.8142006
  65.2467493   4.2074785  53.3270276  65.9476953   4.8411268  53.4799670
  64.7762608   4.5489516  52.5665915  73.3721889   2.5492735  41.6118183
  73.6481733   2.4349329  42.5212057  72.5026388   2.1510220  41.5730356
  70.0075953   6.7979086  45.2550996  70.1898348   5.9800742  45.7178749
  70.8308939   7.0146778  44.8175886  70.3418119   5.7247271  42.5166045
  70.8705885   5.2139725  41.9036207  70.6046338   5.4089801  43.3811578
  69.0956352  -2.4960797  57.6388863  68.4196989  -2.5966667  58.3091238
  69.9183986  -2.6521583  58.1024860  60.8435211   3.7411140  50.2601378
  61.4288648   2.9954828  50.3929283  60.6460050   4.0515097  51.1438042
  63.6973867   6.7762387  45.2763821  63.0284242   7.2608515  44.7927861
  63.5586736   7.0231608  46.1907199  55.4352866  -3.6883260  48.9805822
  55.4736966  -4.2219669  49.7742940  54.9293159  -4.2148054  48.3616799
  67.8379135   8.8106131  51.8746479  68.3897443   8.9737752  52.6395564
  68.1785329   9.4010569  51.2026504  62.2895901  -6.7695587  56.1241398
  62.9167940  -7.1518509  56.7378922  61.4323820  -6.9881385  56.4897091
  72.6890010   3.6367388  57.7295134  73.2329914   4.2497347  57.2350088
  72.1076854   4.1946967  58.2462147  59.0661444  -4.9619158  42.0559753
  59.3614885  -5.8708479  42.0026807  58.1649479  -4.9831418  41.7340755
  70.9747522   6.7588106  48.8610161  70.8498662   5.9577846  48.3521107
  71.6326614   7.2534300  48.3724131  62.5955691  -6.8863161  48.0387301
  61.8742276  -6.2727193  47.8994775  63.3848946  -6.3505396  47.9603947
  73.0382431   4.5597127  50.4889711  72.0912766   4.4402478  50.4168038
  73.3865204   3.6719625  50.5715973  60.7949285  -7.2805060  42.1799078
  60.4661991  -8.1607681  41.9974184  61.1488656  -7.3357391  43.0675467
  70.0428864   4.3549843  46.6894064  69.8953827   3.4266550  46.8701634
  70.8682358   4.3769933  46.2051139  63.9091108  -6.9932090  42.5474556
  64.2487181  -6.4646169  41.8253164  64.3563229  -6.6551684  43.3233122
  73.6462986   5.1778401  47.7758936  74.5709533   4.9721263  47.6383387
  73.4778289   4.9294803  48.6848278  64.7789600  -4.8326606  48.2596925
  64.6334181  -4.5186303  49.1521207  64.3014803  -4.2141706  47.7067824
  73.4358302   5.6964069  43.1321028  73.6095180   5.1310491  42.3794880
  73.9287193   6.4964964  42.9500518  59.2535262  -2.2921262  51.1984587
  58.7088730  -1.5161454  51.3304861  60.1314612  -1.9450458  51.0403708
  74.4233475   5.0130833  40.2317926  75.1184379   5.6337526  40.4505241
  74.7656625   4.1626185  40.5070304  60.0401284  -3.1651366  54.0914743
  59.2983020  -3.0168730  54.6779374  59.7194028  -2.9043100  53.2281493
  76.3224898   2.4630539  41.7605257  76.8476222   2.8017812  41.0354577
  76.2347250   1.5277554  41.5768391  67.9844947   6.3764613  53.8895133
  68.2932073   6.1313759  54.7617833  68.7820429   6.5811251  53.4014004
  68.0065559   8.5302522  46.1200510  67.5670549   8.0378901  46.8133367
  68.7573676   7.9875490  45.8792585  60.4857898   4.7214063  46.1225138
  61.3115917   4.4217835  45.7423782  60.1351950   3.9521685  46.5714927
  65.4539431   4.0740531  48.1922812  64.8319440   3.4111236  47.8925040
  66.1244298   4.1001663  47.5096459  58.6866503   2.6400389  47.0814072
  57.8498411   2.2122564  46.8998073  58.6590148   2.8332833  48.0184863
  76.0118804   3.0963443  57.0656455  75.2214348   3.0787581  56.5260954
  75.7752158   3.6351736  57.8205491  76.1316679  -0.0544091  54.3789183
  76.1814684  -0.2194084  55.3204706  76.0230602  -0.9216832  53.9887064
  65.0152938   2.6244455  41.6681272  65.1641058   3.3079919  41.0147945
  65.8219381   2.6049545  42.1830728  77.6334876   2.3652850  54.6231205
  77.3419684   2.7282831  55.4594666  77.0207007   1.6519859  54.4444537
  78.8330558  -0.0694270  47.1433775  79.6677449   0.3695534  47.3071335
  78.9689687  -0.5455617  46.3242021  75.8822064  -2.5114535  53.0911263
  76.3576186  -2.3186889  52.2830114  74.9587629  -2.4555349  52.8454647
  62.7705571  -1.3490368  42.6742341  62.5251613  -2.2528038  42.8722551
  62.9401485  -1.3473217  41.7321819  62.0401218  -5.6162010  40.1728503
  61.3470463  -5.5417655  39.5168539  61.7952970  -6.3801667  40.6950020
  68.5148343   5.1192585  39.1393020  67.9422310   5.7382772  38.6863492
  69.0881137   5.6691947  39.6732942  71.7345603   5.4029735  40.2701602
  72.6676276   5.3375297  40.4734477  71.6468816   6.2386002  39.8116135
  74.3633620   4.7195605  37.2305549  74.2847251   4.3855469  38.1241307
  75.1843286   5.2117373  37.2297022  68.8995142  -3.5446602  36.4809072
  69.8454246  -3.6740394  36.5497490  68.5209387  -4.2831940  36.9578500
  68.7833834   0.5071144  57.9409729  69.7036844   0.6849743  58.1349776
  68.7483417  -0.4372811  57.7889428  67.0838059  -5.6196626  36.4163957
  66.1769514  -5.9163513  36.4926671  67.3614040  -5.9166808  35.5498244
  58.0015999  -4.2990262  46.8663004  57.6818784  -5.1524954  46.5737378
  57.4549427  -4.0841684  47.6220971  61.7795907  -1.5827821  50.5832510
  61.9981917  -0.6510714  50.6020544  62.1921681  -1.9419847  51.3687314
  66.6523772  -6.0094616  59.9735259  66.5520499  -5.0600259  59.9047350
  66.4345314  -6.3376377  59.1011329  57.8704259  -0.6787351  48.8356125
  57.1767731  -1.0933398  48.3226080  58.6177250  -0.6366814  48.2389544
  66.5155042  -2.5797477  58.7900321  66.0322124  -1.7797117  58.9964210
  66.6015981  -2.5689532  57.8367765  59.7841002  -0.7469097  46.7122140
  59.7611690  -0.6481410  45.7604023  60.0941638   0.0996054  47.0339306
  62.4428380   1.3107058  50.8268755  63.3971633   1.2791000  50.7598686
  62.2440903   0.8497682  51.6418981  63.0327762  -0.1191826  53.3939552
  63.8520651   0.3752253  53.4174390  63.3064569  -1.0359858  53.3657120
  60.7978608   6.8526677  47.8438953  60.6633076   6.0927078  47.2776951
  60.3810671   7.5767577  47.3767741  71.9337571   2.0363601  36.8515528
  72.6373422   2.2413603  37.4673183  71.2100220   2.6040363  37.1164611
  72.7635382  -2.2126538  42.9717798  72.7070583  -1.7557986  42.1325430
  73.3163724  -2.9735853  42.7940641  63.9547734   7.7495994  48.0557395
  63.8380118   8.6941427  47.9536085  63.1340181   7.4469556  48.4443194
  73.8424269   2.4746130  38.9013988  74.6769873   2.0427329  38.7191463
  73.6808612   2.3028144  39.8290882  73.4970161  -1.0221757  40.2670327
  73.4418965  -1.1877485  39.3258771  72.8716216  -0.3145724  40.4232517
  58.2862676  -5.7853692  54.0931749  58.9321540  -6.2954738  54.5818975
  58.0779827  -5.0485011  54.6675175  70.8116068   1.2827155  59.5923890
  71.6807228   1.4567808  59.2310525  70.3322820   2.1021572  59.4699619
  64.9802248   8.4024256  51.2713324  65.8829495   8.4347867  51.5879819
  64.7539618   7.4724707  51.2859659  66.7355850   7.1555243  47.9323402
  65.7851481   7.1557104  47.8187775  67.0388337   6.4087977  47.4159437
  82.4708544  12.9915781  48.9969165  83.1086954  12.8722529  48.2932505
  82.3529387  13.9396625  49.0557117  79.2798250  12.9443209  48.9330689
  78.9416762  12.8284274  48.0451224  80.1488018  12.5434374  48.9131695
  75.1385066  14.7978686  44.9227580  74.5749931  14.7068623  44.1543868
  75.0237461  13.9778590  45.4030073  79.7618033  14.0978061  54.8916895
  79.7506674  13.7030859  54.0197399  79.9238673  13.3644134  55.4850666
  72.6849498  16.2929877  47.7611801  73.4770790  15.9520702  47.3458100
  72.9246148  16.4024852  48.6813954  80.7184625  18.4649653  40.2342045
  80.0672604  19.0503734  39.8476059  81.5128987  18.9955848  40.2937083
  74.6440252  15.5538791  40.6329180  75.4171128  15.0067778  40.4942055
  74.9965651  16.4183040  40.8443641  76.4825294  16.8815173  53.8396079
  76.1915160  17.7860804  53.7242745  77.1182279  16.9231700  54.5540148
  77.4081501  14.2592021  50.4297438  78.0045073  14.0348044  49.7154401
  77.4656473  13.5176767  51.0322886  76.9806530  11.7131457  38.2647629
  77.2332050  11.1912978  37.5031092  76.0431089  11.5497602  38.3674313
  82.0249812  10.7167235  46.0722373  82.8112902  10.2986658  45.7212790
  82.2888517  11.6213327  46.2404021  82.1959890  16.1540085  40.7711029
  81.5605723  16.2274712  41.4831934  81.8657296  16.7433684  40.0930109
  87.4258240  10.6542468  46.9755351  88.1583411  10.0841685  47.2093181
  86.6697595  10.2664069  47.4161857  76.7002818  13.6159563  40.4672004
  76.5839076  12.9404466  41.1353089  76.8105078  13.1291937  39.6504157
  79.0434359  13.0769710  44.1718694  78.6792566  12.5500331  44.8831615
  79.9001475  12.6868179  43.9985179  84.9483660   4.3664042  51.4349960
  84.6166985   5.2359453  51.2111175  84.3529273   4.0500326  52.1143990
  78.6839846   8.1059609  39.1680042  78.8514249   8.9739846  39.5350513
  78.4937015   8.2686891  38.2441331  81.4415179  16.5676588  50.8345873
  81.1415902  17.4701627  50.7261680  81.0966239  16.3008772  51.6867025
  74.8927661  13.0190385  46.8682577  73.9678157  12.8866599  47.0760269
  75.1412074  13.7984604  47.3652519  84.8412323   9.0859129  48.5143310
  83.9329201   9.0174537  48.2202071  84.7899919   9.5631073  49.3425135
  78.6629067  10.5617267  40.1526709  78.5428692  11.0074318  40.9912189
  77.9681655  10.9102585  39.5940247  72.2536472  12.6623659  47.7026366
  72.3828853  12.9158138  48.6165778  71.5733923  13.2551367  47.3831021
  76.4235959  23.3320909  43.8016840  76.3459989  24.2828734  43.8805321
  75.8197603  22.9866781  44.4591767  78.9153189  10.5048774  56.4578207
  78.1386523  11.0642694  56.4481072  79.5543752  10.9905557  56.9793077
  86.7073970   7.2875567  50.2921184  86.0648350   7.5808100  49.6460978
  86.2028898   7.1728487  51.0974380  84.3614133  11.0338740  40.9807043
  85.2731989  11.2666127  40.8054741  83.8523780  11.6175784  40.4182122
  77.1699561  13.3134227  56.0196174  77.9114246  13.8519271  55.7430998
  76.4636547  13.9400516  56.1767726  82.6454901  15.4563368  54.6168336
  83.0538257  15.0145778  53.8722968  81.9232162  14.8815995  54.8702528
  78.9985971  10.3935975  51.9901893  79.8447166  10.8175388  52.1336542
  78.9384609   9.7369599  52.6840456  82.9683716  16.0164559  48.3720624
  82.3392578  16.1810273  47.6696692  82.5809378  16.4306168  49.1431589
  86.8472947  16.9518996  45.7264988  86.1623986  17.3317898  45.1762022
  86.9316797  17.5614323  46.4596936  82.1485416   8.0540343  53.6483066
  81.9046348   8.8082404  53.1117342  82.4245347   8.4325691  54.4830313
  84.1023879  14.5978955  52.3260332  84.3140774  15.2410715  51.6494713
  84.0553627  13.7641272  51.8582262  81.7050108   7.2096776  49.2296904
  80.8434587   7.5078030  49.5213641  81.7312543   7.4267175  48.2977937
  78.5211677  15.7538967  45.6370710  78.9850023  16.0326670  44.8475332
  78.2568476  14.8522411  45.4543800  75.4135758  15.3010448  48.5750473
  75.9837116  15.7297717  47.9367957  76.0043870  15.0193033  49.2734658
  77.4580563  11.8762119  42.4460275  78.1604607  12.3283163  42.9134201
  77.1261192  11.2345938  43.0740168  75.9060925  10.4673876  56.8211484
  75.2759586  11.1490157  57.0546881  75.7997013  10.3556957  55.8764622
  71.2005897  10.1345672  47.7477408  70.4104951  10.3903200  47.2717519
  71.6917145  10.9494010  47.8529449  85.2169707  17.4750911  50.4982689
  86.0387151  17.0731098  50.2165371  85.2132110  17.3719145  51.4498805
  73.1520643  10.4990251  44.7060885  72.3551806  10.6108945  45.2244381
  72.9246235  10.8376903  43.8401775  78.9826310  17.0234954  52.6543400
  79.0470743  17.4855361  53.4901571  78.2737234  16.3932319  52.7825709
  69.4843600  10.3876162  50.1792399  69.7351639  11.2723172  50.4449975
  70.0203149  10.2080764  49.4067491  93.3075700  13.8189659  46.8467661
  92.5539408  13.2497057  46.6911665  93.4423241  13.7852324  47.7938295
  78.6974328  18.6903062  42.5222380  78.5620003  19.5354597  42.9507228
  79.2384141  18.8922339  41.7588314  75.1841668   4.7694642  59.1836735
  74.7908613   4.2160840  59.8584379  76.0007808   5.0805220  59.5743253
  72.1503725  16.2078500  43.0950305  72.6628246  17.0021750  43.2455870
  72.8026438  15.5104790  43.0283906  73.9598610  19.3244256  45.1773058
  74.1365239  20.2462221  44.9894042  74.7555444  19.0102675  45.6067438
  78.1009629   6.1852521  56.7756992  78.8419342   6.7859674  56.6961454
  78.3327552   5.4430158  56.2175034  73.2450967  11.3708888  55.0535221
  73.1304482  10.4694145  55.3542320  72.3895484  11.6172585  54.7020038
  80.3242804  19.3126628  56.6522722  79.8806659  18.5263007  56.3343627
  80.9860018  19.5005779  55.9866613  75.0829926  20.8422430  51.1783401
  75.6337351  20.7139493  50.4060394  74.2441402  21.1417319  50.8278293
  82.4224043  19.5929428  54.6804123  82.4042518  20.4138309  54.1884392
  83.3443963  19.4683503  54.9054264  78.8797097  17.1073558  55.5227632
  79.4125434  16.3461846  55.2926940  78.3511178  16.8147209  56.2651786
  82.0466792   2.2133624  51.0521273  81.7031061   3.1035265  50.9760384
  82.4145754   2.0235281  50.1890858  70.1152642  14.5367154  43.8709876
  70.9527864  14.9464162  43.6543583  70.2930910  13.5966596  43.8410069
  82.0117074  12.2042235  39.5593709  81.4963698  12.9746839  39.7982096
  81.7394383  11.5307371  40.1826770  79.5964185   7.0491935  44.6178947
  78.7405782   6.6598786  44.4384586  80.0091137   7.1283896  43.7578732
  81.1263332   4.5838279  49.0170507  80.6228128   4.5468414  48.2038312
  81.4193939   5.4931021  49.0767163  77.3706218   4.6677008  48.0236688
  78.2359215   4.4719817  47.6642578  77.4383727   4.4387360  48.9506045
  86.9851349  14.9574589  41.4946882  86.2080791  14.6185749  41.0502044
  87.6642829  14.9627212  40.8201847  81.8003378  10.0769327  41.3853490
  81.4953513  10.3915476  42.2363633  82.7533820  10.1550747  41.4280823
  80.2449809  16.2359550  43.0346444  79.7171171  15.5012310  42.7219681
  79.7437312  17.0134226  42.7886412  85.2242655  14.4308571  48.1513490
  84.5666330  15.1207832  48.2393619  86.0283055  14.8205002  48.4947476
  74.9768537   6.8979216  45.3953055  75.5512289   6.6754398  44.6626248
  75.5639519   6.9667911  46.1481656  84.0348114  12.7852943  46.2017432
  84.5479996  13.4182935  46.7039141  84.6849338  12.1854139  45.8360792
  75.3038124   8.9283677  39.4148940  74.4675436   9.2658364  39.7358215
  75.1642894   8.7932657  38.4776077  77.2791205   3.7720465  44.1228125
  76.6255617   3.4569482  43.4984739  77.2371679   3.1496206  44.8487948
  78.3902410  14.0539760  36.0381417  77.4829471  13.8229014  36.2372566
  78.8873442  13.2577380  36.2255398  81.2970488  22.7637268  38.9578103
  80.6232187  23.0668964  39.5663061  81.6836310  23.5666348  38.6083560
  80.5128945  10.2602399  48.4475772  79.5951506  10.4817346  48.2897460
  80.9289089  10.3348709  47.5887480  81.2963993  11.6593814  43.5778453
  82.0435812  12.1715212  43.2685575  81.5655582  11.3377867  44.4382846
  79.5690643  14.1552355  40.5605407  78.6601862  13.8711388  40.6577877
  79.5985727  14.5751434  39.7008714  84.8009910  17.7658945  44.3296574
  84.3472238  16.9249855  44.3861765  84.1703877  18.4020343  44.6671355
  83.7442830   8.6950931  45.5597242  83.0065587   8.1828317  45.8907484
  83.9969604   8.2551312  44.7480519  83.2442850  19.6035441  45.2646392
  83.5365824  20.1640498  44.5458758  83.7541470  19.8964002  46.0199552
  83.8454457   1.4727183  46.1539011  84.1513334   0.6124546  45.8664926
  84.5707062   2.0644803  45.9538005  70.1378813  11.8757869  44.5420609
  69.9403213  11.2827230  43.8171676  69.5825477  11.5710079  45.2596548
  78.1175537  11.7680976  46.6615202  78.1724147  10.8154812  46.5857679
  77.3066739  11.9240415  47.1456501  79.2666731  15.6961099  37.8993485
  78.8286161  14.9796958  37.4399123  80.0077172  15.9237214  37.3378577
  76.0567897  10.3858036  44.4205581  75.2435763  10.6852206  44.8270773
  76.5526891   9.9913724  45.1380063  78.2076475  20.3815792  46.3539846
  78.1652654  20.6076639  45.4248378  79.1239174  20.1479167  46.5025647
  81.6542109  10.8499860  53.2520475  82.0091496  11.0771333  54.1114941
  82.3014240  11.1818237  52.6297730  87.3839846  13.9718296  43.9569804
  87.2457744  14.1619892  43.0290993  87.0276064  14.7337679  44.4137855
  75.5481972   7.9576391  50.0366816  76.1881351   7.8165150  49.3389779
  74.7159502   7.6710904  49.6605418  87.4109225  16.0394823  48.9681075
  87.8445732  15.9470112  49.8164129  88.1240806  16.0152323  48.3301091
  76.3242276  17.2578821  46.1501808  77.1182874  16.7629142  45.9484383
  75.6133968  16.7296685  45.7869514  81.1437120  19.6396917  50.5014176
  81.1974142  20.2087853  51.2691892  80.2751901  19.8098802  50.1368213
  72.6325039  11.4021903  42.2261561  71.7022627  11.3406359  42.4431523
  72.7282511  10.8797856  41.4298202  72.5510588   7.9276716  44.8139803
  72.8117405   8.8422049  44.7048963  73.3727760   7.4601159  44.9636416
  74.0235514   9.3414473  51.9838627  74.6958567   9.1331835  51.3351276
  73.1965300   9.1436559  51.5443860  88.2724775  16.0818524  51.5013961
  88.4660665  16.9864334  51.7473236  88.1725393  15.6225943  52.3352546
  79.9261086   5.9676414  54.0004288  79.2789001   6.6666364  53.9068765
  80.6962101   6.4012558  54.3680536  83.3339883  16.2325266  57.0754841
  83.1825390  16.0035818  56.1584925  83.3244563  17.1895868  57.0886186
  80.1025220  13.8057179  52.0601108  81.0317280  13.9568339  51.8870075
  79.6816250  13.8941200  51.2049754  78.9013552  17.8307843  49.8299646
  78.7624637  17.4626628  50.7025584  78.1128148  18.3455483  49.6583603
  79.4961704  22.9316940  41.1725182  79.6713459  22.4604983  41.9870805
  78.8094492  23.5582706  41.4006443  80.4518767  17.2089446  47.2188483
  80.1168599  17.1690216  48.1146133  79.9522712  16.5434162  46.7458894
  74.4263011  12.6157076  52.7441064  74.2882809  11.8837315  53.3452604
  75.3367934  12.5265976  52.4625252  83.3877958  14.5545481  37.4925543
  82.7707129  13.8292309  37.3958596  82.9194447  15.3154841  37.1492617
  77.0545311  12.3277036  52.2324744  77.7644930  11.6870228  52.1911363
  77.0114620  12.5789930  53.1550925  85.0432090  19.2644389  55.1531323
  84.9844636  18.5803609  54.4861906  85.4451608  20.0063379  54.7011949
  75.7674245   9.3142253  54.0520384  75.2311602   8.8632992  54.7041980
  75.1790954   9.4488162  53.3090848  74.0622789  26.0806303  47.9465042
  74.3019387  26.7124827  48.6244061  73.2191985  25.7294343  48.2330401
  75.1776504   8.7730905  36.6146847  74.3005971   8.6519706  36.2509094
  75.6534257   7.9816983  36.3625736  85.0449497  17.2283973  53.3845303
  84.1576276  16.8909895  53.5071702  85.6148048  16.4967004  53.6214068
  66.6978644  13.5608065  46.7088354  67.3849684  13.2469795  46.1209370
  66.5426773  14.4649429  46.4355606  71.5013367   8.4498261  51.1373378
  71.4171555   7.8423931  50.4023788  70.6796073   8.9407279  51.1382874
  78.5750651  21.8885425  50.3506546  78.5020822  22.6940397  50.8625851
  78.1328044  22.0877391  49.5254568  78.3640430  21.1257195  43.8609368
  77.5807952  21.6678875  43.9547592  79.0633176  21.6431175  44.2603609
  81.6737081   6.9351825  46.5043573  82.1705780   6.1821787  46.1844643
  80.9024062   6.9716141  45.9386782  89.5266838  12.6392190  48.1461865
  89.5156714  13.5216906  47.7755798  88.6584217  12.2863741  47.9516402
  81.0349334  21.7872259  52.5064705  81.7477306  22.4219724  52.4340606
  80.5439363  21.8836125  51.6904707  82.7566861  15.6923512  44.0781997
  81.8223140  15.8124974  43.9086701  82.9343530  14.7895979  43.8142006
  78.2572049   9.0769208  46.2315258  77.8869837   8.5240248  46.9196163
  78.7531142   8.4727341  45.6790258  86.1439413  11.5340831  44.6132031
  86.6099865  12.3668823  44.5392333  86.5946913  11.0685813  45.3177289
  76.0861248  19.5366703  53.3270276  76.7870707  20.1703186  53.4799670
  75.6156363  19.8781434  52.5665915  84.2115644  17.8784652  41.6118183
  84.4875488  17.7641247  42.5212057  83.3420142  17.4802137  41.5730356
  84.1156075   3.9021418  48.6522932  83.2019155   4.1325645  48.8205139
  84.5449177   3.9859862  49.5036964  83.8862534  12.0911310  51.1522826
  83.2333984  12.3387218  50.4975279  84.2642914  11.2775448  50.8185303
  80.8469708  22.1271003  45.2550996  81.0292102  21.3092659  45.7178749
  81.6702694  22.3438696  44.8175886  81.1811873  21.0539188  42.5166045
  81.7099640  20.5431643  41.9036207  81.4440093  20.7381719  43.3811578
  79.9350107  12.8331121  57.6388863  79.2590744  12.7325250  58.3091238
  80.7577741  12.6770335  58.1024860  71.6828966  19.0703058  50.2601378
  72.2682403  18.3246746  50.3929283  71.4853804  19.3807014  51.1438042
  74.5367621  22.1054305  45.2763821  73.8677996  22.5900433  44.7927861
  74.3980491  22.3523526  46.1907199  66.2746621  11.6408658  48.9805822
  66.3130720  11.1072249  49.7742940  65.7686913  11.1143863  48.3616799
  78.6772890  24.1398049  51.8746479  79.2291198  24.3029670  52.6395564
  79.0179083  24.7302486  51.2026504  73.6537383   6.4873198  52.4768364
  73.7178709   7.3488029  52.0645762  73.5904503   5.8747200  51.7440722
  73.1289655   8.5596331  56.1241398  73.7561694   8.1773408  56.7378922
  72.2717574   8.3410533  56.4897091  83.5283764  18.9659306  57.7295134
  84.0723668  19.5789264  57.2350088  82.9470609  19.5238885  58.2462147
  69.9055198  10.3672760  42.0559753  70.2008639   9.4583438  42.0026807
  69.0043234  10.3460499  41.7340755  81.8141277  22.0880024  48.8610161
  81.6892416  21.2869764  48.3521107  82.4720368  22.5826217  48.3724131
  73.4349445   8.4428757  48.0387301  72.7136031   9.0564724  47.8994775
  74.2242701   8.9786521  47.9603947  83.8776185  19.8889044  50.4889711
  82.9306521  19.7694395  50.4168038  84.2258958  19.0011542  50.5715973
  76.2375759   5.7783183  54.3127953  76.7610161   6.0245480  55.0754263
  76.0188092   6.6103218  53.8931091  71.6343040   8.0486858  42.1799078
  71.3055746   7.1684237  41.9974184  71.9882410   7.9934526  43.0675467
  80.8822619  19.6841760  46.6894064  80.7347581  18.7558468  46.8701634
  81.7076112  19.7061851  46.2051139  74.7484863   8.3359828  42.5474556
  75.0880935   8.8645749  41.8253164  75.1956983   8.6740234  43.3233122
  84.4856740  20.5070319  47.7758936  85.4103288  20.3013180  47.6383387
  84.3172044  20.2586720  48.6848278  77.4428304   6.7196878  51.9977624
  77.1025124   5.9204691  52.3998304  76.7367310   7.0198589  51.4254457
  78.0944776   3.8046191  50.4504947  78.9170845   3.3306669  50.3283837
  78.3382839   4.5836674  50.9503633  76.7353010   6.8334449  40.7467848
  77.4561373   7.2115702  40.2431565  76.1118314   7.5523326  40.8502826
  80.8784133   7.5379598  41.6826181  81.0947747   8.4204236  41.3815009
  80.3978200   7.1465811  40.9531823  75.6183354  10.4965311  48.2596925
  75.4727935  10.8105614  49.1521207  75.1408558  11.1150212  47.7067824
  77.4779737   7.4867859  48.3077815  77.4641306   6.5908953  47.9710113
  78.1952165   7.4938523  48.9416101  79.3305868   7.9205199  50.3530942
  79.0723646   8.8422270  50.3515273  78.7990908   7.5235634  51.0431407
  84.2752057  21.0255987  43.1321028  84.4488934  20.4602409  42.3794880
  84.7680948  21.8256881  42.9500518  70.0929017  13.0370656  51.1984587
  69.5482485  13.8130464  51.3304861  70.9708366  13.3841460  51.0403708
  76.8816633   6.3682240  43.5765385  77.0032544   5.4398886  43.7756273
  76.5918676   6.3820926  42.6643701  79.7507824   4.0537150  46.7132105
  79.7729520   4.1176483  45.7584085  80.1675883   3.2141659  46.9072611
  90.1291448  13.7892410  44.7511328  90.5722594  13.0399735  44.3530451
  89.2517958  13.7802546  44.3685060  85.2627229  20.3422751  40.2317926
  85.9578134  20.9629444  40.4505241  85.6050379  19.4918102  40.5070304
  70.8795038  12.1640552  54.0914743  70.1376774  12.3123187  54.6779374
  70.5587783  12.4248818  53.2281493  87.1618652  17.7922457  41.7605257
  87.6869976  18.1309729  41.0354577  87.0741005  16.8569472  41.5768391
  78.8238701  21.7056530  53.8895133  79.1325827  21.4605677  54.7617833
  79.6214183  21.9103169  53.4014004  78.8459313  23.8594440  46.1200510
  78.4064303  23.3670819  46.8133367  79.5967430  23.3167407  45.8792585
  71.3251652  20.0505981  46.1225138  72.1509672  19.7509753  45.7423782
  70.9745704  19.2813603  46.5714927  76.2933185  19.4032449  48.1922812
  75.6713194  18.7403154  47.8925040  76.9638052  19.4293581  47.5096459
  69.5260257  17.9692307  47.0814072  68.6892165  17.5414481  46.8998073
  69.4983903  18.1624750  48.0184863  76.3657713   7.8814237  57.7855318
  76.4145868   8.7576360  57.4033087  76.9080227   7.3391630  57.2126961
  86.8512558  18.4255360  57.0656455  86.0608102  18.4079499  56.5260954
  86.6145913  18.9643654  57.8205491  86.9710433  15.2747827  54.3789183
  87.0208438  15.1097834  55.3204706  86.8624357  14.4075086  53.9887064
  75.8546692  17.9536372  41.6681272  76.0034812  18.6371837  41.0147945
  76.6613136  17.9341462  42.1830728  84.2614196  11.2578755  55.6948490
  85.1624059  11.1185219  55.4032488  84.3362170  11.4233209  56.6346667
  78.5957001   8.6345609  54.5401676  77.7260311   8.9279175  54.2684265
  78.8316482   9.2186054  55.2608940  88.4728630  17.6944768  54.6231205
  88.1813439  18.0574749  55.4594666  87.8600762  16.9811776  54.4444537
  89.6724313  15.2597648  47.1433775  90.5071204  15.6987452  47.3071335
  89.8083441  14.7836301  46.3242021  86.7215819  12.8177383  53.0911263
  87.1969940  13.0105029  52.2830114  85.7981384  12.8736569  52.8454647
  73.6099325  13.9801550  42.6742341  73.3645367  13.0763880  42.8722551
  73.7795240  13.9818700  41.7321819  81.2996035   4.8525226  52.0567097
  81.8177979   5.5886253  51.7313585  80.9451168   5.1589220  52.8913856
  72.8794973   9.7129907  40.1728503  72.1864218   9.7874262  39.5168539
  72.6346725   8.9490251  40.6950020  81.5508629   1.2725509  47.5767993
  81.8310383   0.6048698  48.2028420  82.3359236   1.4654604  47.0642657
  79.3542098  20.4484503  39.1393020  78.7816065  21.0674690  38.6863492
  79.9274891  20.9983864  39.6732942  85.4217487   9.6943143  51.3239568
  86.3734910   9.7941240  51.3451792  85.2520938   8.9021411  51.8337653
  83.4431867   6.7798726  51.5098969  82.8481799   7.0603739  50.8145458
  83.1581564   7.2692627  52.2815710  82.5739357  20.7321653  40.2701602
  83.5070031  20.6667214  40.4734477  82.4862570  21.5677920  39.8116135
  85.2027374  20.0487523  37.2305549  85.1241006  19.7147387  38.1241307
  86.0237041  20.5409291  37.2297022  87.9005565  12.9149262  50.4381868
  87.8681885  11.9765263  50.6241552  88.5106189  12.9933299  49.7047693
  79.7388896  11.7845315  36.4809072  80.6848001  11.6551524  36.5497490
  79.3603141  11.0459977  36.9578500  88.0500054   9.7060306  50.4840151
  87.5339102   8.9218763  50.2970080  88.9340002   9.3779023  50.6486671
  85.7110781   3.4501321  46.4435964  85.5135602   3.1416410  47.3279296
  86.3210486   4.1762960  46.5733894  93.7182115  13.9765269  49.5787905
  94.4485504  13.7150557  50.1395608  93.1089061  13.2393991  49.6189973
  91.7997412  12.1173132  50.1762356  91.0730576  11.9829097  49.5678848
  91.3844699  12.4249961  50.9819074  79.6227589  15.8363062  57.9409729
  80.5430598  16.0141661  58.1349776  79.5877172  14.8919107  57.7889428
  77.9231813   9.7095292  36.4163957  77.0163269   9.4128405  36.4926671
  78.2007794   9.4125110  35.5498244  68.8409754  11.0301655  46.8663004
  68.5212538  10.1766963  46.5737378  68.2943182  11.2450233  47.6220971
  72.6189661  13.7464096  50.5832510  72.8375671  14.6781204  50.6020544
  73.0315435  13.3872071  51.3687314  79.5393879   4.2532182  42.5708199
  78.7294607   3.9079267  42.9463445  80.2278296   3.9439725  43.1595810
  81.4684427   3.3310228  44.1932495  82.0215466   3.7505682  44.8522518
  81.7054514   2.4045976  44.2355451  77.4917527   9.3197302  59.9735259
  77.3914253  10.2691659  59.9047350  77.2739069   8.9915541  59.1011329
  76.6930598   6.5682227  36.5575937  77.5549762   6.8937125  36.8171754
  76.8780942   5.7813723  36.0449002  68.7098014  14.6504567  48.8356125
  68.0161485  14.2358520  48.3226080  69.4571005  14.6925103  48.2389544
  84.8463234   5.4410754  43.7011160  84.2661903   6.0995558  43.3189212
  84.5799167   4.6188098  43.2898577  83.2966801   4.8415811  45.9032480
  83.7966579   4.9532346  45.0946799  83.9402409   4.5376864  46.5433288
  77.3548797  12.7494441  58.7900321  76.8715878  13.5494801  58.9964210
  77.4409736  12.7602386  57.8367765  70.6234756  14.5822821  46.7122140
  70.6005444  14.6810508  45.7604023  70.9335393  15.4287971  47.0339306
  73.2822134  16.6398976  50.8268755  74.2365388  16.6082918  50.7598686
  73.0834658  16.1789599  51.6418981  73.8721516  15.2100092  53.3939552
  74.6914405  15.7044170  53.4174390  74.1458324  14.2932060  53.3657120
  83.6288112   7.6010844  42.7567508  82.7413967   7.8860495  42.5387703
  84.0442101   7.4404607  41.9094785  86.9802649   7.6257365  46.4721847
  87.7563039   8.1153817  46.7446464  86.2550783   8.0515419  46.9293717
  89.4175207   8.3384984  47.5295788  90.0119698   8.0980720  46.8189096
  89.4901791   7.6192115  48.1569324  71.6372363  22.1818595  47.8438953
  71.5026831  21.4218996  47.2776951  71.2204425  22.9059495  47.3767741
  82.7731326  17.3655519  36.8515528  83.4767176  17.5705521  37.4673183
  82.0493975  17.9332280  37.1164611  83.6029136  13.1165380  42.9717798
  83.5464338  13.5733931  42.1325430  84.1557479  12.3556064  42.7940641
  87.4133942   8.9055112  43.7967917  87.1570876   8.5051747  44.6276125
  86.7886810   9.6198906  43.6718057  91.7246280  11.6451185  46.3039209
  91.1645838  11.7144374  47.0770771  91.1189783  11.4692170  45.5838705
  74.7941489  23.0787912  48.0557395  74.6773873  24.0233345  47.9536085
  73.9733935  22.7761474  48.4443194  84.6818023  17.8038048  38.9013988
  85.5163627  17.3719246  38.7191463  84.5202366  17.6320061  39.8290882
  84.3363915  14.3070161  40.2670327  84.2812719  14.1414433  39.3258771
  83.7109971  15.0146194  40.4232517  69.1256430   9.5438225  54.0931749
  69.7715294   9.0337179  54.5818975  68.9173582  10.2806907  54.6675175
  81.6509823  16.6119073  59.5923890  82.5200982  16.7859725  59.2310525
  81.1716574  17.4313490  59.4699619  77.6460041   3.8078270  39.8455646
  77.6338711   4.7520110  40.0023916  78.5383463   3.6248415  39.5515107
  75.8196003  23.7316174  51.2713324  76.7223250  23.7639784  51.5879819
  75.5933373  22.8016625  51.2859659  77.5749605  22.4847160  47.9323402
  76.6245236  22.4849022  47.8187775  77.8782091  21.7379895  47.4159437
  81.4612160   0.4021047  44.1001582  80.6944556  -0.1520467  44.2458265
  81.8722865   0.4742915  44.9615734  73.4653921   6.6905843  58.1906764
  74.3285383   6.3342647  58.4010088  72.8919332   6.3519737  58.8782168
  93.3102298  28.3207699  48.9969165  93.9480708  28.2014446  48.2932505
  93.1923141  29.2688543  49.0557117  90.1192005  28.2735127  48.9330689
  89.7810516  28.1576192  48.0451224  90.9881773  27.8726292  48.9131695
  85.9778820  30.1270603  44.9227580  85.4143685  30.0360540  44.1543868
  85.8631215  29.3070508  45.4030073  90.6011788  29.4269979  54.8916895
  90.5900428  29.0322777  54.0197399  90.7632427  28.6936051  55.4850666
  83.5243252  31.6221795  47.7611801  84.3164544  31.2812620  47.3458100
  83.7639902  31.7316770  48.6813954  91.5578379  33.7941571  40.2342045
  90.9066359  34.3795652  39.8476059  92.3522742  34.3247766  40.2937083
  85.4834006  30.8830708  40.6329180  86.2564882  30.3359695  40.4942055
  85.8359405  31.7474958  40.8443641  87.3219049  32.2107091  53.8396079
  87.0308915  33.1152721  53.7242745  87.9576033  32.2523618  54.5540148
  88.2475256  29.5883939  50.4297438  88.8438828  29.3639961  49.7154401
  88.3050227  28.8468685  51.0322886  87.8200284  27.0423374  38.2647629
  88.0725805  26.5204896  37.5031092  86.8824843  26.8789520  38.3674313
  92.8643567  26.0459153  46.0722373  93.6506656  25.6278576  45.7212790
  93.1282271  26.9505245  46.2404021  93.0353644  31.4832003  40.7711029
  92.3999477  31.5566630  41.4831934  92.7051051  32.0725602  40.0930109
  98.2651994  25.9834386  46.9755351  98.9977166  25.4133603  47.2093181
  97.5091350  25.5955986  47.4161857  87.5396573  28.9451480  40.4672004
  87.4232831  28.2696384  41.1353089  87.6498833  28.4583854  39.6504157
  89.8828114  28.4061627  44.1718694  89.5186321  27.8792248  44.8831615
  90.7395230  28.0160096  43.9985179  95.7877414  19.6955960  51.4349960
  95.4560739  20.5651371  51.2111175  95.1923028  19.3792244  52.1143990
  89.5233601  23.4351527  39.1680042  89.6908003  24.3031764  39.5350513
  89.3330770  23.5978809  38.2441331  92.2808934  31.8968506  50.8345873
  91.9809657  32.7993545  50.7261680  91.9359993  31.6300689  51.6867025
  85.7321415  28.3482303  46.8682577  84.8071912  28.2158517  47.0760269
  85.9805829  29.1276522  47.3652519  95.6806078  24.4151046  48.5143310
  94.7722955  24.3466455  48.2202071  95.6293673  24.8922991  49.3425135
  89.5022822  25.8909185  40.1526709  89.3822447  26.3366235  40.9912189
  88.8075410  26.2394502  39.5940247  83.0930226  27.9915576  47.7026366
  83.2222608  28.2450055  48.6165778  82.4127678  28.5843284  47.3831021
  87.2629714  38.6612826  43.8016840  87.1853743  39.6120651  43.8805321
  86.6591357  38.3158699  44.4591767  89.7546943  25.8340692  56.4578207
  88.9780278  26.3934612  56.4481072  90.3937507  26.3197475  56.9793077
  97.5467724  22.6167485  50.2921184  96.9042104  22.9100018  49.6460978
  97.0422653  22.5020405  51.0974380  95.2007888  26.3630658  40.9807043
  96.1125744  26.5958045  40.8054741  94.6917535  26.9467702  40.4182122
  88.0093316  28.6426145  56.0196174  88.7508000  29.1811189  55.7430998
  87.3030301  29.2692434  56.1767726  93.4848655  30.7855286  54.6168336
  93.8932011  30.3437696  53.8722968  92.7625917  30.2107913  54.8702528
  89.8379725  25.7227892  51.9901893  90.6840921  26.1467306  52.1336542
  89.7778363  25.0661517  52.6840456  93.8077470  31.3456476  48.3720624
  93.1786332  31.5102190  47.6696692  93.4203132  31.7598086  49.1431589
  97.6866702  32.2810914  45.7264988  97.0017740  32.6609815  45.1762022
  97.7710551  32.8906241  46.4596936  92.9879171  23.3832261  53.6483066
  92.7440103  24.1374321  53.1117342  93.2639101  23.7617608  54.4830313
  94.9417634  29.9270873  52.3260332  95.1534529  30.5702633  51.6494713
  94.8947382  29.0933190  51.8582262  92.5443863  22.5388694  49.2296904
  91.6828342  22.8369947  49.5213641  92.5706297  22.7559093  48.2977937
  89.3605432  31.0830884  45.6370710  89.8243777  31.3618587  44.8475332
  89.0962230  30.1814329  45.4543800  86.2529513  30.6302366  48.5750473
  86.8230870  31.0589634  47.9367957  86.8437625  30.3484951  49.2734658
  88.2974318  27.2054037  42.4460275  88.9998361  27.6575080  42.9134201
  87.9654946  26.5637856  43.0740168  86.7454680  25.7965793  56.8211484
  86.1153340  26.4782074  57.0546881  86.6390767  25.6848875  55.8764622
  82.0399652  25.4637589  47.7477408  81.2498706  25.7195118  47.2717519
  82.5310899  26.2785927  47.8529449  96.0563461  32.8042829  50.4982689
  96.8780905  32.4023016  50.2165371  96.0525864  32.7011063  51.4498805
  83.9914397  25.8282169  44.7060885  83.1945561  25.9400863  45.2244381
  83.7639990  26.1668821  43.8401775  89.8220065  32.3526872  52.6543400
  89.8864497  32.8147279  53.4901571  89.1130989  31.7224237  52.7825709
  80.3237355  25.7168080  50.1792399  80.5745393  26.6015090  50.4449975
  80.8596903  25.5372681  49.4067491 104.1469455  29.1481577  46.8467661
 103.3933163  28.5788975  46.6911665 104.2816996  29.1144242  47.7938295
  89.5368083  34.0194979  42.5222380  89.4013757  34.8646515  42.9507228
  90.0777895  34.2214257  41.7588314  86.0235422  20.0986559  59.1836735
  85.6302368  19.5452758  59.8584379  86.8401563  20.4097138  59.5743253
  82.9897480  31.5370417  43.0950305  83.5022001  32.3313668  43.2455870
  83.6420193  30.8396708  43.0283906  84.7992365  34.6536174  45.1773058
  84.9758993  35.5754138  44.9894042  85.5949198  34.3394593  45.6067438
  88.9403383  21.5144438  56.7756992  89.6813097  22.1151591  56.6961454
  89.1721306  20.7722076  56.2175034  84.0844721  26.7000806  55.0535221
  83.9698236  25.7986063  55.3542320  83.2289239  26.9464502  54.7020038
  91.1636559  34.6418546  56.6522722  90.7200413  33.8554924  56.3343627
  91.8253773  34.8297696  55.9866613  85.9223680  36.1714347  51.1783401
  86.4731105  36.0431411  50.4060394  85.0835156  36.4709236  50.8278293
  93.2617797  34.9221346  54.6804123  93.2436272  35.7430227  54.1884392
  94.1837717  34.7975421  54.9054264  89.7190851  32.4365475  55.5227632
  90.2519188  31.6753763  55.2926940  89.1904932  32.1439127  56.2651786
  92.8860546  17.5425541  51.0521273  92.5424816  18.4327183  50.9760384
  93.2539509  17.3527199  50.1890858  80.9546397  29.8659072  43.8709876
  81.7921619  30.2756080  43.6543583  81.1324664  28.9258514  43.8410069
  92.8510829  27.5334152  39.5593709  92.3357452  28.3038757  39.7982096
  92.5788137  26.8599288  40.1826770  90.4357940  22.3783853  44.6178947
  89.5799536  21.9890703  44.4384586  90.8484892  22.4575814  43.7578732
  91.9657087  19.9130196  49.0170507  91.4621882  19.8760332  48.2038312
  92.2587693  20.8222939  49.0767163  88.2099972  19.9968926  48.0236688
  89.0752969  19.8011735  47.6642578  88.2777481  19.7679278  48.9506045
  97.8245103  30.2866507  41.4946882  97.0474546  29.9477666  41.0502044
  98.5036584  30.2919130  40.8201847  92.6397132  25.4061244  41.3853490
  92.3347268  25.7207394  42.2363633  93.5927574  25.4842664  41.4280823
  91.0843564  31.5651468  43.0346444  90.5564925  30.8304227  42.7219681
  90.5831067  32.3426144  42.7886412  96.0636410  29.7600488  48.1513490
  95.4060084  30.4499750  48.2393619  96.8676809  30.1496920  48.4947476
  85.8162292  22.2271134  45.3953055  86.3906043  22.0046316  44.6626248
  86.4033274  22.2959829  46.1481656  94.8741869  28.1144861  46.2017432
  95.3873750  28.7474853  46.7039141  95.5243093  27.5146056  45.8360792
  86.1431879  24.2575595  39.4148940  85.3069191  24.5950282  39.7358215
  86.0036648  24.1224575  38.4776077  88.1184959  19.1012383  44.1228125
  87.4649372  18.7861400  43.4984739  88.0765433  18.4788123  44.8487948
  89.2296164  29.3831678  36.0381417  88.3223226  29.1520931  36.2372566
  89.7267196  28.5869297  36.2255398  92.1364243  38.0929185  38.9578103
  91.4625942  38.3960882  39.5663061  92.5230065  38.8958266  38.6083560
  91.3522700  25.5894316  48.4475772  90.4345261  25.8109263  48.2897460
  91.7682843  25.6640627  47.5887480  92.1357747  26.9885732  43.5778453
  92.8829566  27.5007129  43.2685575  92.4049337  26.6669785  44.4382846
  90.4084398  29.4844273  40.5605407  89.4995617  29.2003306  40.6577877
  90.4379481  29.9043351  39.7008714  95.6403665  33.0950862  44.3296574
  95.1865992  32.2541772  44.3861765  95.0097632  33.7312261  44.6671355
  94.5836584  24.0242848  45.5597242  93.8459341  23.5120235  45.8907484
  94.8363358  23.5843230  44.7480519  94.0836604  34.9327359  45.2646392
  94.3759579  35.4932416  44.5458758  94.5935225  35.2255920  46.0199552
  94.6848212  16.8019100  46.1539011  94.9907089  15.9416464  45.8664926
  95.4100817  17.3936721  45.9538005  80.9772568  27.2049787  44.5420609
  80.7796968  26.6119148  43.8171676  80.4219232  26.9001997  45.2596548
  88.9569292  27.0972893  46.6615202  89.0117901  26.1446730  46.5857679
  88.1460494  27.2532333  47.1456501  90.1060485  31.0253017  37.8993485
  89.6679915  30.3088875  37.4399123  90.8470926  31.2529131  37.3378577
  86.8961651  25.7149953  44.4205581  86.0829517  26.0144124  44.8270773
  87.3920646  25.3205642  45.1380063  89.0470229  35.7107710  46.3539846
  89.0046408  35.9368556  45.4248378  89.9632928  35.4771085  46.5025647
  92.4935863  26.1791778  53.2520475  92.8485251  26.4063251  54.1114941
  93.1407994  26.5110154  52.6297730  98.2233600  29.3010214  43.9569804
  98.0851499  29.4911810  43.0290993  97.8669819  30.0629596  44.4137855
  86.3875726  23.2868309  50.0366816  87.0275106  23.1457068  49.3389779
  85.5553257  23.0002822  49.6605418  98.2502980  31.3686741  48.9681075
  98.6839486  31.2762030  49.8164129  98.9634560  31.3444241  48.3301091
  87.1636030  32.5870739  46.1501808  87.9576629  32.0921059  45.9484383
  86.4527723  32.0588602  45.7869514  91.9830875  34.9688835  50.5014176
  92.0367897  35.5379771  51.2691892  91.1145656  35.1390720  50.1368213
  83.4718794  26.7313821  42.2261561  82.5416382  26.6698276  42.4431523
  83.5676266  26.2089774  41.4298202  83.3904343  23.2568634  44.8139803
  83.6511160  24.1713967  44.7048963  84.2121515  22.7893076  44.9636416
  84.8629268  24.6706391  51.9838627  85.5352321  24.4623753  51.3351276
  84.0359055  24.4728477  51.5443860  99.1118529  31.4110441  51.5013961
  99.3054419  32.3156252  51.7473236  99.0119147  30.9517860  52.3352546
  90.7654840  21.2968332  54.0004288  90.1182755  21.9958281  53.9068765
  91.5355855  21.7304476  54.3680536  94.1733638  31.5617184  57.0754841
  94.0219144  31.3327736  56.1584925  94.1638317  32.5187785  57.0886186
  90.9418974  29.1349097  52.0601108  91.8711034  29.2860256  51.8870075
  90.5210004  29.2233118  51.2049754  89.7407306  33.1599761  49.8299646
  89.6018392  32.7918546  50.7025584  88.9521902  33.6747401  49.6583603
  90.3355458  38.2608858  41.1725182  90.5107214  37.7896901  41.9870805
  89.6488246  38.8874624  41.4006443  91.2912521  32.5381364  47.2188483
  90.9562354  32.4982134  48.1146133  90.7916467  31.8726080  46.7458894
  85.2656765  27.9448994  52.7441064  85.1276563  27.2129233  53.3452604
  86.1761689  27.8557894  52.4625252  94.2271713  29.8837398  37.4925543
  93.6100884  29.1584226  37.3958596  93.7588201  30.6446758  37.1492617
  87.8939066  27.6568953  52.2324744  88.6038684  27.0162145  52.1911363
  87.8508374  27.9081848  53.1550925  95.8825845  34.5936307  55.1531323
  95.8238391  33.9095527  54.4861906  96.2845363  35.3355297  54.7011949
  86.6068000  24.6434171  54.0520384  86.0705357  24.1924910  54.7041980
  86.0184708  24.7780080  53.3090848  84.9016543  41.4098220  47.9465042
  85.1413142  42.0416745  48.6244061  84.0585740  41.0586260  48.2330401
  86.0170259  24.1022822  36.6146847  85.1399725  23.9811623  36.2509094
  86.4928012  23.3108901  36.3625736  95.8843252  32.5575890  53.3845303
  94.9970031  32.2201812  53.5071702  96.4541803  31.8258922  53.6214068
  77.5372399  28.8899982  46.7088354  78.2243439  28.5761712  46.1209370
  77.3820528  29.7941347  46.4355606  82.3407121  23.7790179  51.1373378
  82.2565310  23.1715848  50.4023788  81.5189828  24.2699197  51.1382874
  89.4144405  37.2177343  50.3506546  89.3414577  38.0232314  50.8625851
  88.9721798  37.4169309  49.5254568  89.2034185  36.4549113  43.8609368
  88.4201707  36.9970793  43.9547592  89.9026930  36.9723092  44.2603609
  92.5130835  22.2643742  46.5043573  93.0099535  21.5113705  46.1844643
  91.7417816  22.3008059  45.9386782 100.3660592  27.9684108  48.1461865
 100.3550469  28.8508823  47.7755798  99.4977972  27.6155659  47.9516402
  91.8743089  37.1164177  52.5064705  92.5871061  37.7511642  52.4340606
  91.3833117  37.2128043  51.6904707  93.5960616  31.0215430  44.0781997
  92.6616894  31.1416892  43.9086701  93.7737284  30.1187896  43.8142006
  89.0965804  24.4061125  46.2315258  88.7263591  23.8532166  46.9196163
  89.5924896  23.8019259  45.6790258  96.9833167  26.8632749  44.6132031
  97.4493619  27.6960740  44.5392333  97.4340668  26.3977730  45.3177289
  86.9255002  34.8658620  53.3270276  87.6264462  35.4995103  53.4799670
  86.4550117  35.2073352  52.5665915  95.0509398  33.2076570  41.6118183
  95.3269242  33.0933165  42.5212057  94.1813897  32.8094055  41.5730356
  94.9549830  19.2313336  48.6522932  94.0412910  19.4617563  48.8205139
  95.3842931  19.3151780  49.5036964  94.7256288  27.4203228  51.1522826
  94.0727739  27.6679135  50.4975279  95.1036668  26.6067366  50.8185303
  91.6863462  37.4562921  45.2550996  91.8685857  36.6384577  45.7178749
  92.5096448  37.6730613  44.8175886  92.0205628  36.3831106  42.5166045
  92.5493394  35.8723561  41.9036207  92.2833847  36.0673636  43.3811578
  90.7743861  28.1623039  57.6388863  90.0984498  28.0617168  58.3091238
  91.5971495  28.0062253  58.1024860  82.5222720  34.3994975  50.2601378
  83.1076157  33.6538663  50.3929283  82.3247559  34.7098932  51.1438042
  85.3761376  37.4346223  45.2763821  84.7071751  37.9192350  44.7927861
  85.2374245  37.6815443  46.1907199  77.1140375  26.9700576  48.9805822
  77.1524475  26.4364166  49.7742940  76.6080668  26.4435781  48.3616799
  89.5166644  39.4689966  51.8746479  90.0684952  39.6321588  52.6395564
  89.8572838  40.0594404  51.2026504  84.4931137  21.8165116  52.4768364
  84.5572464  22.6779947  52.0645762  84.4298258  21.2039118  51.7440722
  83.9683410  23.8888249  56.1241398  84.5955449  23.5065326  56.7378922
  83.1111329  23.6702451  56.4897091  94.3677519  34.2951224  57.7295134
  94.9117422  34.9081182  57.2350088  93.7864363  34.8530802  58.2462147
  80.7448953  25.6964678  42.0559753  81.0402394  24.7875356  42.0026807
  79.8436988  25.6752417  41.7340755  92.6535031  37.4171942  48.8610161
  92.5286171  36.6161682  48.3521107  93.3114123  37.9118135  48.3724131
  84.2743200  23.7720674  48.0387301  83.5529785  24.3856642  47.8994775
  85.0636455  24.3078439  47.9603947  94.7169940  35.2180962  50.4889711
  93.7700275  35.0986313  50.4168038  95.0652713  34.3303460  50.5715973
  87.0769513  21.1075101  54.3127953  87.6003915  21.3537397  55.0754263
  86.8581846  21.9395136  53.8931091  82.4736794  23.3778775  42.1799078
  82.1449500  22.4976154  41.9974184  82.8276165  23.3226444  43.0675467
  91.7216373  35.0133678  46.6894064  91.5741336  34.0850386  46.8701634
  92.5469867  35.0353769  46.2051139  85.5878617  23.6651745  42.5474556
  85.9274690  24.1937666  41.8253164  86.0350738  24.0032151  43.3233122
  95.3250495  35.8362237  47.7758936  96.2497042  35.6305098  47.6383387
  95.1565798  35.5878638  48.6848278  88.2822058  22.0488796  51.9977624
  87.9418879  21.2496609  52.3998304  87.5761065  22.3490507  51.4254457
  88.9338530  19.1338108  50.4504947  89.7564599  18.6598587  50.3283837
  89.1776594  19.9128592  50.9503633  87.5746765  22.1626367  40.7467848
  88.2955127  22.5407620  40.2431565  86.9512069  22.8815244  40.8502826
  91.7177887  22.8671516  41.6826181  91.9341502  23.7496154  41.3815009
  91.2371955  22.4757729  40.9531823  86.4577109  25.8257229  48.2596925
  86.3121690  26.1397532  49.1521207  85.9802312  26.4442129  47.7067824
  88.3173492  22.8159777  48.3077815  88.3035060  21.9200870  47.9710113
  89.0345920  22.8230441  48.9416101  90.1699622  23.2497117  50.3530942
  89.9117400  24.1714188  50.3515273  89.6384663  22.8527552  51.0431407
  95.1145811  36.3547904  43.1321028  95.2882689  35.7894327  42.3794880
  95.6074702  37.1548799  42.9500518  80.9322771  28.3662573  51.1984587
  80.3876239  29.1422381  51.3304861  81.8102121  28.7133378  51.0403708
  87.7210388  21.6974157  43.5765385  87.8426299  20.7690803  43.7756273
  87.4312430  21.7112843  42.6643701  90.5901578  19.3829068  46.7132105
  90.6123275  19.4468401  45.7584085  91.0069637  18.5433576  46.9072611
 100.9685202  29.1184327  44.7511328 101.4116348  28.3691652  44.3530451
 100.0911713  29.1094464  44.3685060  96.1020984  35.6714669  40.2317926
  96.7971888  36.2921361  40.4505241  96.4444134  34.8210020  40.5070304
  81.7188793  27.4932470  54.0914743  80.9770529  27.6415105  54.6779374
  81.3981537  27.7540735  53.2281493  98.0012407  33.1214374  41.7605257
  98.5263731  33.4601647  41.0354577  97.9134759  32.1861390  41.5768391
  89.6632455  37.0348448  53.8895133  89.9719582  36.7897595  54.7617833
  90.4607938  37.2395086  53.4014004  89.6853068  39.1886357  46.1200510
  89.2458058  38.6962736  46.8133367  90.4361185  38.6459325  45.8792585
  82.1645407  35.3797898  46.1225138  82.9903426  35.0801670  45.7423782
  81.8139459  34.6105521  46.5714927  87.1326940  34.7324367  48.1922812
  86.5106949  34.0695072  47.8925040  87.8031807  34.7585498  47.5096459
  80.3654012  33.2984225  47.0814072  79.5285920  32.8706399  46.8998073
  80.3377657  33.4916668  48.0184863  87.2051467  23.2106155  57.7855318
  87.2539623  24.0868277  57.4033087  87.7473981  22.6683548  57.2126961
  97.6906313  33.7547278  57.0656455  96.9001857  33.7371417  56.5260954
  97.4539667  34.2935572  57.8205491  97.8104188  30.6039744  54.3789183
  97.8602193  30.4389752  55.3204706  97.7018111  29.7367003  53.9887064
  86.6940447  33.2828290  41.6681272  86.8428567  33.9663754  41.0147945
  87.5006890  33.2633380  42.1830728  95.1007950  26.5870672  55.6948490
  96.0017813  26.4477137  55.4032488  95.1755925  26.7525127  56.6346667
  89.4350756  23.9637527  54.5401676  88.5654065  24.2571093  54.2684265
  89.6710236  24.5477972  55.2608940  99.3122385  33.0236686  54.6231205
  99.0207193  33.3866666  55.4594666  98.6994516  32.3103694  54.4444537
 100.5118067  30.5889566  47.1433775 101.3464958  31.0279370  47.3071335
 100.6477196  30.1128219  46.3242021  97.5609573  28.1469300  53.0911263
  98.0363695  28.3396947  52.2830114  96.6375138  28.2028486  52.8454647
  84.4493080  29.3093468  42.6742341  84.2039122  28.4055798  42.8722551
  84.6188994  29.3110618  41.7321819  92.1389789  20.1817144  52.0567097
  92.6571733  20.9178171  51.7313585  91.7844922  20.4881137  52.8913856
  83.7188727  25.0421825  40.1728503  83.0257972  25.1166180  39.5168539
  83.4740479  24.2782169  40.6950020  92.3902384  16.6017426  47.5767993
  92.6704137  15.9340616  48.2028420  93.1752991  16.7946522  47.0642657
  90.1935852  35.7776420  39.1393020  89.6209819  36.3966608  38.6863492
  90.7668646  36.3275782  39.6732942  96.2611242  25.0235060  51.3239568
  97.2128665  25.1233158  51.3451792  96.0914692  24.2313329  51.8337653
  94.2825621  22.1090644  51.5098969  93.6875554  22.3895656  50.8145458
  93.9975318  22.5984545  52.2815710  93.4133112  36.0613571  40.2701602
  94.3463785  35.9959132  40.4734477  93.3256325  36.8969837  39.8116135
  96.0421129  35.3779441  37.2305549  95.9634760  35.0439304  38.1241307
  96.8630795  35.8701209  37.2297022  98.7399320  28.2441180  50.4381868
  98.7075640  27.3057181  50.6241552  99.3499943  28.3225217  49.7047693
  90.5782651  27.1137233  36.4809072  91.5241755  26.9843441  36.5497490
  90.1996896  26.3751895  36.9578500  98.8893808  25.0352224  50.4840151
  98.3732857  24.2510680  50.2970080  99.7733757  24.7070940  50.6486671
  96.5504535  18.7793239  46.4435964  96.3529356  18.4708327  47.3279296
  97.1604241  19.5054878  46.5733894 104.5575870  29.3057187  49.5787905
 105.2879258  29.0442475  50.1395608 103.9482815  28.5685909  49.6189973
 102.6391167  27.4465050  50.1762356 101.9124330  27.3121015  49.5678848
 102.2238454  27.7541878  50.9819074  90.4621343  31.1654979  57.9409729
  91.3824353  31.3433578  58.1349776  90.4270926  30.2211025  57.7889428
  88.7625568  25.0387210  36.4163957  87.8557023  24.7420322  36.4926671
  89.0401549  24.7417028  35.5498244  79.6803508  26.3593573  46.8663004
  79.3606293  25.5058881  46.5737378  79.1336936  26.5742151  47.6220971
  83.4583416  29.0756014  50.5832510  83.6769425  30.0073122  50.6020544
  83.8709190  28.7163988  51.3687314  90.3787634  19.5824099  42.5708199
  89.5688362  19.2371184  42.9463445  91.0672050  19.2731643  43.1595810
  92.3078182  18.6602146  44.1932495  92.8609220  19.0797599  44.8522518
  92.5448268  17.7337894  44.2355451  88.3311281  24.6489220  59.9735259
  88.2308008  25.5983577  59.9047350  88.1132823  24.3207459  59.1011329
  87.5324352  21.8974145  36.5575937  88.3943516  22.2229043  36.8171754
  87.7174697  21.1105641  36.0449002  79.5491768  29.9796484  48.8356125
  78.8555240  29.5650437  48.3226080  80.2964759  30.0217021  48.2389544
  95.6856989  20.7702671  43.7011160  95.1055658  21.4287475  43.3189212
  95.4192922  19.9480016  43.2898577  94.1360555  20.1707729  45.9032480
  94.6360334  20.2824263  45.0946799  94.7796163  19.8668782  46.5433288
  88.1942551  28.0786359  58.7900321  87.7109633  28.8786719  58.9964210
  88.2803490  28.0894303  57.8367765  81.4628511  29.9114738  46.7122140
  81.4399199  30.0102425  45.7604023  81.7729147  30.7579889  47.0339306
  84.1215889  31.9690893  50.8268755  85.0759142  31.9374836  50.7598686
  83.9228412  31.5081517  51.6418981  84.7115271  30.5392009  53.3939552
  85.5308160  31.0336088  53.4174390  84.9852078  29.6223977  53.3657120
  94.4681867  22.9302762  42.7567508  93.5807722  23.2152412  42.5387703
  94.8835856  22.7696525  41.9094785  97.8196403  22.9549283  46.4721847
  98.5956793  23.4445735  46.7446464  97.0944537  23.3807337  46.9293717
 100.2568962  23.6676902  47.5295788 100.8513452  23.4272638  46.8189096
 100.3295545  22.9484032  48.1569324  82.4766117  37.5110513  47.8438953
  82.3420585  36.7510914  47.2776951  82.0598180  38.2351413  47.3767741
  93.6125080  32.6947436  36.8515528  94.3160930  32.8997439  37.4673183
  92.8887729  33.2624198  37.1164611  94.4422891  28.4457298  42.9717798
  94.3858092  28.9025849  42.1325430  94.9951233  27.6847982  42.7940641
  98.2527697  24.2347029  43.7967917  97.9964631  23.8343665  44.6276125
  97.6280565  24.9490823  43.6718057 102.5640034  26.9743103  46.3039209
 102.0039592  27.0436292  47.0770771 101.9583538  26.7984087  45.5838705
  85.6335243  38.4079830  48.0557395  85.5167627  39.3525262  47.9536085
  84.8127690  38.1053391  48.4443194  95.5211778  33.1329965  38.9013988
  96.3557382  32.7011164  38.7191463  95.3596121  32.9611979  39.8290882
  95.1757670  29.6362079  40.2670327  95.1206474  29.4706350  39.3258771
  94.5503725  30.3438112  40.4232517  79.9650185  24.8730143  54.0931749
  80.6109049  24.3629097  54.5818975  79.7567336  25.6098825  54.6675175
  92.4903577  31.9410991  59.5923890  93.3594737  32.1151643  59.2310525
  92.0110329  32.7605407  59.4699619  88.4853795  19.1370188  39.8455646
  88.4732465  20.0812028  40.0023916  89.3777217  18.9540333  39.5515107
  86.6589757  39.0608092  51.2713324  87.5617004  39.0931702  51.5879819
  86.4327127  38.1308543  51.2859659  88.4143359  37.8139078  47.9323402
  87.4638990  37.8140940  47.8187775  88.7175846  37.0671813  47.4159437
  92.3005915  15.7312964  44.1001582  91.5338311  15.1771451  44.2458265
  92.7116620  15.8034833  44.9615734  84.3047676  22.0197760  58.1906764
  85.1679138  21.6634565  58.4010088  83.7313087  21.6811655  58.8782168
 104.1496053  43.6499617  48.9969165 104.7874463  43.5306364  48.2932505
 104.0316896  44.5980461  49.0557117 100.9585759  43.6027045  48.9330689
 100.6204271  43.4868109  48.0451224 101.8275527  43.2018210  48.9131695
  96.8172575  45.4562521  44.9227580  96.2537440  45.3652458  44.1543868
  96.7024970  44.6362426  45.4030073 101.4405542  44.7561896  54.8916895
 101.4294183  44.3614695  54.0197399 101.6026182  44.0227969  55.4850666
  94.3637007  46.9513713  47.7611801  95.1558299  46.6104537  47.3458100
  94.6033657  47.0608688  48.6813954 102.3972134  49.1233489  40.2342045
 101.7460113  49.7087569  39.8476059 103.1916496  49.6539684  40.2937083
  96.3227761  46.2122626  40.6329180  97.0958637  45.6651613  40.4942055
  96.6753160  47.0766875  40.8443641  98.1612803  47.5399008  53.8396079
  97.8702669  48.4444639  53.7242745  98.7969788  47.5815536  54.5540148
  99.0869010  44.9175857  50.4297438  99.6832582  44.6931879  49.7154401
  99.1443982  44.1760602  51.0322886  98.6594039  42.3715292  38.2647629
  98.9119559  41.8496813  37.5031092  97.7218598  42.2081437  38.3674313
 103.7037321  41.3751070  46.0722373 104.4900411  40.9570494  45.7212790
 103.9676026  42.2797163  46.2404021 103.8747399  46.8123921  40.7711029
 103.2393232  46.8858547  41.4831934 103.5444805  47.4017520  40.0930109
 109.1045748  41.3126304  46.9755351 109.8370920  40.7425520  47.2093181
 108.3485104  40.9247904  47.4161857  98.3790327  44.2743398  40.4672004
  98.2626585  43.5988301  41.1353089  98.4892587  43.7875772  39.6504157
 100.7221868  43.7353545  44.1718694 100.3580075  43.2084166  44.8831615
 101.5788984  43.3452014  43.9985179 106.6271169  35.0247878  51.4349960
 106.2954494  35.8943289  51.2111175 106.0316782  34.7084162  52.1143990
 100.3627355  38.7643445  39.1680042 100.5301758  39.6323681  39.5350513
 100.1724524  38.9270726  38.2441331 103.1202688  47.2260424  50.8345873
 102.8203411  48.1285463  50.7261680 102.7753748  46.9592607  51.6867025
  96.5715170  43.6774221  46.8682577  95.6465666  43.5450435  47.0760269
  96.8199583  44.4568440  47.3652519 106.5199832  39.7442964  48.5143310
 105.6116709  39.6758372  48.2202071 106.4687428  40.2214909  49.3425135
 100.3416576  41.2201102  40.1526709 100.2216201  41.6658153  40.9912189
  99.6469164  41.5686420  39.5940247  93.9323981  43.3207494  47.7026366
  94.0616362  43.5741973  48.6165778  93.2521432  43.9135202  47.3831021
  98.1023468  53.9904744  43.8016840  98.0247498  54.9412569  43.8805321
  97.4985112  53.6450617  44.4591767 100.5940698  41.1632609  56.4578207
  99.8174032  41.7226530  56.4481072 101.2331261  41.6489392  56.9793077
 108.3861479  37.9459402  50.2921184 107.7435859  38.2391935  49.6460978
 107.8816407  37.8312323  51.0974380 106.0401642  41.6922575  40.9807043
 106.9519498  41.9249962  40.8054741 105.5311289  42.2759620  40.4182122
  98.8487070  43.9718063  56.0196174  99.5901755  44.5103107  55.7430998
  98.1424056  44.5984352  56.1767726 104.3242410  46.1147203  54.6168336
 104.7325766  45.6729614  53.8722968 103.6019671  45.5399831  54.8702528
 100.6773480  41.0519810  51.9901893 101.5234675  41.4759224  52.1336542
 100.6172118  40.3953434  52.6840456 104.6471225  46.6748394  48.3720624
 104.0180087  46.8394108  47.6696692 104.2596887  47.0890003  49.1431589
 108.5260456  47.6102832  45.7264988 107.8411495  47.9901733  45.1762022
 108.6104306  48.2198158  46.4596936 103.8272925  38.7124178  53.6483066
 103.5833857  39.4666239  53.1117342 104.1032856  39.0909526  54.4830313
 105.7811388  45.2562791  52.3260332 105.9928283  45.8994551  51.6494713
 105.7341136  44.4225107  51.8582262 103.3837617  37.8680611  49.2296904
 102.5222096  38.1661865  49.5213641 103.4100052  38.0851010  48.2977937
 100.1999186  46.4122802  45.6370710 100.6637532  46.6910505  44.8475332
  99.9355985  45.5106247  45.4543800  97.0923267  45.9594284  48.5750473
  97.6624625  46.3881552  47.9367957  97.6831379  45.6776868  49.2734658
  99.1368072  42.5345954  42.4460275  99.8392116  42.9866998  42.9134201
  98.8048701  41.8929773  43.0740168  97.5848434  41.1257711  56.8211484
  96.9547095  41.8073992  57.0546881  97.4784522  41.0140793  55.8764622
  92.8793406  40.7929507  47.7477408  92.0892460  41.0487036  47.2717519
  93.3704654  41.6077845  47.8529449 106.8957216  48.1334746  50.4982689
 107.7174660  47.7314933  50.2165371 106.8919619  48.0302980  51.4498805
  94.8308152  41.1574086  44.7060885  94.0339315  41.2692781  45.2244381
  94.6033744  41.4960739  43.8401775 100.6613819  47.6818790  52.6543400
 100.7258252  48.1439197  53.4901571  99.9524743  47.0516154  52.7825709
  91.1631109  41.0459997  50.1792399  91.4139148  41.9307007  50.4449975
  91.6990658  40.8664599  49.4067491 114.9863209  44.4773495  46.8467661
 114.2326917  43.9080893  46.6911665 115.1210750  44.4436159  47.7938295
 100.3761837  49.3486897  42.5222380 100.2407512  50.1938433  42.9507228
 100.9171650  49.5506175  41.7588314  96.8629177  35.4278477  59.1836735
  96.4696122  34.8744675  59.8584379  97.6795317  35.7389055  59.5743253
  93.8291234  46.8662335  43.0950305  94.3415755  47.6605585  43.2455870
  94.4813947  46.1688625  43.0283906  95.6386119  49.9828091  45.1773058
  95.8152748  50.9046056  44.9894042  96.4342953  49.6686511  45.6067438
  99.7797138  36.8436356  56.7756992 100.5206851  37.4443509  56.6961454
 100.0115061  36.1013994  56.2175034  94.9238476  42.0292723  55.0535221
  94.8091991  41.1277980  55.3542320  94.0682993  42.2756420  54.7020038
 102.0030313  49.9710464  56.6522722 101.5594168  49.1846842  56.3343627
 102.6647527  50.1589614  55.9866613  96.7617435  51.5006265  51.1783401
  97.3124860  51.3723328  50.4060394  95.9228911  51.8001154  50.8278293
 104.1011552  50.2513263  54.6804123 104.0830027  51.0722144  54.1884392
 105.0231472  50.1267339  54.9054264 100.5584606  47.7657393  55.5227632
 101.0912942  47.0045681  55.2926940 100.0298687  47.4731045  56.2651786
 103.7254301  32.8717459  51.0521273 103.3818570  33.7619101  50.9760384
 104.0933263  32.6819117  50.1890858  91.7940151  45.1950989  43.8709876
  92.6315373  45.6047998  43.6543583  91.9718419  44.2550432  43.8410069
 103.6904583  42.8626070  39.5593709 103.1751207  43.6330675  39.7982096
 103.4181892  42.1891206  40.1826770 101.2751694  37.7075771  44.6178947
 100.4193291  37.3182621  44.4384586 101.6878646  37.7867732  43.7578732
 102.8050841  35.2422114  49.0170507 102.3015637  35.2052249  48.2038312
 103.0981448  36.1514857  49.0767163  99.0493727  35.3260844  48.0236688
  99.9146724  35.1303652  47.6642578  99.1171236  35.0971196  48.9506045
 108.6638858  45.6158425  41.4946882 107.8868300  45.2769584  41.0502044
 109.3430338  45.6211048  40.8201847 103.4790887  40.7353162  41.3853490
 103.1741022  41.0499311  42.2363633 104.4321329  40.8134582  41.4280823
 101.9237318  46.8943385  43.0346444 101.3958680  46.1596145  42.7219681
 101.4224821  47.6718062  42.7886412 106.9030164  45.0892406  48.1513490
 106.2453839  45.7791667  48.2393619 107.7070564  45.4788838  48.4947476
  96.6556046  37.5563052  45.3953055  97.2299798  37.3338233  44.6626248
  97.2427028  37.6251746  46.1481656 105.7135623  43.4436779  46.2017432
 106.2267505  44.0766770  46.7039141 106.3636847  42.8437974  45.8360792
  96.9825633  39.5867513  39.4148940  96.1462945  39.9242199  39.7358215
  96.8430403  39.4516493  38.4776077  98.9578714  34.4304301  44.1228125
  98.3043126  34.1153318  43.4984739  98.9159188  33.8080041  44.8487948
 100.0689919  44.7123596  36.0381417  99.1616980  44.4812849  36.2372566
 100.5660951  43.9161215  36.2255398 102.9757997  53.4221103  38.9578103
 102.3019696  53.7252800  39.5663061 103.3623819  54.2250183  38.6083560
 102.1916454  40.9186234  48.4475772 101.2739015  41.1401181  48.2897460
 102.6076598  40.9932545  47.5887480 102.9751502  42.3177650  43.5778453
 103.7223321  42.8299047  43.2685575 103.2443091  41.9961703  44.4382846
 101.2478152  44.8136191  40.5605407 100.3389371  44.5295223  40.6577877
 101.2773236  45.2335269  39.7008714 106.4797419  48.4242780  44.3296574
 106.0259747  47.5833690  44.3861765 105.8491386  49.0604178  44.6671355
 105.4230339  39.3534766  45.5597242 104.6853096  38.8412152  45.8907484
 105.6757113  38.9135148  44.7480519 104.9230359  50.2619277  45.2646392
 105.2153333  50.8224334  44.5458758 105.4328979  50.5547838  46.0199552
 105.5241966  32.1311018  46.1539011 105.8300843  31.2708382  45.8664926
 106.2494571  32.7228638  45.9538005  91.8166322  42.5341705  44.5420609
  91.6190722  41.9411065  43.8171676  91.2612986  42.2293915  45.2596548
  99.7963046  42.4264811  46.6615202  99.8511656  41.4738648  46.5857679
  98.9854248  42.5824250  47.1456501 100.9454240  46.3544934  37.8993485
 100.5073670  45.6380793  37.4399123 101.6864681  46.5821049  37.3378577
  97.7355406  41.0441871  44.4205581  96.9223272  41.3436041  44.8270773
  98.2314400  40.6497560  45.1380063  99.8863984  51.0399628  46.3539846
  99.8440163  51.2660474  45.4248378 100.8026683  50.8063002  46.5025647
 103.3329618  41.5083695  53.2520475 103.6879005  41.7355168  54.1114941
 103.9801749  41.8402072  52.6297730 109.0627355  44.6302131  43.9569804
 108.9245253  44.8203727  43.0290993 108.7063573  45.3921514  44.4137855
  97.2269481  38.6160226  50.0366816  97.8668860  38.4748986  49.3389779
  96.3947011  38.3294740  49.6605418 109.0896734  46.6978658  48.9681075
 109.5233241  46.6053947  49.8164129 109.8028315  46.6736159  48.3301091
  98.0029785  47.9162657  46.1501808  98.7970383  47.4212977  45.9484383
  97.2921477  47.3880520  45.7869514 102.8224629  50.2980752  50.5014176
 102.8761651  50.8671689  51.2691892 101.9539410  50.4682637  50.1368213
  94.3112548  42.0605739  42.2261561  93.3810136  41.9990194  42.4431523
  94.4070020  41.5381691  41.4298202  94.2298097  38.5860551  44.8139803
  94.4904914  39.5005885  44.7048963  95.0515269  38.1184994  44.9636416
  95.7023022  39.9998309  51.9838627  96.3746076  39.7915671  51.3351276
  94.8752809  39.8020395  51.5443860 109.9512284  46.7402359  51.5013961
 110.1448174  47.6448169  51.7473236 109.8512902  46.2809778  52.3352546
 101.6048594  36.6260249  54.0004288 100.9576510  37.3250199  53.9068765
 102.3749610  37.0596393  54.3680536 105.0127392  46.8909102  57.0754841
 104.8612899  46.6619653  56.1584925 105.0032072  47.8479703  57.0886186
 101.7812729  44.4641014  52.0601108 102.7104789  44.6152174  51.8870075
 101.3603759  44.5525035  51.2049754 100.5801061  48.4891679  49.8299646
 100.4412146  48.1210463  50.7025584  99.7915657  49.0039318  49.6583603
 101.1749213  53.5900775  41.1725182 101.3500968  53.1188818  41.9870805
 100.4882001  54.2166541  41.4006443 102.1306276  47.8673282  47.2188483
 101.7956108  47.8274051  48.1146133 101.6310221  47.2017997  46.7458894
  96.1050520  43.2740912  52.7441064  95.9670318  42.5421150  53.3452604
  97.0155443  43.1849812  52.4625252 105.0665467  45.2129316  37.4925543
 104.4494638  44.4876144  37.3958596 104.5981956  45.9738676  37.1492617
  98.7332820  42.9860871  52.2324744  99.4432439  42.3454063  52.1911363
  98.6902129  43.2373766  53.1550925 106.7219599  49.9228224  55.1531323
 106.6632145  49.2387444  54.4861906 107.1239117  50.6647214  54.7011949
  97.4461754  39.9726089  54.0520384  96.9099111  39.5216827  54.7041980
  96.8578463  40.1071998  53.3090848  95.7410298  56.7390138  47.9465042
  95.9806896  57.3708662  48.6244061  94.8979494  56.3878178  48.2330401
  96.8564013  39.4314740  36.6146847  95.9793480  39.3103541  36.2509094
  97.3321766  38.6400818  36.3625736 106.7237006  47.8867808  53.3845303
 105.8363785  47.5493730  53.5071702 107.2935557  47.1550839  53.6214068
  88.3766153  44.2191900  46.7088354  89.0637193  43.9053630  46.1209370
  88.2214282  45.1233265  46.4355606  93.1800876  39.1082096  51.1373378
  93.0959064  38.5007766  50.4023788  92.3583582  39.5991115  51.1382874
 100.2538160  52.5469260  50.3506546 100.1808331  53.3524232  50.8625851
  99.8115553  52.7461226  49.5254568 100.0427939  51.7841031  43.8609368
  99.2595461  52.3262711  43.9547592 100.7420685  52.3015010  44.2603609
 103.3524589  37.5935660  46.5043573 103.8493289  36.8405622  46.1844643
 102.5811571  37.6299977  45.9386782 111.2054347  43.2976026  48.1461865
 111.1944223  44.1800741  47.7755798 110.3371726  42.9447576  47.9516402
 102.7136843  52.4456095  52.5064705 103.4264815  53.0803559  52.4340606
 102.2226872  52.5419961  51.6904707 104.4354370  46.3507347  44.0781997
 103.5010649  46.4708810  43.9086701 104.6131039  45.4479814  43.8142006
  99.9359558  39.7353043  46.2315258  99.5657346  39.1824083  46.9196163
 100.4318651  39.1311176  45.6790258 107.8226922  42.1924666  44.6132031
 108.2887374  43.0252658  44.5392333 108.2734422  41.7269648  45.3177289
  97.7648757  50.1950538  53.3270276  98.4658216  50.8287021  53.4799670
  97.2943872  50.5365270  52.5665915 105.8903153  48.5368488  41.6118183
 106.1662997  48.4225082  42.5212057 105.0207651  48.1385973  41.5730356
 105.7943584  34.5605253  48.6522932 104.8806664  34.7909480  48.8205139
 106.2236686  34.6443698  49.5036964 105.5650043  42.7495145  51.1522826
 104.9121493  42.9971053  50.4975279 105.9430423  41.9359284  50.8185303
 102.5257217  52.7854839  45.2550996 102.7079611  51.9676495  45.7178749
 103.3490203  53.0022531  44.8175886 102.8599382  51.7123024  42.5166045
 103.3887149  51.2015478  41.9036207 103.1227602  51.3965554  43.3811578
 101.6137616  43.4914956  57.6388863 100.9378253  43.3909086  58.3091238
 102.4365250  43.3354170  58.1024860  93.3616475  49.7286893  50.2601378
  93.9469912  48.9830581  50.3929283  93.1641313  50.0390850  51.1438042
  96.2155130  52.7638140  45.2763821  95.5465505  53.2484268  44.7927861
  96.0768000  53.0107361  46.1907199  87.9534130  42.2992493  48.9805822
  87.9918229  41.7656084  49.7742940  87.4474422  41.7727699  48.3616799
 100.3560399  54.7981884  51.8746479 100.9078707  54.9613505  52.6395564
 100.6966592  55.3886322  51.2026504  95.3324892  37.1457034  52.4768364
  95.3966218  38.0071865  52.0645762  95.2692012  36.5331035  51.7440722
  94.8077164  39.2180166  56.1241398  95.4349203  38.8357244  56.7378922
  93.9505083  38.9994368  56.4897091 105.2071273  49.6243141  57.7295134
 105.7511177  50.2373100  57.2350088 104.6258118  50.1822720  58.2462147
  91.5842707  41.0256595  42.0559753  91.8796148  40.1167274  42.0026807
  90.6830743  41.0044335  41.7340755 103.4928786  52.7463859  48.8610161
 103.3679925  51.9453599  48.3521107 104.1507877  53.2410053  48.3724131
  95.1136954  39.1012592  48.0387301  94.3923540  39.7148560  47.8994775
  95.9030210  39.6370357  47.9603947 105.5563694  50.5472880  50.4889711
 104.6094030  50.4278231  50.4168038 105.9046467  49.6595378  50.5715973
  97.9163268  36.4367018  54.3127953  98.4397670  36.6829315  55.0754263
  97.6975601  37.2687053  53.8931091  93.3130549  38.7070693  42.1799078
  92.9843255  37.8268072  41.9974184  93.6669919  38.6518362  43.0675467
 102.5610128  50.3425596  46.6894064 102.4135090  49.4142303  46.8701634
 103.3863621  50.3645686  46.2051139  96.4272372  38.9943663  42.5474556
  96.7668444  39.5229584  41.8253164  96.8744492  39.3324069  43.3233122
 106.1644249  51.1654154  47.7758936 107.0890797  50.9597016  47.6383387
 105.9959553  50.9170556  48.6848278  99.1215813  37.3780714  51.9977624
  98.7812633  36.5788527  52.3998304  98.4154819  37.6782424  51.4254457
  99.7732285  34.4630026  50.4504947 100.5958354  33.9890504  50.3283837
 100.0170348  35.2420510  50.9503633  98.4140519  37.4918284  40.7467848
  99.1348882  37.8699537  40.2431565  97.7905823  38.2107161  40.8502826
 102.5571642  38.1963433  41.6826181 102.7735256  39.0788071  41.3815009
 102.0765709  37.8049647  40.9531823  97.2970863  41.1549147  48.2596925
  97.1515444  41.4689450  49.1521207  96.8196067  41.7734047  47.7067824
  99.1567246  38.1451695  48.3077815  99.1428815  37.2492788  47.9710113
  99.8739674  38.1522358  48.9416101 101.0093377  38.5789035  50.3530942
 100.7511155  39.5006105  50.3515273 100.4778417  38.1819469  51.0431407
 105.9539566  51.6839822  43.1321028 106.1276443  51.1186244  42.3794880
 106.4468457  52.4840717  42.9500518  91.7716525  43.6954491  51.1984587
  91.2269994  44.4714299  51.3304861  92.6495875  44.0425296  51.0403708
  98.5604142  37.0266075  43.5765385  98.6820053  36.0982721  43.7756273
  98.2706185  37.0404761  42.6643701 101.4295333  34.7120985  46.7132105
 101.4517029  34.7760318  45.7584085 101.8463392  33.8725494  46.9072611
 111.8078957  44.4476245  44.7511328 112.2510103  43.6983570  44.3530451
 110.9305467  44.4386381  44.3685060 106.9414738  51.0006586  40.2317926
 107.6365643  51.6213279  40.4505241 107.2837888  50.1501938  40.5070304
  92.5582547  42.8224387  54.0914743  91.8164283  42.9707023  54.6779374
  92.2375292  43.0832653  53.2281493 108.8406161  48.4506292  41.7605257
 109.3657485  48.7893565  41.0354577 108.7528514  47.5153307  41.5768391
 100.5026210  52.3640366  53.8895133 100.8113336  52.1189512  54.7617833
 101.3001692  52.5687004  53.4014004 100.5246822  54.5178275  46.1200510
 100.0851812  54.0254654  46.8133367 101.2754939  53.9751243  45.8792585
  93.0039161  50.7089816  46.1225138  93.8297181  50.4093588  45.7423782
  92.6533213  49.9397438  46.5714927  97.9720694  50.0616284  48.1922812
  97.3500703  49.3986989  47.8925040  98.6425561  50.0877416  47.5096459
  91.2047766  48.6276142  47.0814072  90.3679674  48.1998317  46.8998073
  91.1771411  48.8208586  48.0184863  98.0445222  38.5398072  57.7855318
  98.0933377  39.4160195  57.4033087  98.5867736  37.9975465  57.2126961
 108.5300067  49.0839196  57.0656455 107.7395611  49.0663334  56.5260954
 108.2933422  49.6227489  57.8205491 108.6497942  45.9331662  54.3789183
 108.6995947  45.7681669  55.3204706 108.5411866  45.0658921  53.9887064
  97.5334201  48.6120208  41.6681272  97.6822321  49.2955672  41.0147945
  98.3400645  48.5925298  42.1830728 105.9401705  41.9162590  55.6948490
 106.8411568  41.7769055  55.4032488 106.0149679  42.0817045  56.6346667
 100.2744510  39.2929445  54.5401676  99.4047820  39.5863011  54.2684265
 100.5103990  39.8769890  55.2608940 110.1516139  48.3528603  54.6231205
 109.8600948  48.7158584  55.4594666 109.5388271  47.6395612  54.4444537
 111.3511822  45.9181483  47.1433775 112.1858713  46.3571287  47.3071335
 111.4870950  45.4420136  46.3242021 108.4003327  43.4761218  53.0911263
 108.8757449  43.6688864  52.2830114 107.4768893  43.5320404  52.8454647
  95.2886834  44.6385385  42.6742341  95.0432876  43.7347715  42.8722551
  95.4582749  44.6402536  41.7321819 102.9783544  35.5109062  52.0567097
 103.4965488  36.2470089  51.7313585 102.6238677  35.8173055  52.8913856
  94.5582482  40.3713743  40.1728503  93.8651727  40.4458098  39.5168539
  94.3134234  39.6074086  40.6950020 103.2296138  31.9309344  47.5767993
 103.5097892  31.2632533  48.2028420 104.0146745  32.1238440  47.0642657
 101.0329607  51.1068338  39.1393020 100.4603574  51.7258525  38.6863492
 101.6062400  51.6567700  39.6732942 107.1004996  40.3526978  51.3239568
 108.0522419  40.4525076  51.3451792 106.9308447  39.5605247  51.8337653
 105.1219376  37.4382561  51.5098969 104.5269308  37.7187574  50.8145458
 104.8369073  37.9276462  52.2815710 104.2526866  51.3905488  40.2701602
 105.1857540  51.3251050  40.4734477 104.1650079  52.2261755  39.8116135
 106.8814883  50.7071359  37.2305549 106.8028515  50.3731222  38.1241307
 107.7024550  51.1993126  37.2297022 109.5793074  43.5733098  50.4381868
 109.5469394  42.6349099  50.6241552 110.1893698  43.6517135  49.7047693
 101.4176405  42.4429151  36.4809072 102.3635510  42.3135359  36.5497490
 101.0390650  41.7043813  36.9578500 109.7287563  40.3644141  50.4840151
 109.2126611  39.5802598  50.2970080 110.6127511  40.0362858  50.6486671
 107.3898290  34.1085157  46.4435964 107.1923111  33.8000245  47.3279296
 107.9997995  34.8346796  46.5733894 115.3969624  44.6349105  49.5787905
 116.1273013  44.3734393  50.1395608 114.7876570  43.8977827  49.6189973
 113.4784921  42.7756967  50.1762356 112.7518085  42.6412932  49.5678848
 113.0632208  43.0833796  50.9819074 101.3015098  46.4946897  57.9409729
 102.2218107  46.6725496  58.1349776 101.2664681  45.5502942  57.7889428
  99.6019322  40.3679127  36.4163957  98.6950778  40.0712240  36.4926671
  99.8795303  40.0708945  35.5498244  90.5197263  41.6885491  46.8663004
  90.2000047  40.8350799  46.5737378  89.9730691  41.9034069  47.6220971
  94.2977170  44.4047932  50.5832510  94.5163180  45.3365039  50.6020544
  94.7102944  44.0455906  51.3687314 101.2181388  34.9116017  42.5708199
 100.4082116  34.5663102  42.9463445 101.9065805  34.6023561  43.1595810
 103.1471936  33.9894064  44.1932495 103.7002975  34.4089517  44.8522518
 103.3842023  33.0629812  44.2355451  99.1705036  39.9781137  59.9735259
  99.0701762  40.9275494  59.9047350  98.9526578  39.6499376  59.1011329
  98.3718107  37.2266062  36.5575937  99.2337271  37.5520961  36.8171754
  98.5568451  36.4397558  36.0449002  90.3885523  45.3088402  48.8356125
  89.6948994  44.8942355  48.3226080  91.1358514  45.3508939  48.2389544
 106.5250743  36.0994589  43.7011160 105.9449412  36.7579393  43.3189212
 106.2586676  35.2771933  43.2898577 104.9754310  35.4999647  45.9032480
 105.4754088  35.6116181  45.0946799 105.6189918  35.1960699  46.5433288
  99.0336306  43.4078276  58.7900321  98.5503387  44.2078636  58.9964210
  99.1197245  43.4186221  57.8367765  92.3022265  45.2406656  46.7122140
  92.2792953  45.3394343  45.7604023  92.6122902  46.0871807  47.0339306
  94.9609643  47.2982811  50.8268755  95.9152897  47.2666753  50.7598686
  94.7622167  46.8373435  51.6418981  95.5509025  45.8683927  53.3939552
  96.3701914  46.3628006  53.4174390  95.8245833  44.9515895  53.3657120
 105.3075621  38.2594679  42.7567508 104.4201476  38.5444330  42.5387703
 105.7229610  38.0988443  41.9094785 108.6590158  38.2841200  46.4721847
 109.4350548  38.7737653  46.7446464 107.9338292  38.7099254  46.9293717
 111.0962716  38.9968819  47.5295788 111.6907207  38.7564555  46.8189096
 111.1689300  38.2775950  48.1569324  93.3159872  52.8402430  47.8438953
  93.1814340  52.0802831  47.2776951  92.8991934  53.5643330  47.3767741
 104.4518835  48.0239354  36.8515528 105.1554685  48.2289356  37.4673183
 103.7281484  48.5916116  37.1164611 105.2816645  43.7749215  42.9717798
 105.2251847  44.2317767  42.1325430 105.8344988  43.0139900  42.7940641
 109.0921451  39.5638947  43.7967917 108.8358385  39.1635583  44.6276125
 108.4674319  40.2782741  43.6718057 113.4033789  42.3035020  46.3039209
 112.8433347  42.3728210  47.0770771 112.7977292  42.1276005  45.5838705
  96.4728998  53.7371747  48.0557395  96.3561382  54.6817180  47.9536085
  95.6521444  53.4345309  48.4443194 106.3605532  48.4621883  38.9013988
 107.1951136  48.0303082  38.7191463 106.1989875  48.2903897  39.8290882
 106.0151424  44.9653996  40.2670327 105.9600228  44.7998268  39.3258771
 105.3897480  45.6730029  40.4232517  90.8043939  40.2022061  54.0931749
  91.4502803  39.6921015  54.5818975  90.5961091  40.9390742  54.6675175
 103.3297332  47.2702908  59.5923890 104.1988491  47.4443561  59.2310525
 102.8504083  48.0897325  59.4699619  99.3247550  34.4662105  39.8455646
  99.3126220  35.4103945  40.0023916 100.2170972  34.2832251  39.5515107
  97.4983512  54.3900009  51.2713324  98.4010759  54.4223620  51.5879819
  97.2720882  53.4600460  51.2859659  99.2537114  53.1430996  47.9323402
  98.3032745  53.1432857  47.8187775  99.5569600  52.3963730  47.4159437
 103.1399669  31.0604882  44.1001582 102.3732065  30.5063369  44.2458265
 103.5510374  31.1326751  44.9615734  95.1441430  37.3489678  58.1906764
  96.0072892  36.9926483  58.4010088  94.5706841  37.0103573  58.8782168
 114.9889807  58.9791534  48.9969165 115.6268217  58.8598282  48.2932505
 114.8710650  59.9272378  49.0557117 111.7979514  58.9318962  48.9330689
 111.4598025  58.8160027  48.0451224 112.6669282  58.5310127  48.9131695
 107.6566329  60.7854439  44.9227580 107.0931194  60.6944376  44.1543868
 107.5418724  59.9654343  45.4030073 112.2799297  60.0853814  54.8916895
 112.2687937  59.6906612  54.0197399 112.4419936  59.3519887  55.4850666
 105.2030761  62.2805630  47.7611801 105.9952053  61.9396455  47.3458100
 105.4427411  62.3900605  48.6813954 113.2365888  64.4525406  40.2342045
 112.5853868  65.0379487  39.8476059 114.0310251  64.9831601  40.2937083
 107.1621515  61.5414544  40.6329180 107.9352391  60.9943531  40.4942055
 107.5146914  62.4058793  40.8443641 109.0006558  62.8690926  53.8396079
 108.7096424  63.7736557  53.7242745 109.6363542  62.9107453  54.5540148
 109.9262765  60.2467774  50.4297438 110.5226337  60.0223797  49.7154401
 109.9837736  59.5052520  51.0322886 109.4987793  57.7007210  38.2647629
 109.7513314  57.1788731  37.5031092 108.5612352  57.5373355  38.3674313
 114.5431076  56.7042988  46.0722373 115.3294165  56.2862411  45.7212790
 114.8069780  57.6089080  46.2404021 114.7141153  62.1415838  40.7711029
 114.0786986  62.2150465  41.4831934 114.3838560  62.7309437  40.0930109
 119.9439503  56.6418221  46.9755351 120.6764675  56.0717438  47.2093181
 119.1878859  56.2539822  47.4161857 109.2184082  59.6035316  40.4672004
 109.1020340  58.9280219  41.1353089 109.3286342  59.1167690  39.6504157
 111.5615623  59.0645463  44.1718694 111.1973830  58.5376084  44.8831615
 112.4182739  58.6743932  43.9985179 117.4664923  50.3539795  51.4349960
 117.1348248  51.2235206  51.2111175 116.8710537  50.0376079  52.1143990
 111.2021110  54.0935362  39.1680042 111.3695512  54.9615599  39.5350513
 111.0118279  54.2562644  38.2441331 113.9596443  62.5552341  50.8345873
 113.6597166  63.4577380  50.7261680 113.6147502  62.2884525  51.6867025
 107.4108924  59.0066138  46.8682577 106.4859421  58.8742352  47.0760269
 107.6593338  59.7860357  47.3652519 117.3593587  55.0734882  48.5143310
 116.4510464  55.0050290  48.2202071 117.3081182  55.5506826  49.3425135
 111.1810331  56.5493020  40.1526709 111.0609956  56.9950071  40.9912189
 110.4862919  56.8978338  39.5940247 104.7717735  58.6499412  47.7026366
 104.9010117  58.9033891  48.6165778 104.0915187  59.2427120  47.3831021
 108.9417223  69.3196662  43.8016840 108.8641252  70.2704487  43.8805321
 108.3378866  68.9742534  44.4591767 111.4334452  56.4924527  56.4578207
 110.6567786  57.0518447  56.4481072 112.0725015  56.9781310  56.9793077
 119.2255233  53.2751320  50.2921184 118.5829613  53.5683853  49.6460978
 118.7210162  53.1604240  51.0974380 116.8795397  57.0214493  40.9807043
 117.7913253  57.2541880  40.8054741 116.3705044  57.6051537  40.4182122
 109.6880825  59.3009981  56.0196174 110.4295509  59.8395024  55.7430998
 108.9817810  59.9276269  56.1767726 115.1636164  61.4439121  54.6168336
 115.5719520  61.0021531  53.8722968 114.4413426  60.8691748  54.8702528
 111.5167234  56.3811728  51.9901893 112.3628430  56.8051141  52.1336542
 111.4565872  55.7245352  52.6840456 115.4864979  62.0040312  48.3720624
 114.8573841  62.1686026  47.6696692 115.0990641  62.4181921  49.1431589
 119.3654211  62.9394749  45.7264988 118.6805249  63.3193651  45.1762022
 119.4498060  63.5490076  46.4596936 114.6666680  54.0416096  53.6483066
 114.4227612  54.7958157  53.1117342 114.9426610  54.4201444  54.4830313
 116.6205143  60.5854708  52.3260332 116.8322038  61.2286468  51.6494713
 116.5734891  59.7517025  51.8582262 114.2231371  53.1972529  49.2296904
 113.3615851  53.4953783  49.5213641 114.2493806  53.4142928  48.2977937
 111.0392941  61.7414720  45.6370710 111.5031286  62.0202423  44.8475332
 110.7749739  60.8398164  45.4543800 107.9317022  61.2886201  48.5750473
 108.5018379  61.7173470  47.9367957 108.5225134  61.0068786  49.2734658
 109.9761827  57.8637872  42.4460275 110.6785870  58.3158916  42.9134201
 109.6442455  57.2221691  43.0740168 108.4242188  56.4549629  56.8211484
 107.7940849  57.1365910  57.0546881 108.3178276  56.3432710  55.8764622
 103.7187161  56.1221425  47.7477408 102.9286215  56.3778953  47.2717519
 104.2098408  56.9369763  47.8529449 117.7350970  63.4626664  50.4982689
 118.5568414  63.0606851  50.2165371 117.7313373  63.3594898  51.4498805
 105.6701906  56.4866004  44.7060885 104.8733070  56.5984698  45.2244381
 105.4427498  56.8252656  43.8401775 111.5007574  63.0110707  52.6543400
 111.5652006  63.4731114  53.4901571 110.7918498  62.3808072  52.7825709
 102.0024864  56.3751915  50.1792399 102.2532902  57.2598925  50.4449975
 102.5384412  56.1956517  49.4067491 125.8256964  59.8065412  46.8467661
 125.0720672  59.2372810  46.6911665 125.9604505  59.7728077  47.7938295
 111.2155592  64.6778815  42.5222380 111.0801266  65.5230350  42.9507228
 111.7565404  64.8798092  41.7588314 107.7022931  50.7570395  59.1836735
 107.3089877  50.2036593  59.8584379 108.5189072  51.0680973  59.5743253
 104.6684989  62.1954253  43.0950305 105.1809510  62.9897503  43.2455870
 105.3207702  61.4980543  43.0283906 106.4779874  65.3120009  45.1773058
 106.6546502  66.2337974  44.9894042 107.2736707  64.9978428  45.6067438
 110.6190892  52.1728274  56.7756992 111.3600606  52.7735427  56.6961454
 110.8508815  51.4305911  56.2175034 105.7632230  57.3584641  55.0535221
 105.6485745  56.4569898  55.3542320 104.9076748  57.6048338  54.7020038
 112.8424068  65.3002381  56.6522722 112.3987922  64.5138760  56.3343627
 113.5041282  65.4881532  55.9866613 107.6011189  66.8298183  51.1783401
 108.1518614  66.7015246  50.4060394 106.7622665  67.1293072  50.8278293
 114.9405306  65.5805181  54.6804123 114.9223781  66.4014062  54.1884392
 115.8625226  65.4559256  54.9054264 111.3978360  63.0949311  55.5227632
 111.9306697  62.3337599  55.2926940 110.8692441  62.8022962  56.2651786
 114.5648055  48.2009377  51.0521273 114.2212325  49.0911018  50.9760384
 114.9327018  48.0111034  50.1890858 102.6333906  60.5242907  43.8709876
 103.4709128  60.9339915  43.6543583 102.8112173  59.5842349  43.8410069
 114.5298338  58.1917988  39.5593709 114.0144961  58.9622592  39.7982096
 114.2575646  57.5183124  40.1826770 112.1145449  53.0367688  44.6178947
 111.2587045  52.6474539  44.4384586 112.5272401  53.1159649  43.7578732
 113.6444596  50.5714032  49.0170507 113.1409391  50.5344167  48.2038312
 113.9375202  51.4806774  49.0767163 109.8887481  50.6552761  48.0236688
 110.7540478  50.4595570  47.6642578 109.9564990  50.4263113  48.9506045
 119.5032612  60.9450342  41.4946882 118.7262055  60.6061502  41.0502044
 120.1824093  60.9502965  40.8201847 114.3184641  56.0645080  41.3853490
 114.0134777  56.3791229  42.2363633 115.2715083  56.1426500  41.4280823
 112.7631073  62.2235303  43.0346444 112.2352434  61.4888063  42.7219681
 112.2618576  63.0009979  42.7886412 117.7423919  60.4184324  48.1513490
 117.0847593  61.1083585  48.2393619 118.5464318  60.8080756  48.4947476
 107.4949800  52.8854969  45.3953055 108.0693552  52.6630151  44.6626248
 108.0820783  52.9543664  46.1481656 116.5529378  58.7728696  46.2017432
 117.0661259  59.4058688  46.7039141 117.2030602  58.1729892  45.8360792
 107.8219388  54.9159430  39.4148940 106.9856700  55.2534117  39.7358215
 107.6824157  54.7808410  38.4776077 109.7972468  49.7596218  44.1228125
 109.1436881  49.4445235  43.4984739 109.7552942  49.1371959  44.8487948
 110.9083673  60.0415513  36.0381417 110.0010735  59.8104767  36.2372566
 111.4054705  59.2453133  36.2255398 113.8151752  68.7513021  38.9578103
 113.1413451  69.0544717  39.5663061 114.2017574  69.5542101  38.6083560
 113.0310209  56.2478152  48.4475772 112.1132770  56.4693099  48.2897460
 113.4470352  56.3224462  47.5887480 113.8145256  57.6469567  43.5778453
 114.5617075  58.1590965  43.2685575 114.0836846  57.3253620  44.4382846
 112.0871906  60.1428108  40.5605407 111.1783126  59.8587141  40.6577877
 112.1166990  60.5627187  39.7008714 117.3191174  63.7534698  44.3296574
 116.8653501  62.9125608  44.3861765 116.6885141  64.3896096  44.6671355
 116.2624093  54.6826684  45.5597242 115.5246850  54.1704070  45.8907484
 116.5150867  54.2427065  44.7480519 115.7624113  65.5911194  45.2646392
 116.0547088  66.1516252  44.5458758 116.2722734  65.8839755  46.0199552
 116.3635721  47.4602936  46.1539011 116.6694598  46.6000299  45.8664926
 117.0888326  48.0520556  45.9538005 102.6560077  57.8633622  44.5420609
 102.4584477  57.2702983  43.8171676 102.1006741  57.5585833  45.2596548
 110.6356801  57.7556729  46.6615202 110.6905410  56.8030565  46.5857679
 109.8248003  57.9116168  47.1456501 111.7847994  61.6836852  37.8993485
 111.3467424  60.9672711  37.4399123 112.5258435  61.9112967  37.3378577
 108.5749160  56.3733789  44.4205581 107.7617026  56.6727959  44.8270773
 109.0708155  55.9789477  45.1380063 110.7257738  66.3691545  46.3539846
 110.6833917  66.5952392  45.4248378 111.6420437  66.1354920  46.5025647
 114.1723372  56.8375613  53.2520475 114.5272760  57.0647086  54.1114941
 114.8195503  57.1693990  52.6297730 119.9021109  59.9594049  43.9569804
 119.7639008  60.1495645  43.0290993 119.5457328  60.7213432  44.4137855
 108.0663235  53.9452144  50.0366816 108.7062615  53.8040903  49.3389779
 107.2340766  53.6586657  49.6605418 119.9290489  62.0270576  48.9681075
 120.3626995  61.9345865  49.8164129 120.6422069  62.0028076  48.3301091
 108.8423539  63.2454575  46.1501808 109.6364138  62.7504895  45.9484383
 108.1315232  62.7172438  45.7869514 113.6618384  65.6272670  50.5014176
 113.7155406  66.1963606  51.2691892 112.7933165  65.7974555  50.1368213
 105.1506303  57.3897656  42.2261561 104.2203891  57.3282112  42.4431523
 105.2463775  56.8673609  41.4298202 105.0691852  53.9152469  44.8139803
 105.3298669  54.8297802  44.7048963 105.8909024  53.4476912  44.9636416
 106.5416777  55.3290226  51.9838627 107.2139830  55.1207588  51.3351276
 105.7146563  55.1312312  51.5443860 120.7906038  62.0694277  51.5013961
 120.9841928  62.9740087  51.7473236 120.6906656  61.6101696  52.3352546
 112.4442349  51.9552167  54.0004288 111.7970264  52.6542117  53.9068765
 113.2143364  52.3888311  54.3680536 115.8521147  62.2201019  57.0754841
 115.7006653  61.9911571  56.1584925 115.8425826  63.1771621  57.0886186
 112.6206483  59.7932932  52.0601108 113.5498543  59.9444092  51.8870075
 112.1997513  59.8816953  51.2049754 111.4194815  63.8183596  49.8299646
 111.2805901  63.4502381  50.7025584 110.6309411  64.3331236  49.6583603
 112.0142967  68.9192693  41.1725182 112.1894723  68.4480736  41.9870805
 111.3275755  69.5458459  41.4006443 112.9700030  63.1965199  47.2188483
 112.6349863  63.1565969  48.1146133 112.4703976  62.5309915  46.7458894
 106.9444274  58.6032829  52.7441064 106.8064072  57.8713068  53.3452604
 107.8549198  58.5141729  52.4625252 115.9059222  60.5421234  37.4925543
 115.2888393  59.8168062  37.3958596 115.4375710  61.3030594  37.1492617
 109.5726575  58.3152789  52.2324744 110.2826193  57.6745981  52.1911363
 109.5295883  58.5665683  53.1550925 117.5613354  65.2520142  55.1531323
 117.5025900  64.5679362  54.4861906 117.9632872  65.9939132  54.7011949
 108.2855509  55.3018006  54.0520384 107.7492866  54.8508745  54.7041980
 107.6972217  55.4363915  53.3090848 106.5804052  72.0682056  47.9465042
 106.8200651  72.7000580  48.6244061 105.7373249  71.7170096  48.2330401
 107.6957768  54.7606658  36.6146847 106.8187234  54.6395459  36.2509094
 108.1715521  53.9692736  36.3625736 117.5630761  63.2159726  53.3845303
 116.6757540  62.8785648  53.5071702 118.1329312  62.4842757  53.6214068
  99.2159908  59.5483818  46.7088354  99.9030948  59.2345548  46.1209370
  99.0608037  60.4525182  46.4355606 104.0194630  54.4374014  51.1373378
 103.9352819  53.8299684  50.4023788 103.1977337  54.9283032  51.1382874
 111.0931914  67.8761178  50.3506546 111.0202086  68.6816150  50.8625851
 110.6509307  68.0753144  49.5254568 110.8821694  67.1132948  43.8609368
 110.0989216  67.6554628  43.9547592 111.5814439  67.6306928  44.2603609
 114.1918344  52.9227578  46.5043573 114.6887044  52.1697540  46.1844643
 113.4205325  52.9591894  45.9386782 122.0448101  58.6267943  48.1461865
 122.0337978  59.5092659  47.7755798 121.1765481  58.2739494  47.9516402
 113.5530598  67.7748012  52.5064705 114.2658570  68.4095477  52.4340606
 113.0620626  67.8711878  51.6904707 115.2748125  61.6799265  44.0781997
 114.3404403  61.8000727  43.9086701 115.4524793  60.7771732  43.8142006
 110.7753313  55.0644961  46.2315258 110.4051100  54.5116001  46.9196163
 111.2712405  54.4603094  45.6790258 118.6620676  57.5216584  44.6132031
 119.1281128  58.3544576  44.5392333 119.1128177  57.0561566  45.3177289
 108.6042511  65.5242456  53.3270276 109.3051971  66.1578939  53.4799670
 108.1337626  65.8657187  52.5665915 116.7296907  63.8660405  41.6118183
 117.0056751  63.7517000  42.5212057 115.8601406  63.4677890  41.5730356
 116.6337339  49.8897171  48.6522932 115.7200419  50.1201398  48.8205139
 117.0630440  49.9735615  49.5036964 116.4043797  58.0787063  51.1522826
 115.7515247  58.3262971  50.4975279 116.7824177  57.2651201  50.8185303
 113.3650971  68.1146756  45.2550996 113.5473366  67.2968412  45.7178749
 114.1883957  68.3314449  44.8175886 113.6993137  67.0414941  42.5166045
 114.2280903  66.5307396  41.9036207 113.9621356  66.7257472  43.3811578
 112.4531370  58.8206874  57.6388863 111.7772007  58.7201003  58.3091238
 113.2759004  58.6646088  58.1024860 104.2010229  65.0578811  50.2601378
 104.7863666  64.3122499  50.3929283 104.0035068  65.3682767  51.1438042
 107.0548885  68.0930058  45.2763821 106.3859260  68.5776186  44.7927861
 106.9161754  68.3399279  46.1907199  98.7927884  57.6284411  48.9805822
  98.8311984  57.0948002  49.7742940  98.2868177  57.1019616  48.3616799
 111.1954153  70.1273802  51.8746479 111.7472461  70.2905423  52.6395564
 111.5360347  70.7178239  51.2026504 106.1718646  52.4748951  52.4768364
 106.2359973  53.3363782  52.0645762 106.1085767  51.8622953  51.7440722
 105.6470919  54.5472084  56.1241398 106.2742958  54.1649161  56.7378922
 104.7898838  54.3286286  56.4897091 116.0465027  64.9535059  57.7295134
 116.5904931  65.5665017  57.2350088 115.4651872  65.5114638  58.2462147
 102.4236462  56.3548513  42.0559753 102.7189903  55.4459191  42.0026807
 101.5224497  56.3336253  41.7340755 114.3322540  68.0755777  48.8610161
 114.2073680  67.2745517  48.3521107 114.9901632  68.5701971  48.3724131
 105.9530709  54.4304510  48.0387301 105.2317294  55.0440477  47.8994775
 106.7423964  54.9662274  47.9603947 116.3957449  65.8764797  50.4889711
 115.4487784  65.7570148  50.4168038 116.7440222  64.9887295  50.5715973
 108.7557022  51.7658936  54.3127953 109.2791424  52.0121233  55.0754263
 108.5369355  52.5978971  53.8931091 104.1524303  54.0362611  42.1799078
 103.8237009  53.1559990  41.9974184 104.5063674  53.9810279  43.0675467
 113.4003882  65.6717513  46.6894064 113.2528845  64.7434221  46.8701634
 114.2257376  65.6937604  46.2051139 107.2666126  54.3235581  42.5474556
 107.6062199  54.8521502  41.8253164 107.7138247  54.6615987  43.3233122
 117.0038004  66.4946072  47.7758936 117.9284551  66.2888934  47.6383387
 116.8353307  66.2462473  48.6848278 109.9609567  52.7072631  51.9977624
 109.6206388  51.9080444  52.3998304 109.2548574  53.0074342  51.4254457
 110.6126039  49.7921944  50.4504947 111.4352108  49.3182422  50.3283837
 110.8564103  50.5712427  50.9503633 109.2534274  52.8210202  40.7467848
 109.9742636  53.1991455  40.2431565 108.6299578  53.5399079  40.8502826
 113.3965396  53.5255351  41.6826181 113.6129011  54.4079989  41.3815009
 112.9159464  53.1341565  40.9531823 108.1364618  56.4841064  48.2596925
 107.9909199  56.7981367  49.1521207 107.6589821  57.1025965  47.7067824
 109.9961001  53.4743612  48.3077815 109.9822569  52.5784706  47.9710113
 110.7133429  53.4814276  48.9416101 111.8487131  53.9080953  50.3530942
 111.5904909  54.8298023  50.3515273 111.3172172  53.5111387  51.0431407
 116.7933320  67.0131740  43.1321028 116.9670198  66.4478162  42.3794880
 117.2862211  67.8132635  42.9500518 102.6110280  59.0246409  51.1984587
 102.0663748  59.8006217  51.3304861 103.4889630  59.3717213  51.0403708
 109.3997897  52.3557993  43.5765385 109.5213808  51.4274639  43.7756273
 109.1099939  52.3696679  42.6643701 112.2689087  50.0412903  46.7132105
 112.2910784  50.1052236  45.7584085 112.6857146  49.2017412  46.9072611
 122.6472711  59.7768163  44.7511328 123.0903857  59.0275488  44.3530451
 121.7699222  59.7678299  44.3685060 117.7808493  66.3298504  40.2317926
 118.4759397  66.9505197  40.4505241 118.1231643  65.4793855  40.5070304
 103.3976302  58.1516305  54.0914743 102.6558038  58.2998940  54.6779374
 103.0769046  58.4124571  53.2281493 119.6799916  63.7798210  41.7605257
 120.2051240  64.1185482  41.0354577 119.5922268  62.8445225  41.5768391
 111.3419964  67.6932283  53.8895133 111.6507091  67.4481430  54.7617833
 112.1395447  67.8978922  53.4014004 111.3640577  69.8470193  46.1200510
 110.9245567  69.3546572  46.8133367 112.1148693  69.3043161  45.8792585
 103.8432916  66.0381734  46.1225138 104.6690935  65.7385506  45.7423782
 103.4926968  65.2689356  46.5714927 108.8114449  65.3908202  48.1922812
 108.1894458  64.7278907  47.8925040 109.4819316  65.4169334  47.5096459
 102.0441521  63.9568060  47.0814072 101.2073429  63.5290235  46.8998073
 102.0165166  64.1500504  48.0184863 108.8838976  53.8689990  57.7855318
 108.9327132  54.7452113  57.4033087 109.4261490  53.3267383  57.2126961
 119.3693822  64.4131113  57.0656455 118.5789366  64.3955252  56.5260954
 119.1327176  64.9519407  57.8205491 119.4891697  61.2623580  54.3789183
 119.5389702  61.0973587  55.3204706 119.3805620  60.3950839  53.9887064
 108.3727956  63.9412125  41.6681272 108.5216076  64.6247590  41.0147945
 109.1794399  63.9217215  42.1830728 116.7795459  57.2454508  55.6948490
 117.6805322  57.1060972  55.4032488 116.8543434  57.4108962  56.6346667
 111.1138265  54.6221362  54.5401676 110.2441574  54.9154928  54.2684265
 111.3497745  55.2061807  55.2608940 122.1905576  61.2473401  47.1433775
 123.0252467  61.6863205  47.3071335 122.3264705  60.7712054  46.3242021
 119.2397082  58.8053136  53.0911263 119.7151204  58.9980782  52.2830114
 118.3162647  58.8612322  52.8454647 106.1280589  59.9677303  42.6742341
 105.8826631  59.0639633  42.8722551 106.2976503  59.9694453  41.7321819
 113.8177298  50.8400979  52.0567097 114.3359242  51.5762006  51.7313585
 113.4632431  51.1464973  52.8913856 105.3976236  55.7005660  40.1728503
 104.7045481  55.7750015  39.5168539 105.1527988  54.9366004  40.6950020
 114.0689893  47.2601262  47.5767993 114.3491646  46.5924451  48.2028420
 114.8540500  47.4530357  47.0642657 111.8723361  66.4360256  39.1393020
 111.2997328  67.0550443  38.6863492 112.4456155  66.9859617  39.6732942
 117.9398751  55.6818896  51.3239568 118.8916174  55.7816993  51.3451792
 117.7702201  54.8897164  51.8337653 115.9613130  52.7674479  51.5098969
 115.3663063  53.0479492  50.8145458 115.6762827  53.2568380  52.2815710
 115.0920621  66.7197406  40.2701602 116.0251294  66.6542968  40.4734477
 115.0043834  67.5553673  39.8116135 117.7208638  66.0363276  37.2305549
 117.6422269  65.7023140  38.1241307 118.5418304  66.5285044  37.2297022
 120.4186829  58.9025016  50.4381868 120.3863149  57.9641016  50.6241552
 121.0287452  58.9809052  49.7047693 112.2570160  57.7721068  36.4809072
 113.2029264  57.6427277  36.5497490 111.8784405  57.0335730  36.9578500
 120.5681317  55.6936059  50.4840151 120.0520366  54.9094516  50.2970080
 121.4521266  55.3654776  50.6486671 118.2292044  49.4377075  46.4435964
 118.0316865  49.1292163  47.3279296 118.8391750  50.1638713  46.5733894
 126.2363379  59.9641022  49.5787905 126.9666767  59.7026310  50.1395608
 125.6270324  59.2269744  49.6189973 124.3178676  58.1048885  50.1762356
 123.5911839  57.9704850  49.5678848 123.9025963  58.4125714  50.9819074
 112.1408852  61.8238815  57.9409729 113.0611862  62.0017414  58.1349776
 112.1058435  60.8794860  57.7889428 110.4413077  55.6971045  36.4163957
 109.5344532  55.4004158  36.4926671 110.7189058  55.4000863  35.5498244
 101.3591017  57.0177408  46.8663004 101.0393801  56.1642716  46.5737378
 100.8124445  57.2325986  47.6220971 105.1370925  59.7339849  50.5832510
 105.3556934  60.6656957  50.6020544 105.5496699  59.3747824  51.3687314
 112.0575142  50.2407935  42.5708199 111.2475871  49.8955020  42.9463445
 112.7459559  49.9315478  43.1595810 113.9865691  49.3185981  44.1932495
 114.5396729  49.7381435  44.8522518 114.2235777  48.3921729  44.2355451
 110.0098790  55.3073055  59.9735259 109.9095517  56.2567412  59.9047350
 109.7920332  54.9791294  59.1011329 109.2111861  52.5557980  36.5575937
 110.0731025  52.8812878  36.8171754 109.3962206  51.7689476  36.0449002
 101.2279277  60.6380320  48.8356125 100.5342749  60.2234273  48.3226080
 101.9752268  60.6800856  48.2389544 117.3644498  51.4286507  43.7011160
 116.7843167  52.0871311  43.3189212 117.0980431  50.6063851  43.2898577
 115.8148064  50.8291564  45.9032480 116.3147843  50.9408099  45.0946799
 116.4583672  50.5252617  46.5433288 109.8730060  58.7370194  58.7900321
 109.3897142  59.5370554  58.9964210 109.9590999  58.7478139  57.8367765
 103.1416020  60.5698574  46.7122140 103.1186708  60.6686261  45.7604023
 103.4516656  61.4163724  47.0339306 105.8003398  62.6274729  50.8268755
 106.7546651  62.5958671  50.7598686 105.6015921  62.1665352  51.6418981
 106.3902780  61.1975845  53.3939552 107.2095669  61.6919923  53.4174390
 106.6639587  60.2807813  53.3657120 116.1469376  53.5886597  42.7567508
 115.2595231  53.8736248  42.5387703 116.5623365  53.4280360  41.9094785
 119.4983912  53.6133118  46.4721847 120.2744302  54.1029570  46.7446464
 118.7732046  54.0391172  46.9293717 121.9356471  54.3260737  47.5295788
 122.5300961  54.0856473  46.8189096 122.0083054  53.6067868  48.1569324
 104.1553626  68.1694348  47.8438953 104.0208094  67.4094749  47.2776951
 103.7385689  68.8935248  47.3767741 115.2912589  63.3531272  36.8515528
 115.9948439  63.5581274  37.4673183 114.5675238  63.9208033  37.1164611
 116.1210400  59.1041133  42.9717798 116.0645601  59.5609684  42.1325430
 116.6738742  58.3431817  42.7940641 119.9315206  54.8930865  43.7967917
 119.6752140  54.4927500  44.6276125 119.3068074  55.6074659  43.6718057
 124.2427543  57.6326938  46.3039209 123.6827101  57.7020127  47.0770771
 123.6371047  57.4567923  45.5838705 107.3122752  69.0663665  48.0557395
 107.1955136  70.0109098  47.9536085 106.4915198  68.7637227  48.4443194
 117.1999287  63.7913801  38.9013988 118.0344891  63.3594999  38.7191463
 117.0383630  63.6195814  39.8290882 116.8545179  60.2945914  40.2670327
 116.7993983  60.1290186  39.3258771 116.2291234  61.0021947  40.4232517
 101.6437694  55.5313978  54.0931749 102.2896558  55.0212932  54.5818975
 101.4354845  56.2682660  54.6675175 114.1691086  62.5994826  59.5923890
 115.0382246  62.7735478  59.2310525 113.6897838  63.4189243  59.4699619
 110.1641304  49.7954023  39.8455646 110.1519974  50.7395863  40.0023916
 111.0564726  49.6124169  39.5515107 108.3377266  69.7191927  51.2713324
 109.2404513  69.7515537  51.5879819 108.1114636  68.7892378  51.2859659
 110.0930868  68.4722914  47.9323402 109.1426499  68.4724775  47.8187775
 110.3963355  67.7255648  47.4159437 113.9793424  46.3896800  44.1001582
 113.2125820  45.8355286  44.2458265 114.3904129  46.4618669  44.9615734
 105.9835185  52.6781596  58.1906764 106.8466646  52.3218400  58.4010088
 105.4100596  52.3395490  58.8782168 122.6373268  74.2610880  48.9330689
 122.2991780  74.1451945  48.0451224 123.5063036  73.8602045  48.9131695
 118.4960084  76.1146356  44.9227580 117.9324949  76.0236293  44.1543868
 118.3812479  75.2946261  45.4030073 116.0424516  77.6097548  47.7611801
 116.8345808  77.2688373  47.3458100 116.2821166  77.7192523  48.6813954
 124.0759643  79.7817324  40.2342045 123.4247622  80.3671405  39.8476059
 124.8704005  80.3123519  40.2937083 118.0015270  76.8706461  40.6329180
 118.7746146  76.3235448  40.4942055 118.3540669  77.7350711  40.8443641
 120.7656519  75.5759692  50.4297438 121.3620091  75.3515714  49.7154401
 120.8231491  74.8344438  51.0322886 120.3381548  73.0299127  38.2647629
 120.5907068  72.5080649  37.5031092 119.4006107  72.8665273  38.3674313
 125.5534908  77.4707756  40.7711029 124.9180741  77.5442383  41.4831934
 125.2232314  78.0601355  40.0930109 130.7833257  71.9710139  46.9755351
 131.5158429  71.4009356  47.2093181 130.0272613  71.5831739  47.4161857
 120.0577836  74.9327233  40.4672004 119.9414094  74.2572137  41.1353089
 120.1680096  74.4459607  39.6504157 122.4009377  74.3937380  44.1718694
 122.0367584  73.8668001  44.8831615 123.2576493  74.0035850  43.9985179
 122.0414864  69.4227280  39.1680042 122.2089267  70.2907517  39.5350513
 121.8512033  69.5854562  38.2441331 118.2502679  74.3358056  46.8682577
 117.3253175  74.2034270  47.0760269 118.4987092  75.1152275  47.3652519
 122.0204085  71.8784938  40.1526709 121.9003710  72.3241988  40.9912189
 121.3256673  72.2270255  39.5940247 115.6111490  73.9791329  47.7026366
 115.7403871  74.2325808  48.6165778 114.9308941  74.5719037  47.3831021
 119.7810977  84.6488579  43.8016840 119.7035007  85.5996404  43.8805321
 119.1772621  84.3034452  44.4591767 127.7189151  72.3506411  40.9807043
 128.6307007  72.5833798  40.8054741 127.2098798  72.9343455  40.4182122
 126.3258734  77.3332229  48.3720624 125.6967596  77.4977943  47.6696692
 125.9384396  77.7473839  49.1431589 130.2047965  78.2686667  45.7264988
 129.5199004  78.6485568  45.1762022 130.2891815  78.8781994  46.4596936
 121.8786695  77.0706637  45.6370710 122.3425041  77.3494340  44.8475332
 121.6143493  76.1690082  45.4543800 118.7710776  76.6178119  48.5750473
 119.3412134  77.0465387  47.9367957 119.3618888  76.3360704  49.2734658
 120.8155581  73.1929790  42.4460275 121.5179625  73.6450833  42.9134201
 120.4836210  72.5513609  43.0740168 114.5580915  71.4513342  47.7477408
 113.7679969  71.7070871  47.2717519 115.0492163  72.2661680  47.8529449
 116.5095661  71.8157922  44.7060885 115.7126824  71.9276616  45.2244381
 116.2821253  72.1544574  43.8401775 112.8418618  71.7043833  50.1792399
 113.0926657  72.5890843  50.4449975 113.3778167  71.5248434  49.4067491
 136.6650718  75.1357330  46.8467661 135.9114426  74.5664728  46.6911665
 136.7998259  75.1019995  47.7938295 122.0549346  80.0070732  42.5222380
 121.9195021  80.8522268  42.9507228 122.5959159  80.2090010  41.7588314
 118.5416686  66.0862312  59.1836735 118.1483631  65.5328511  59.8584379
 119.3582826  66.3972891  59.5743253 115.5078743  77.5246170  43.0950305
 116.0203264  78.3189421  43.2455870 116.1601456  76.8272461  43.0283906
 117.3173628  80.6411927  45.1773058 117.4940256  81.5629891  44.9894042
 118.1130462  80.3270346  45.6067438 118.4404944  82.1590100  51.1783401
 118.9912369  82.0307164  50.4060394 117.6016420  82.4584989  50.8278293
 113.4727660  75.8534825  43.8709876 114.3102882  76.2631833  43.6543583
 113.6505928  74.9134267  43.8410069 125.3692092  73.5209905  39.5593709
 124.8538716  74.2914510  39.7982096 125.0969401  72.8475042  40.1826770
 122.9539203  68.3659606  44.6178947 122.0980800  67.9766457  44.4384586
 123.3666155  68.4451567  43.7578732 130.3426366  76.2742260  41.4946882
 129.5655809  75.9353419  41.0502044 131.0217847  76.2794883  40.8201847
 125.1578396  71.3936997  41.3853490 124.8528531  71.7083147  42.2363633
 126.1108838  71.4718417  41.4280823 123.6024827  77.5527221  43.0346444
 123.0746189  76.8179980  42.7219681 123.1012330  78.3301897  42.7886412
 128.5817673  75.7476241  48.1513490 127.9241348  76.4375503  48.2393619
 129.3858073  76.1372673  48.4947476 118.3343555  68.2146887  45.3953055
 118.9087307  67.9922069  44.6626248 118.9214537  68.2835582  46.1481656
 127.3923132  74.1020614  46.2017432 127.9055014  74.7350606  46.7039141
 128.0424356  73.5021809  45.8360792 118.6613142  70.2451348  39.4148940
 117.8250454  70.5826035  39.7358215 118.5217912  70.1100328  38.4776077
 120.6366223  65.0888136  44.1228125 119.9830635  64.7737153  43.4984739
 120.5946697  64.4663876  44.8487948 121.7477428  75.3707431  36.0381417
 120.8404489  75.1396684  36.2372566 122.2448460  74.5745050  36.2255398
 124.6545506  84.0804938  38.9578103 123.9807205  84.3836635  39.5663061
 125.0411328  84.8834019  38.6083560 124.6539011  72.9761485  43.5778453
 125.4010830  73.4882882  43.2685575 124.9230600  72.6545538  44.4382846
 122.9265661  75.4720026  40.5605407 122.0176880  75.1879059  40.6577877
 122.9560745  75.8919104  39.7008714 128.1584928  79.0826615  44.3296574
 127.7047256  78.2417525  44.3861765 127.5278895  79.7188014  44.6671355
 127.1017848  70.0118601  45.5597242 126.3640605  69.4995988  45.8907484
 127.3544621  69.5718983  44.7480519 126.6017868  80.9203112  45.2646392
 126.8940842  81.4808169  44.5458758 127.1116488  81.2131673  46.0199552
 127.2029475  62.7894853  46.1539011 127.5088352  61.9292217  45.8664926
 127.9282080  63.3812474  45.9538005 113.4953831  73.1925540  44.5420609
 113.2978231  72.5994901  43.8171676 112.9400495  72.8877750  45.2596548
 121.4750555  73.0848646  46.6615202 121.5299165  72.1322483  46.5857679
 120.6641757  73.2408086  47.1456501 122.6241749  77.0128770  37.8993485
 122.1861179  76.2964628  37.4399123 123.3652190  77.2404884  37.3378577
 119.4142915  71.7025706  44.4205581 118.6010780  72.0019877  44.8270773
 119.9101909  71.3081395  45.1380063 121.5651493  81.6983463  46.3539846
 121.5227672  81.9244309  45.4248378 122.4814192  81.4646838  46.5025647
 130.7414864  75.2885967  43.9569804 130.6032762  75.4787563  43.0290993
 130.3851082  76.0505349  44.4137855 130.7684243  77.3562494  48.9681075
 131.2020750  77.2637783  49.8164129 131.4815824  77.3319994  48.3301091
 119.6817294  78.5746492  46.1501808 120.4757892  78.0796812  45.9484383
 118.9708986  78.0464355  45.7869514 115.9900057  72.7189574  42.2261561
 115.0597645  72.6574029  42.4431523 116.0857529  72.1965527  41.4298202
 115.9085606  69.2444387  44.8139803 116.1692423  70.1589720  44.7048963
 116.7302778  68.7768829  44.9636416 131.6299793  77.3986194  51.5013961
 131.8235683  78.3032005  51.7473236 131.5300411  76.9393613  52.3352546
 122.2588570  79.1475514  49.8299646 122.1199655  78.7794299  50.7025584
 121.4703166  79.6623154  49.6583603 122.8536722  84.2484611  41.1725182
 123.0288477  83.7772654  41.9870805 122.1669510  84.8750377  41.4006443
 123.8093785  78.5257117  47.2188483 123.4743617  78.4857887  48.1146133
 123.3097730  77.8601833  46.7458894 126.7452976  75.8713151  37.4925543
 126.1282147  75.1459979  37.3958596 126.2769465  76.6322511  37.1492617
 118.5351522  70.0898576  36.6146847 117.6580989  69.9687376  36.2509094
 119.0109275  69.2984654  36.3625736 110.0553662  74.8775735  46.7088354
 110.7424702  74.5637465  46.1209370 109.9001791  75.7817100  46.4355606
 114.8588385  69.7665932  51.1373378 114.7746573  69.1591601  50.4023788
 114.0371091  70.2574950  51.1382874 121.9325669  83.2053096  50.3506546
 121.8595840  84.0108067  50.8625851 121.4903062  83.4045062  49.5254568
 121.7215448  82.4424866  43.8609368 120.9382970  82.9846546  43.9547592
 122.4208194  82.9598846  44.2603609 125.0312098  68.2519495  46.5043573
 125.5280798  67.4989458  46.1844643 124.2599080  68.2883812  45.9386782
 132.8841856  73.9559861  48.1461865 132.8731732  74.8384576  47.7755798
 132.0159235  73.6031412  47.9516402 126.1141879  77.0091183  44.0781997
 125.1798158  77.1292645  43.9086701 126.2918548  76.1063649  43.8142006
 121.6147067  70.3936878  46.2315258 121.2444855  69.8407919  46.9196163
 122.1106160  69.7895012  45.6790258 129.5014431  72.8508502  44.6132031
 129.9674883  73.6836493  44.5392333 129.9521931  72.3853483  45.3177289
 127.5690662  79.1952323  41.6118183 127.8450506  79.0808918  42.5212057
 126.6995160  78.7969808  41.5730356 124.2044726  83.4438674  45.2550996
 124.3867120  82.6260330  45.7178749 125.0277712  83.6606366  44.8175886
 124.5386891  82.3706859  42.5166045 125.0674658  81.8599314  41.9036207
 124.8015111  82.0549389  43.3811578 115.0403984  80.3870728  50.2601378
 115.6257421  79.6414416  50.3929283 114.8428822  80.6974685  51.1438042
 117.8942639  83.4221976  45.2763821 117.2253014  83.9068103  44.7927861
 117.7555509  83.6691196  46.1907199 109.6321639  72.9576329  48.9805822
 109.6705738  72.4239919  49.7742940 109.1261931  72.4311534  48.3616799
 117.0112401  67.8040869  52.4768364 117.0753727  68.6655700  52.0645762
 116.9479521  67.1914871  51.7440722 113.2630216  71.6840431  42.0559753
 113.5583657  70.7751109  42.0026807 112.3618252  71.6628170  41.7340755
 125.1716295  83.4047695  48.8610161 125.0467434  82.6037435  48.3521107
 125.8295386  83.8993888  48.3724131 116.7924463  69.7596427  48.0387301
 116.0711049  70.3732395  47.8994775 117.5817719  70.2954192  47.9603947
 119.5950777  67.0950854  54.3127953 120.1185178  67.3413150  55.0754263
 119.3763110  67.9270889  53.8931091 114.9918058  69.3654528  42.1799078
 114.6630764  68.4851907  41.9974184 115.3457428  69.3102197  43.0675467
 124.2397637  81.0009431  46.6894064 124.0922599  80.0726139  46.8701634
 125.0651130  81.0229522  46.2051139 118.1059881  69.6527498  42.5474556
 118.4455953  70.1813419  41.8253164 118.5532001  69.9907904  43.3233122
 127.8431758  81.8237990  47.7758936 128.7678306  81.6180851  47.6383387
 127.6747062  81.5754391  48.6848278 120.0928028  68.1502120  40.7467848
 120.8136391  68.5283373  40.2431565 119.4693332  68.8690997  40.8502826
 124.2359151  68.8547269  41.6826181 124.4522765  69.7371907  41.3815009
 123.7553218  68.4633482  40.9531823 118.9758372  71.8132982  48.2596925
 118.8302953  72.1273285  49.1521207 118.4983576  72.4317882  47.7067824
 127.6327075  82.3423657  43.1321028 127.8063952  81.7770080  42.3794880
 128.1255966  83.1424552  42.9500518 113.4504034  74.3538326  51.1984587
 112.9057503  75.1298134  51.3304861 114.3283384  74.7009131  51.0403708
 120.2391651  67.6849910  43.5765385 120.3607562  66.7566556  43.7756273
 119.9493693  67.6988596  42.6643701 133.4866466  75.1060080  44.7511328
 133.9297612  74.3567405  44.3530451 132.6092976  75.0970217  44.3685060
 128.6202247  81.6590422  40.2317926 129.3153152  82.2797114  40.4505241
 128.9625397  80.8085773  40.5070304 130.5193670  79.1090127  41.7605257
 131.0444994  79.4477400  41.0354577 130.4316023  78.1737143  41.5768391
 122.2034331  85.1762111  46.1200510 121.7639321  84.6838489  46.8133367
 122.9542448  84.6335078  45.8792585 119.6508203  80.7200120  48.1922812
 119.0288212  80.0570825  47.8925040 120.3213070  80.7461251  47.5096459
 119.2121710  79.2704043  41.6681272 119.3609830  79.9539507  41.0147945
 120.0188154  79.2509133  42.1830728 131.8303648  79.0112439  54.6231205
 131.5388457  79.3742419  55.4594666 131.2175779  78.2979447  54.4444537
 133.0299331  76.5765319  47.1433775 133.8646222  77.0155123  47.3071335
 133.1658459  76.1003972  46.3242021 116.9674343  75.2969221  42.6742341
 116.7220385  74.3931551  42.8722551 117.1370258  75.2986371  41.7321819
 116.2369991  71.0297578  40.1728503 115.5439236  71.1041933  39.5168539
 115.9921742  70.2657922  40.6950020 122.7117116  81.7652173  39.1393020
 122.1391083  82.3842361  38.6863492 123.2849909  82.3151535  39.6732942
 125.9314375  82.0489324  40.2701602 126.8645049  81.9834885  40.4734477
 125.8437588  82.8845590  39.8116135 128.5602392  81.3655194  37.2305549
 128.4816024  81.0315057  38.1241307 129.3812059  81.8576962  37.2297022
 131.2580583  74.2316933  50.4381868 131.2256903  73.2932934  50.6241552
 131.8681207  74.3100970  49.7047693 123.0963914  73.1012986  36.4809072
 124.0423019  72.9719194  36.5497490 122.7178159  72.3627648  36.9578500
 131.4075072  71.0227977  50.4840151 130.8914120  70.2386433  50.2970080
 132.2915020  70.6946693  50.6486671 129.0685799  64.7668992  46.4435964
 128.8710620  64.4584080  47.3279296 129.6785504  65.4930631  46.5733894
 137.0757133  75.2932940  49.5787905 137.8060522  75.0318228  50.1395608
 136.4664079  74.5561662  49.6189973 135.1572430  73.4340803  50.1762356
 134.4305594  73.2996768  49.5678848 134.7419717  73.7417631  50.9819074
 121.2806831  71.0262963  36.4163957 120.3738287  70.7296075  36.4926671
 121.5582812  70.7292781  35.5498244 112.1984772  72.3469326  46.8663004
 111.8787556  71.4934634  46.5737378 111.6518200  72.5617904  47.6220971
 115.9764679  75.0631767  50.5832510 116.1950689  75.9948875  50.6020544
 116.3890453  74.7039741  51.3687314 122.8968897  65.5699852  42.5708199
 122.0869625  65.2246937  42.9463445 123.5853314  65.2607396  43.1595810
 124.8259445  64.6477899  44.1932495 125.3790484  65.0673352  44.8522518
 125.0629532  63.7213647  44.2355451 120.0505616  67.8849898  36.5575937
 120.9124780  68.2104796  36.8171754 120.2355960  67.0981394  36.0449002
 112.0673032  75.9672237  48.8356125 111.3736503  75.5526190  48.3226080
 112.8146023  76.0092774  48.2389544 128.2038252  66.7578424  43.7011160
 127.6236921  67.4163228  43.3189212 127.9374185  65.9355769  43.2898577
 126.6541819  66.1583482  45.9032480 127.1541597  66.2700016  45.0946799
 127.2977427  65.8544535  46.5433288 113.9809774  75.8990491  46.7122140
 113.9580462  75.9978178  45.7604023 114.2910411  76.7455642  47.0339306
 116.6397152  77.9566646  50.8268755 117.5940406  77.9250589  50.7598686
 116.4409676  77.4957270  51.6418981 117.2296534  76.5267762  53.3939552
 118.0489423  77.0211841  53.4174390 117.5033342  75.6099730  53.3657120
 126.9863130  68.9178515  42.7567508 126.0988985  69.2028165  42.5387703
 127.4017119  68.7572278  41.9094785 130.3377667  68.9425036  46.4721847
 131.1138057  69.4321488  46.7446464 129.6125801  69.3683090  46.9293717
 132.7750225  69.6552655  47.5295788 133.3694716  69.4148391  46.8189096
 132.8476809  68.9359785  48.1569324 126.1306344  78.6823189  36.8515528
 126.8342194  78.8873192  37.4673183 125.4068993  79.2499951  37.1164611
 126.9604154  74.4333051  42.9717798 126.9039356  74.8901602  42.1325430
 127.5132497  73.6723735  42.7940641 130.7708960  70.2222782  43.7967917
 130.5145894  69.8219418  44.6276125 130.1461828  70.9366576  43.6718057
 135.0821298  72.9618856  46.3039209 134.5220856  73.0312045  47.0770771
 134.4764801  72.7859840  45.5838705 128.0393041  79.1205718  38.9013988
 128.8738645  78.6886917  38.7191463 127.8777384  78.9487732  39.8290882
 127.6938933  75.6237832  40.2670327 127.6387737  75.4582103  39.3258771
 127.0684989  76.3313865  40.4232517 112.4831448  70.8605896  54.0931749
 113.1290312  70.3504850  54.5818975 112.2748600  71.5974578  54.6675175
 121.0035059  65.1245941  39.8455646 120.9913729  66.0687781  40.0023916
 121.8958481  64.9416086  39.5515107 120.9324623  83.8014831  47.9323402
 119.9820254  83.8016693  47.8187775 121.2357109  83.0547566  47.4159437
 124.8187178  61.7188717  44.1001582 124.0519574  61.1647204  44.2458265
 125.2297883  61.7910586  44.9615734 116.8228939  68.0073513  58.1906764
 117.6860401  67.6510318  58.4010088 116.2494350  67.6687408  58.8782168
 136.6677316  89.6375370  48.9969165 137.3055726  89.5182117  48.2932505
 136.5498159  90.5856214  49.0557117 133.4767023  89.5902798  48.9330689
 133.1385534  89.4743862  48.0451224 134.3456791  89.1893963  48.9131695
 129.3353838  91.4438274  44.9227580 128.7718703  91.3528211  44.1543868
 129.2206233  90.6238179  45.4030073 133.9586806  90.7437649  54.8916895
 133.9475446  90.3490448  54.0197399 134.1207445  90.0103722  55.4850666
 126.8818270  92.9389466  47.7611801 127.6739562  92.5980290  47.3458100
 127.1214920  93.0484441  48.6813954 134.9153397  95.1109242  40.2342045
 134.2641377  95.6963322  39.8476059 135.7097760  95.6415437  40.2937083
 128.8409024  92.1998379  40.6329180 129.6139900  91.6527366  40.4942055
 129.1934423  93.0642628  40.8443641 130.6794067  93.5274761  53.8396079
 130.3883933  94.4320392  53.7242745 131.3151051  93.5691289  54.5540148
 131.6050274  90.9051610  50.4297438 132.2013846  90.6807632  49.7154401
 131.6625245  90.1636355  51.0322886 131.1775302  88.3591045  38.2647629
 131.4300823  87.8372566  37.5031092 130.2399861  88.1957191  38.3674313
 136.2218585  87.3626823  46.0722373 137.0081674  86.9446247  45.7212790
 136.4857289  88.2672916  46.2404021 136.3928662  92.7999674  40.7711029
 135.7574495  92.8734300  41.4831934 136.0626069  93.3893273  40.0930109
 141.6227012  87.3002057  46.9755351 142.3552184  86.7301273  47.2093181
 140.8666368  86.9123657  47.4161857 130.8971591  90.2619151  40.4672004
 130.7807849  89.5864054  41.1353089 131.0073851  89.7751525  39.6504157
 133.2403132  89.7229298  44.1718694 132.8761339  89.1959919  44.8831615
 134.0970248  89.3327767  43.9985179 139.1452432  81.0123631  51.4349960
 138.8135757  81.8819042  51.2111175 138.5498046  80.6959915  52.1143990
 132.8808619  84.7519198  39.1680042 133.0483021  85.6199434  39.5350513
 132.6905788  84.9146480  38.2441331 135.6383952  93.2136177  50.8345873
 135.3384675  94.1161216  50.7261680 135.2935011  92.9468360  51.6867025
 129.0896433  89.6649974  46.8682577 128.1646930  89.5326188  47.0760269
 129.3380847  90.4444193  47.3652519 139.0381096  85.7318717  48.5143310
 138.1297973  85.6634125  48.2202071 138.9868691  86.2090662  49.3425135
 132.8597840  87.2076855  40.1526709 132.7397465  87.6533906  40.9912189
 132.1650428  87.5562173  39.5940247 126.4505244  89.3083247  47.7026366
 126.5797626  89.5617726  48.6165778 125.7702696  89.9010955  47.3831021
 130.6204732  99.9780497  43.8016840 130.5428761 100.9288322  43.8805321
 130.0166375  99.6326370  44.4591767 140.9042742  83.9335155  50.2921184
 140.2617122  84.2267688  49.6460978 140.3997671  83.8188076  51.0974380
 138.5582906  87.6798329  40.9807043 139.4700762  87.9125715  40.8054741
 138.0492553  88.2635373  40.4182122 136.8423673  92.1022956  54.6168336
 137.2507029  91.6605367  53.8722968 136.1200935  91.5275584  54.8702528
 133.1954743  87.0395563  51.9901893 134.0415939  87.4634977  52.1336542
 133.1353381  86.3829187  52.6840456 137.1652488  92.6624147  48.3720624
 136.5361350  92.8269861  47.6696692 136.7778150  93.0765757  49.1431589
 141.0441720  93.5978585  45.7264988 140.3592758  93.9777486  45.1762022
 141.1285569  94.2073911  46.4596936 136.3454189  84.6999931  53.6483066
 136.1015121  85.4541992  53.1117342 136.6214119  85.0785279  54.4830313
 138.2992652  91.2438544  52.3260332 138.5109547  91.8870304  51.6494713
 138.2522400  90.4100860  51.8582262 135.9018880  83.8556364  49.2296904
 135.0403359  84.1537618  49.5213641 135.9281315  84.0726763  48.2977937
 132.7180450  92.3998555  45.6370710 133.1818795  92.6786258  44.8475332
 132.4537248  91.4982000  45.4543800 129.6104531  91.9470037  48.5750473
 130.1805888  92.3757305  47.9367957 130.2012643  91.6652621  49.2734658
 131.6549336  88.5221707  42.4460275 132.3573379  88.9742751  42.9134201
 131.3229964  87.8805526  43.0740168 125.3974670  86.7805260  47.7477408
 124.6073724  87.0362789  47.2717519 125.8885917  87.5953598  47.8529449
 139.4138479  94.1210499  50.4982689 140.2355923  93.7190687  50.2165371
 139.4100882  94.0178733  51.4498805 127.3489415  87.1449839  44.7060885
 126.5520579  87.2568534  45.2244381 127.1215007  87.4836492  43.8401775
 133.1795083  93.6694543  52.6543400 133.2439515  94.1314950  53.4901571
 132.4706007  93.0391907  52.7825709 147.5044473  90.4649248  46.8467661
 146.7508181  89.8956646  46.6911665 147.6392014  90.4311912  47.7938295
 132.8943101  95.3362650  42.5222380 132.7588775  96.1814186  42.9507228
 133.4352913  95.5381928  41.7588314 126.3472498  92.8538088  43.0950305
 126.8597019  93.6481338  43.2455870 126.9995211  92.1564379  43.0283906
 128.1567383  95.9703844  45.1773058 128.3334011  96.8921809  44.9894042
 128.9524216  95.6562264  45.6067438 134.5211577  95.9586217  56.6522722
 134.0775431  95.1722595  56.3343627 135.1828791  96.1465367  55.9866613
 129.2798698  97.4882018  51.1783401 129.8306123  97.3599081  50.4060394
 128.4410174  97.7876907  50.8278293 136.6192815  96.2389016  54.6804123
 136.6011290  97.0597898  54.1884392 137.5412735  96.1143092  54.9054264
 133.0765869  93.7533146  55.5227632 133.6094206  92.9921434  55.2926940
 132.5479950  93.4606798  56.2651786 136.2435564  78.8593212  51.0521273
 135.8999834  79.7494854  50.9760384 136.6114527  78.6694870  50.1890858
 124.3121415  91.1826742  43.8709876 125.1496637  91.5923751  43.6543583
 124.4899682  90.2426185  43.8410069 136.2085847  88.8501823  39.5593709
 135.6932470  89.6206428  39.7982096 135.9363155  88.1766959  40.1826770
 133.7932958  83.6951524  44.6178947 132.9374554  83.3058374  44.4384586
 134.2059910  83.7743485  43.7578732 135.3232105  81.2297867  49.0170507
 134.8196900  81.1928002  48.2038312 135.6162711  82.1390610  49.0767163
 131.5674990  81.3136597  48.0236688 132.4327987  81.1179405  47.6642578
 131.6352499  81.0846949  48.9506045 141.1820121  91.6034178  41.4946882
 140.4049564  91.2645337  41.0502044 141.8611602  91.6086801  40.8201847
 135.9972150  86.7228915  41.3853490 135.6922286  87.0375064  42.2363633
 136.9502592  86.8010335  41.4280823 134.4418582  92.8819138  43.0346444
 133.9139943  92.1471898  42.7219681 133.9406085  93.6593815  42.7886412
 139.4211428  91.0768159  48.1513490 138.7635102  91.7667420  48.2393619
 140.2251827  91.4664591  48.4947476 129.1737309  83.5438805  45.3953055
 129.7481061  83.3213986  44.6626248 129.7608292  83.6127499  46.1481656
 138.2316887  89.4312532  46.2017432 138.7448768  90.0642523  46.7039141
 138.8818111  88.8313727  45.8360792 129.5006897  85.5743266  39.4148940
 128.6644209  85.9117952  39.7358215 129.3611666  85.4392246  38.4776077
 131.4759977  80.4180054  44.1228125 130.8224390  80.1029071  43.4984739
 131.4340451  79.7955794  44.8487948 132.5871182  90.6999349  36.0381417
 131.6798244  90.4688602  36.2372566 133.0842214  89.9036968  36.2255398
 135.4939261  99.4096856  38.9578103 134.8200960  99.7128553  39.5663061
 135.8805083 100.2125936  38.6083560 134.7097718  86.9061987  48.4475772
 133.7920279  87.1276934  48.2897460 135.1257861  86.9808298  47.5887480
 135.4932765  88.3053403  43.5778453 136.2404584  88.8174800  43.2685575
 135.7624355  87.9837456  44.4382846 133.7659415  90.8011944  40.5605407
 132.8570635  90.5170976  40.6577877 133.7954499  91.2211022  39.7008714
 138.9978683  94.4118533  44.3296574 138.5441010  93.5709443  44.3861765
 138.3672650  95.0479931  44.6671355 137.9411602  85.3410519  45.5597242
 137.2034359  84.8287905  45.8907484 138.1938376  84.9010901  44.7480519
 137.4411622  96.2495030  45.2646392 137.7334597  96.8100087  44.5458758
 137.9510243  96.5423591  46.0199552 138.0423230  78.1186771  46.1539011
 138.3482107  77.2584135  45.8664926 138.7675835  78.7104391  45.9538005
 124.3347586  88.5217458  44.5420609 124.1371986  87.9286818  43.8171676
 123.7794250  88.2169668  45.2596548 132.3144310  88.4140564  46.6615202
 132.3692919  87.4614401  46.5857679 131.5035512  88.5700003  47.1456501
 133.4635503  92.3420687  37.8993485 133.0254933  91.6256546  37.4399123
 134.2045944  92.5696802  37.3378577 130.2536669  87.0317624  44.4205581
 129.4404535  87.3311794  44.8270773 130.7495664  86.6373313  45.1380063
 132.4045247  97.0275381  46.3539846 132.3621426  97.2536227  45.4248378
 133.3207946  96.7938755  46.5025647 135.8510881  87.4959448  53.2520475
 136.2060269  87.7230922  54.1114941 136.4983012  87.8277825  52.6297730
 141.5808618  90.6177884  43.9569804 141.4426517  90.8079480  43.0290993
 141.2244837  91.3797267  44.4137855 129.7450744  84.6035979  50.0366816
 130.3850124  84.4624739  49.3389779 128.9128275  84.3170493  49.6605418
 141.6077998  92.6854411  48.9681075 142.0414504  92.5929700  49.8164129
 142.3209578  92.6611912  48.3301091 130.5211048  93.9038410  46.1501808
 131.3151647  93.4088730  45.9484383 129.8102740  93.3756273  45.7869514
 135.3405893  96.2856505  50.5014176 135.3942915  96.8547442  51.2691892
 134.4720674  96.4558390  50.1368213 126.8293812  88.0481492  42.2261561
 125.8991400  87.9865947  42.4431523 126.9251284  87.5257444  41.4298202
 126.7479361  84.5736304  44.8139803 127.0086178  85.4881638  44.7048963
 127.5696533  84.1060747  44.9636416 128.2204286  85.9874062  51.9838627
 128.8927339  85.7791424  51.3351276 127.3934072  85.7896148  51.5443860
 142.4693547  92.7278112  51.5013961 142.6629437  93.6323922  51.7473236
 142.3694165  92.2685531  52.3352546 134.1229858  82.6136003  54.0004288
 133.4757773  83.3125952  53.9068765 134.8930873  83.0472146  54.3680536
 137.5308656  92.8784855  57.0754841 137.3794162  92.6495406  56.1584925
 137.5213335  93.8355456  57.0886186 134.2993992  90.4516767  52.0601108
 135.2286052  90.6027927  51.8870075 133.8785022  90.5400788  51.2049754
 133.0982324  94.4767432  49.8299646 132.9593410  94.1086216  50.7025584
 132.3096920  94.9915071  49.6583603 133.6930476  99.5776528  41.1725182
 133.8682232  99.1064572  41.9870805 133.0063264 100.2042295  41.4006443
 134.6487539  93.8549035  47.2188483 134.3137372  93.8149805  48.1146133
 134.1491485  93.1893750  46.7458894 128.6231783  89.2616665  52.7441064
 128.4851581  88.5296903  53.3452604 129.5336707  89.1725565  52.4625252
 137.5846731  91.2005069  37.4925543 136.9675902  90.4751897  37.3958596
 137.1163219  91.9614429  37.1492617 131.2514084  88.9736624  52.2324744
 131.9613702  88.3329816  52.1911363 131.2083392  89.2249519  53.1550925
 139.2400863  95.9103977  55.1531323 139.1813409  95.2263197  54.4861906
 139.6420381  96.6522967  54.7011949 129.9643018  85.9601842  54.0520384
 129.4280375  85.5092580  54.7041980 129.3759726  86.0947751  53.3090848
 128.2591561 102.7265891  47.9465042 128.4988160 103.3584415  48.6244061
 127.4160758 102.3753931  48.2330401 129.3745277  85.4190493  36.6146847
 128.4974743  85.2979294  36.2509094 129.8503030  84.6276571  36.3625736
 139.2418270  93.8743561  53.3845303 138.3545049  93.5369483  53.5071702
 139.8116821  93.1426592  53.6214068 120.8947417  90.2067653  46.7088354
 121.5818457  89.8929383  46.1209370 120.7395546  91.1109018  46.4355606
 125.6982139  85.0957849  51.1373378 125.6140328  84.4883519  50.4023788
 124.8764845  85.5866868  51.1382874 132.7719423  98.5345014  50.3506546
 132.6989595  99.3399985  50.8625851 132.3296816  98.7336979  49.5254568
 132.5609203  97.7716784  43.8609368 131.7776725  98.3138464  43.9547592
 133.2601948  98.2890763  44.2603609 135.8705853  83.5811413  46.5043573
 136.3674552  82.8281375  46.1844643 135.0992834  83.6175730  45.9386782
 143.7235610  89.2851779  48.1461865 143.7125487  90.1676494  47.7755798
 142.8552990  88.9323329  47.9516402 135.2318107  98.4331848  52.5064705
 135.9446079  99.0679312  52.4340606 134.7408135  98.5295714  51.6904707
 136.9535634  92.3383100  44.0781997 136.0191912  92.4584563  43.9086701
 137.1312302  91.4355567  43.8142006 132.4540822  85.7228796  46.2315258
 132.0838609  85.1699836  46.9196163 132.9499914  85.1186929  45.6790258
 140.3408185  88.1800420  44.6132031 140.8068637  89.0128411  44.5392333
 140.7915685  87.7145401  45.3177289 130.2830020  96.1826291  53.3270276
 130.9839480  96.8162774  53.4799670 129.8125135  96.5241023  52.5665915
 138.4084416  94.5244241  41.6118183 138.6844260  94.4100835  42.5212057
 137.5388915  94.1261726  41.5730356 138.3124848  80.5481006  48.6522932
 137.3987928  80.7785233  48.8205139 138.7417949  80.6319451  49.5036964
 138.0831306  88.7370898  51.1522826 137.4302756  88.9846806  50.4975279
 138.4611686  87.9235037  50.8185303 135.0438480  98.7730592  45.2550996
 135.2260875  97.9552248  45.7178749 135.8671466  98.9898284  44.8175886
 135.3780646  97.6998777  42.5166045 135.9068412  97.1891231  41.9036207
 135.6408865  97.3841307  43.3811578 134.1318879  89.4790710  57.6388863
 133.4559516  89.3784839  58.3091238 134.9546513  89.3229923  58.1024860
 125.8797738  95.7162646  50.2601378 126.4651175  94.9706334  50.3929283
 125.6822577  96.0266603  51.1438042 128.7336394  98.7513893  45.2763821
 128.0646769  99.2360021  44.7927861 128.5949263  98.9983114  46.1907199
 132.8741662 100.7857637  51.8746479 133.4259970 100.9489258  52.6395564
 133.2147856 101.3762075  51.2026504 137.7252536  95.6118894  57.7295134
 138.2692440  96.2248853  57.2350088 137.1439381  96.1698473  58.2462147
 124.1023971  87.0132348  42.0559753 124.3977412  86.1043027  42.0026807
 123.2012006  86.9920088  41.7340755 136.0110049  98.7339612  48.8610161
 135.8861189  97.9329352  48.3521107 136.6689141  99.2285806  48.3724131
 127.6318218  85.0888345  48.0387301 126.9104803  85.7024313  47.8994775
 128.4211473  85.6246110  47.9603947 138.0744958  96.5348633  50.4889711
 137.1275293  96.4153984  50.4168038 138.4227731  95.6471131  50.5715973
 130.4344531  82.4242772  54.3127953 130.9578933  82.6705068  55.0754263
 130.2156864  83.2562806  53.8931091 125.8311812  84.6946446  42.1799078
 125.5024518  83.8143825  41.9974184 126.1851183  84.6394115  43.0675467
 135.0791391  96.3301349  46.6894064 134.9316354  95.4018056  46.8701634
 135.9044885  96.3521440  46.2051139 128.9453635  84.9819416  42.5474556
 129.2849708  85.5105337  41.8253164 129.3925756  85.3199822  43.3233122
 138.6825513  97.1529908  47.7758936 139.6072060  96.9472769  47.6383387
 138.5140816  96.9046309  48.6848278 131.6397076  83.3656467  51.9977624
 131.2993897  82.5664280  52.3998304 130.9336082  83.6658177  51.4254457
 132.2913548  80.4505779  50.4504947 133.1139617  79.9766257  50.3283837
 132.5351612  81.2296263  50.9503633 130.9321783  83.4794037  40.7467848
 131.6530145  83.8575290  40.2431565 130.3087087  84.1982914  40.8502826
 135.0752905  84.1839186  41.6826181 135.2916520  85.0663824  41.3815009
 134.5946973  83.7925400  40.9531823 129.8152127  87.1424900  48.2596925
 129.6696708  87.4565203  49.1521207 129.3377330  87.7609800  47.7067824
 131.6748510  84.1327448  48.3077815 131.6610078  83.2368541  47.9710113
 132.3920938  84.1398111  48.9416101 133.5274640  84.5664788  50.3530942
 133.2692418  85.4881859  50.3515273 132.9959681  84.1695222  51.0431407
 138.4720829  97.6715575  43.1321028 138.6457707  97.1061997  42.3794880
 138.9649720  98.4716470  42.9500518 131.0785406  83.0141828  43.5765385
 131.2001317  82.0858474  43.7756273 130.7887448  83.0280514  42.6643701
 133.9476596  80.6996738  46.7132105 133.9698293  80.7636071  45.7584085
 134.3644655  79.8601247  46.9072611 144.3260220  90.4351998  44.7511328
 144.7691366  89.6859323  44.3530451 143.4486731  90.4262134  44.3685060
 139.4596002  96.9882339  40.2317926 140.1546906  97.6089032  40.4505241
 139.8019152  96.1377691  40.5070304 141.3587425  94.4382045  41.7605257
 141.8838749  94.7769318  41.0354577 141.2709777  93.5029060  41.5768391
 133.0207473  98.3516119  53.8895133 133.3294600  98.1065265  54.7617833
 133.8182955  98.5562757  53.4014004 133.0428086 100.5054028  46.1200510
 132.6033076 100.0130407  46.8133367 133.7936202  99.9626996  45.8792585
 125.5220424  96.6965569  46.1225138 126.3478444  96.3969341  45.7423782
 125.1714476  95.9273191  46.5714927 130.4901958  96.0492037  48.1922812
 129.8681967  95.3862742  47.8925040 131.1606825  96.0753169  47.5096459
 123.7229030  94.6151896  47.0814072 122.8860938  94.1874070  46.8998073
 123.6952675  94.8084339  48.0184863 141.0481331  95.0714949  57.0656455
 140.2576875  95.0539087  56.5260954 140.8114685  95.6103242  57.8205491
 141.1679206  91.9207415  54.3789183 141.2177211  91.7557422  55.3204706
 141.0593129  91.0534674  53.9887064 130.0515465  94.5995961  41.6681272
 130.2003585  95.2831425  41.0147945 130.8581908  94.5801051  42.1830728
 138.4582968  87.9038343  55.6948490 139.3592831  87.7644808  55.4032488
 138.5330943  88.0692798  56.6346667 132.7925774  85.2805198  54.5401676
 131.9229083  85.5738764  54.2684265 133.0285254  85.8645643  55.2608940
 142.6697403  94.3404356  54.6231205 142.3782211  94.7034337  55.4594666
 142.0569534  93.6271365  54.4444537 143.8693085  91.9057236  47.1433775
 144.7039976  92.3447040  47.3071335 144.0052214  91.4295889  46.3242021
 140.9184591  89.4636971  53.0911263 141.3938713  89.6564617  52.2830114
 139.9950156  89.5196157  52.8454647 127.8068098  90.6261138  42.6742341
 127.5614139  89.7223468  42.8722551 127.9764012  90.6278289  41.7321819
 135.4964807  81.4984815  52.0567097 136.0146751  82.2345842  51.7313585
 135.1419940  81.8048808  52.8913856 127.0763745  86.3589496  40.1728503
 126.3832990  86.4333851  39.5168539 126.8315497  85.5949839  40.6950020
 135.7477402  77.9185097  47.5767993 136.0279155  77.2508286  48.2028420
 136.5328009  78.1114193  47.0642657 133.5510870  97.0944091  39.1393020
 132.9784837  97.7134278  38.6863492 134.1243664  97.6443453  39.6732942
 139.6186260  86.3402731  51.3239568 140.5703683  86.4400829  51.3451792
 139.4489710  85.5481000  51.8337653 137.6400639  83.4258314  51.5098969
 137.0450572  83.7063327  50.8145458 137.3550336  83.9152215  52.2815710
 136.7708130  97.3781241  40.2701602 137.7038803  97.3126803  40.4734477
 136.6831343  98.2137508  39.8116135 139.3996147  96.6947112  37.2305549
 139.3209778  96.3606975  38.1241307 140.2205813  97.1868879  37.2297022
 142.0974338  89.5608851  50.4381868 142.0650658  88.6224852  50.6241552
 142.7074961  89.6392888  49.7047693 133.9357669  88.4304904  36.4809072
 134.8816773  88.3011112  36.5497490 133.5571914  87.6919566  36.9578500
 142.2468826  86.3519894  50.4840151 141.7307875  85.5678351  50.2970080
 143.1308775  86.0238611  50.6486671 139.9079553  80.0960910  46.4435964
 139.7104374  79.7875998  47.3279296 140.5179259  80.8222549  46.5733894
 145.9966185  88.7632720  50.1762356 145.2699348  88.6288685  49.5678848
 145.5813472  89.0709549  50.9819074 133.8196361  92.4822650  57.9409729
 134.7399371  92.6601249  58.1349776 133.7845944  91.5378695  57.7889428
 132.1200586  86.3554880  36.4163957 131.2132041  86.0587993  36.4926671
 132.3976567  86.0584698  35.5498244 123.0378526  87.6761244  46.8663004
 122.7181310  86.8226552  46.5737378 122.4911954  87.8909822  47.6220971
 126.8158434  90.3923685  50.5832510 127.0344443  91.3240792  50.6020544
 127.2284207  90.0331659  51.3687314 133.7362651  80.8991770  42.5708199
 132.9263380  80.5538855  42.9463445 134.4247068  80.5899314  43.1595810
 135.6653200  79.9769817  44.1932495 136.2184238  80.3965270  44.8522518
 135.9023286  79.0505565  44.2355451 130.8899370  83.2141815  36.5575937
 131.7518534  83.5396714  36.8171754 131.0749715  82.4273311  36.0449002
 122.9066786  91.2964155  48.8356125 122.2130258  90.8818108  48.3226080
 123.6539777  91.3384692  48.2389544 139.0432007  82.0870342  43.7011160
 138.4630676  82.7455146  43.3189212 138.7767940  81.2647686  43.2898577
 137.4935573  81.4875400  45.9032480 137.9935352  81.5991934  45.0946799
 138.1371181  81.1836452  46.5433288 124.8203529  91.2282409  46.7122140
 124.7974217  91.3270096  45.7604023 125.1304165  92.0747560  47.0339306
 127.4790907  93.2858564  50.8268755 128.4334160  93.2542506  50.7598686
 127.2803430  92.8249188  51.6418981 128.0690289  91.8559680  53.3939552
 128.8883178  92.3503759  53.4174390 128.3427096  90.9391648  53.3657120
 137.8256885  84.2470432  42.7567508 136.9382740  84.5320083  42.5387703
 138.2410874  84.0864196  41.9094785 141.1771421  84.2716953  46.4721847
 141.9531811  84.7613406  46.7446464 140.4519555  84.6975007  46.9293717
 143.6143980  84.9844572  47.5295788 144.2088470  84.7440308  46.8189096
 143.6870563  84.2651703  48.1569324 125.8341135  98.8278183  47.8438953
 125.6995603  98.0678584  47.2776951 125.4173198  99.5519083  47.3767741
 136.9700098  94.0115107  36.8515528 137.6735948  94.2165109  37.4673183
 136.2462747  94.5791869  37.1164611 137.7997909  89.7624968  42.9717798
 137.7433110  90.2193520  42.1325430 138.3526251  89.0015653  42.7940641
 141.6102715  85.5514700  43.7967917 141.3539649  85.1511336  44.6276125
 140.9855583  86.2658494  43.6718057 145.9215052  88.2910773  46.3039209
 145.3614610  88.3603963  47.0770771 145.3158556  88.1151758  45.5838705
 128.9910261  99.7247500  48.0557395 128.8742645 100.6692933  47.9536085
 128.1702707  99.4221062  48.4443194 138.8786796  94.4497636  38.9013988
 139.7132400  94.0178835  38.7191463 138.7171139  94.2779650  39.8290882
 138.5332688  90.9529749  40.2670327 138.4781492  90.7874021  39.3258771
 137.9078743  91.6605782  40.4232517 135.8478595  93.2578661  59.5923890
 136.7169755  93.4319314  59.2310525 135.3685347  94.0773078  59.4699619
 131.8428813  80.4537858  39.8455646 131.8307483  81.3979698  40.0023916
 132.7352235  80.2708004  39.5515107 130.0164775 100.3775762  51.2713324
 130.9192022 100.4099373  51.5879819 129.7902145  99.4476213  51.2859659
 131.7718377  99.1306749  47.9323402 130.8214008  99.1308610  47.8187775
 132.0750863  98.3839483  47.4159437 135.6580933  77.0480635  44.1001582
 134.8913329  76.4939122  44.2458265 136.0691638  77.1202504  44.9615734
 144.3160777 104.9194715  48.9330689 143.9779289 104.8035780  48.0451224
 145.1850545 104.5185880  48.9131695 140.1747593 106.7730192  44.9227580
 139.6112458 106.6820129  44.1543868 140.0599988 105.9530096  45.4030073
 144.7980560 106.0729567  54.8916895 144.7869201 105.6782365  54.0197399
 144.9601200 105.3395640  55.4850666 137.7212025 108.2681383  47.7611801
 138.5133317 107.9272208  47.3458100 137.9608675 108.3776358  48.6813954
 145.7547152 110.4401159  40.2342045 145.1035131 111.0255240  39.8476059
 146.5491514 110.9707354  40.2937083 139.6802779 107.5290297  40.6329180
 140.4533655 106.9819284  40.4942055 140.0328178 108.3934546  40.8443641
 141.5187821 108.8566679  53.8396079 141.2277687 109.7612310  53.7242745
 142.1544806 108.8983207  54.5540148 142.4444028 106.2343527  50.4297438
 143.0407600 106.0099550  49.7154401 142.5019000 105.4928273  51.0322886
 142.0169057 103.6882963  38.2647629 142.2694577 103.1664484  37.5031092
 141.0793616 103.5249108  38.3674313 147.0612339 102.6918741  46.0722373
 147.8475429 102.2738164  45.7212790 147.3251044 103.5964833  46.2404021
 147.2322417 108.1291591  40.7711029 146.5968250 108.2026218  41.4831934
 146.9019823 108.7185190  40.0930109 141.7365345 105.5911069  40.4672004
 141.6201603 104.9155972  41.1353089 141.8467605 105.1043443  39.6504157
 144.0796886 105.0521216  44.1718694 143.7155093 104.5251837  44.8831615
 144.9364002 104.6619685  43.9985179 143.7202373 100.0811115  39.1680042
 143.8876775 100.9491352  39.5350513 143.5299542 100.2438397  38.2441331
 146.4777706 108.5428094  50.8345873 146.1778429 109.4453133  50.7261680
 146.1328766 108.2760278  51.6867025 139.9290188 104.9941891  46.8682577
 139.0040684 104.8618105  47.0760269 140.1774601 105.7736110  47.3652519
 143.6991594 102.5368773  40.1526709 143.5791219 102.9825824  40.9912189
 143.0044182 102.8854091  39.5940247 137.2898999 104.6375165  47.7026366
 137.4191380 104.8909644  48.6165778 136.6096450 105.2302873  47.3831021
 141.4598486 115.3072415  43.8016840 141.3822516 116.2580240  43.8805321
 140.8560130 114.9618287  44.4591767 143.9515716 102.4800280  56.4578207
 143.1749050 103.0394200  56.4481072 144.5906279 102.9657063  56.9793077
 142.2062088 105.2885734  56.0196174 142.9476773 105.8270778  55.7430998
 141.4999074 105.9152022  56.1767726 144.0348498 102.3687481  51.9901893
 144.8809693 102.7926894  52.1336542 143.9747136 101.7121105  52.6840456
 147.1847943 100.0291849  53.6483066 146.9408875 100.7833910  53.1117342
 147.4607874 100.4077197  54.4830313 146.7412635  99.1848282  49.2296904
 145.8797114  99.4829536  49.5213641 146.7675070  99.4018681  48.2977937
 143.5574204 107.7290473  45.6370710 144.0212550 108.0078176  44.8475332
 143.2931002 106.8273917  45.4543800 140.4498285 107.2761954  48.5750473
 141.0199642 107.7049223  47.9367957 141.0406397 106.9944539  49.2734658
 142.4943090 103.8513625  42.4460275 143.1967134 104.3034669  42.9134201
 142.1623719 103.2097444  43.0740168 140.9423452 102.4425382  56.8211484
 140.3122113 103.1241663  57.0546881 140.8359540 102.3308463  55.8764622
 136.2368424 102.1097178  47.7477408 135.4467478 102.3654706  47.2717519
 136.7279672 102.9245516  47.8529449 138.1883170 102.4741757  44.7060885
 137.3914333 102.5860451  45.2244381 137.9608762 102.8128409  43.8401775
 144.0188837 108.9986460  52.6543400 144.0833270 109.4606867  53.4901571
 143.3099761 108.3683825  52.7825709 134.5206127 102.3627668  50.1792399
 134.7714166 103.2474678  50.4449975 135.0565676 102.1832270  49.4067491
 143.7336855 110.6654568  42.5222380 143.5982530 111.5106103  42.9507228
 144.2746668 110.8673845  41.7588314 140.2204195  96.7446148  59.1836735
 139.8271140  96.1912346  59.8584379 141.0370335  97.0556726  59.5743253
 137.1866252 108.1830006  43.0950305 137.6990773 108.9773256  43.2455870
 137.8388965 107.4856296  43.0283906 138.9961137 111.2995762  45.1773058
 139.1727765 112.2213727  44.9894042 139.7917971 110.9854181  45.6067438
 143.1372156  98.1604027  56.7756992 143.8781869  98.7611180  56.6961454
 143.3690078  97.4181664  56.2175034 138.2813494 103.3460394  55.0535221
 138.1667009 102.4445651  55.3542320 137.4258011 103.5924091  54.7020038
 145.3605331 111.2878134  56.6522722 144.9169186 110.5014513  56.3343627
 146.0222545 111.4757285  55.9866613 140.1192453 112.8173936  51.1783401
 140.6699878 112.6890999  50.4060394 139.2803928 113.1168825  50.8278293
 143.9159624 109.0825064  55.5227632 144.4487960 108.3213352  55.2926940
 143.3873705 108.7898715  56.2651786 147.0829319  94.1885130  51.0521273
 146.7393588  95.0786771  50.9760384 147.4508281  93.9986787  50.1890858
 135.1515169 106.5118660  43.8709876 135.9890391 106.9215668  43.6543583
 135.3293437 105.5718102  43.8410069 147.0479601 104.1793741  39.5593709
 146.5326225 104.9498345  39.7982096 146.7756910 103.5058877  40.1826770
 144.6326712  99.0243441  44.6178947 143.7768309  98.6350292  44.4384586
 145.0453664  99.1035402  43.7578732 146.1625859  96.5589785  49.0170507
 145.6590655  96.5219920  48.2038312 146.4556466  97.4682527  49.0767163
 142.4068745  96.6428514  48.0236688 143.2721742  96.4471323  47.6642578
 142.4746254  96.4138866  48.9506045 146.8365904 102.0520833  41.3853490
 146.5316040 102.3666982  42.2363633 147.7896347 102.1302253  41.4280823
 145.2812336 108.2111056  43.0346444 144.7533698 107.4763816  42.7219681
 144.7799839 108.9885732  42.7886412 140.0131064  98.8730722  45.3953055
 140.5874816  98.6505904  44.6626248 140.6002046  98.9419417  46.1481656
 140.3400651 100.9035183  39.4148940 139.5037963 101.2409870  39.7358215
 140.2005421 100.7684163  38.4776077 142.3153732  95.7471971  44.1228125
 141.6618144  95.4320988  43.4984739 142.2734206  95.1247712  44.8487948
 143.4264937 106.0291266  36.0381417 142.5191998 105.7980520  36.2372566
 143.9235969 105.2328886  36.2255398 146.3333015 114.7388774  38.9578103
 145.6594714 115.0420470  39.5663061 146.7198837 115.5417854  38.6083560
 145.5491472 102.2353905  48.4475772 144.6314033 102.4568852  48.2897460
 145.9651616 102.3100215  47.5887480 146.3326520 103.6345321  43.5778453
 147.0798339 104.1466718  43.2685575 146.6018109 103.3129373  44.4382846
 144.6053170 106.1303861  40.5605407 143.6964389 105.8462894  40.6577877
 144.6348254 106.5502940  39.7008714 135.1741340 103.8509375  44.5420609
 134.9765740 103.2578736  43.8171676 134.6188004 103.5461586  45.2596548
 143.1538064 103.7432482  46.6615202 143.2086674 102.7906318  46.5857679
 142.3429266 103.8991921  47.1456501 144.3029258 107.6712605  37.8993485
 143.8648688 106.9548464  37.4399123 145.0439699 107.8988720  37.3378577
 141.0930424 102.3609542  44.4205581 140.2798289 102.6603712  44.8270773
 141.5889418 101.9665230  45.1380063 143.2439002 112.3567299  46.3539846
 143.2015181 112.5828145  45.4248378 144.1601701 112.1230673  46.5025647
 146.6904636 102.8251366  53.2520475 147.0454023 103.0522839  54.1114941
 147.3376767 103.1569743  52.6297730 140.5844499  99.9327897  50.0366816
 141.2243878  99.7916656  49.3389779 139.7522029  99.6462411  49.6605418
 141.3604803 109.2330328  46.1501808 142.1545401 108.7380648  45.9484383
 140.6496495 108.7048191  45.7869514 146.1799647 111.6148423  50.5014176
 146.2336669 112.1839359  51.2691892 145.3114428 111.7850308  50.1368213
 137.6687566 103.3773409  42.2261561 136.7385154 103.3157865  42.4431523
 137.7645038 102.8549362  41.4298202 137.5873115  99.9028222  44.8139803
 137.8479932 100.8173555  44.7048963 138.4090287  99.4352665  44.9636416
 139.0598040 101.3165979  51.9838627 139.7321094 101.1083341  51.3351276
 138.2327827 101.1188065  51.5443860 144.9623612  97.9427920  54.0004288
 144.3151527  98.6417870  53.9068765 145.7324628  98.3764064  54.3680536
 145.1387747 105.7808685  52.0601108 146.0679807 105.9319845  51.8870075
 144.7178777 105.8692706  51.2049754 143.9376079 109.8059350  49.8299646
 143.7987164 109.4378134  50.7025584 143.1490675 110.3206989  49.6583603
 144.5324231 114.9068446  41.1725182 144.7075986 114.4356489  41.9870805
 143.8457019 115.5334212  41.4006443 145.4881294 109.1840952  47.2188483
 145.1531126 109.1441722  48.1146133 144.9885239 108.5185668  46.7458894
 139.4625538 104.5908582  52.7441064 139.3245336 103.8588821  53.3452604
 140.3730461 104.5017482  52.4625252 142.0907838 104.3028542  52.2324744
 142.8007457 103.6621734  52.1911363 142.0477147 104.5541436  53.1550925
 140.8036772 101.2893759  54.0520384 140.2674129 100.8384498  54.7041980
 140.2153481 101.4239668  53.3090848 139.0985316 118.0557809  47.9465042
 139.3381914 118.6876333  48.6244061 138.2554512 117.7045849  48.2330401
 140.2139031 100.7482411  36.6146847 139.3368498 100.6271212  36.2509094
 140.6896784  99.9568489  36.3625736 131.7341171 105.5359571  46.7088354
 132.4212211 105.2221301  46.1209370 131.5789300 106.4400935  46.4355606
 136.5375894 100.4249767  51.1373378 136.4534082  99.8175437  50.4023788
 135.7158600 100.9158785  51.1382874 143.6113178 113.8636931  50.3506546
 143.5383349 114.6691903  50.8625851 143.1690571 114.0628897  49.5254568
 143.4002957 113.1008701  43.8609368 142.6170479 113.6430381  43.9547592
 144.0995703 113.6182681  44.2603609 146.7099607  98.9103331  46.5043573
 147.2068307  98.1573293  46.1844643 145.9386589  98.9467647  45.9386782
 146.0711861 113.7623765  52.5064705 146.7839833 114.3971230  52.4340606
 145.5801890 113.8587631  51.6904707 143.2934576 101.0520714  46.2315258
 142.9232364 100.4991754  46.9196163 143.7893669 100.4478847  45.6790258
 141.1223775 111.5118209  53.3270276 141.8233234 112.1454692  53.4799670
 140.6518890 111.8532940  52.5665915 145.8832235 114.1022509  45.2550996
 146.0654629 113.2844165  45.7178749 146.7065221 114.3190202  44.8175886
 146.2174400 113.0290694  42.5166045 146.7462167 112.5183149  41.9036207
 146.4802620 112.7133225  43.3811578 144.9712634 104.8082627  57.6388863
 144.2953271 104.7076757  58.3091238 145.7940268 104.6521841  58.1024860
 136.7191493 111.0454564  50.2601378 137.3044930 110.2998252  50.3929283
 136.5216331 111.3558520  51.1438042 139.5730148 114.0805811  45.2763821
 138.9040523 114.5651939  44.7927861 139.4343018 114.3275032  46.1907199
 131.3109148 103.6160164  48.9805822 131.3493247 103.0823755  49.7742940
 130.8049440 103.0895369  48.3616799 143.7135417 116.1149555  51.8746479
 144.2653725 116.2781176  52.6395564 144.0541610 116.7053992  51.2026504
 138.6899910  98.4624704  52.4768364 138.7541236  99.3239535  52.0645762
 138.6267030  97.8498706  51.7440722 138.1652182 100.5347837  56.1241398
 138.7924221 100.1524914  56.7378922 137.3080101 100.3162039  56.4897091
 134.9417725 102.3424266  42.0559753 135.2371166 101.4334945  42.0026807
 134.0405761 102.3212006  41.7340755 146.8503804 114.0631530  48.8610161
 146.7254943 113.2621270  48.3521107 147.5082895 114.5577724  48.3724131
 138.4711972 100.4180263  48.0387301 137.7498558 101.0316230  47.8994775
 139.2605228 100.9538028  47.9603947 141.2738286  97.7534689  54.3127953
 141.7972687  97.9996986  55.0754263 141.0550619  98.5854724  53.8931091
 136.6705567 100.0238364  42.1799078 136.3418273  99.1435743  41.9974184
 137.0244937  99.9686032  43.0675467 145.9185146 111.6593266  46.6894064
 145.7710108 110.7309974  46.8701634 146.7438639 111.6813357  46.2051139
 139.7847390 100.3111334  42.5474556 140.1243462 100.8397255  41.8253164
 140.2319510 100.6491740  43.3233122 142.4790831  98.6948384  51.9977624
 142.1387651  97.8956197  52.3998304 141.7729837  98.9950095  51.4254457
 143.1307303  95.7797697  50.4504947 143.9533372  95.3058175  50.3283837
 143.3745366  96.5588180  50.9503633 141.7715537  98.8085955  40.7467848
 142.4923900  99.1867208  40.2431565 141.1480841  99.5274832  40.8502826
 145.9146660  99.5131104  41.6826181 146.1310274 100.3955742  41.3815009
 145.4340727  99.1217318  40.9531823 140.6545881 102.4716817  48.2596925
 140.5090462 102.7857120  49.1521207 140.1771085 103.0901718  47.7067824
 142.5142264  99.4619365  48.3077815 142.5003833  98.5660459  47.9710113
 143.2314692  99.4690029  48.9416101 144.3668395  99.8956706  50.3530942
 144.1086173 100.8173776  50.3515273 143.8353435  99.4987140  51.0431407
 135.1291543 105.0122162  51.1984587 134.5845012 105.7881970  51.3304861
 136.0070893 105.3592966  51.0403708 141.9179160  98.3433746  43.5765385
 142.0395071  97.4150392  43.7756273 141.6281202  98.3572432  42.6643701
 144.7870350  96.0288656  46.7132105 144.8092047  96.0927989  45.7584085
 145.2038409  95.1893165  46.9072611 135.9157565 104.1392058  54.0914743
 135.1739301 104.2874693  54.6779374 135.5950310 104.4000324  53.2281493
 143.8601228 113.6808036  53.8895133 144.1688354 113.4357183  54.7617833
 144.6576710 113.8854675  53.4014004 143.8821840 115.8345946  46.1200510
 143.4426830 115.3422325  46.8133367 144.6329957 115.2918914  45.8792585
 136.3614179 112.0257487  46.1225138 137.1872199 111.7261259  45.7423782
 136.0108231 111.2565109  46.5714927 141.3295712 111.3783955  48.1922812
 140.7075721 110.7154660  47.8925040 142.0000579 111.4045087  47.5096459
 134.5622784 109.9443813  47.0814072 133.7254692 109.5165988  46.8998073
 134.5346429 110.1376257  48.0184863 141.4020240  99.8565743  57.7855318
 141.4508395 100.7327866  57.4033087 141.9442754  99.3143136  57.2126961
 140.8909219 109.9287878  41.6681272 141.0397339 110.6123343  41.0147945
 141.6975663 109.9092968  42.1830728 143.6319528 100.6097115  54.5401676
 142.7622837 100.9030681  54.2684265 143.8679008 101.1937560  55.2608940
 138.6461852 105.9553056  42.6742341 138.4007894 105.0515386  42.8722551
 138.8157767 105.9570206  41.7321819 146.3358562  96.8276732  52.0567097
 146.8540506  97.5637759  51.7313585 145.9813695  97.1340726  52.8913856
 137.9157500 101.6881414  40.1728503 137.2226745 101.7625768  39.5168539
 137.6709251 100.9241757  40.6950020 146.5871156  93.2477015  47.5767993
 146.8672910  92.5800204  48.2028420 147.3721763  93.4406110  47.0642657
 144.3904625 112.4236009  39.1393020 143.8178592 113.0426196  38.6863492
 144.9637418 112.9735370  39.6732942 144.7751423 103.7596822  36.4809072
 145.7210528 103.6303030  36.5497490 144.3965668 103.0211483  36.9578500
 144.6590116 107.8114568  57.9409729 145.5793125 107.9893167  58.1349776
 144.6239699 106.8670613  57.7889428 142.9594340 101.6846798  36.4163957
 142.0525796 101.3879911  36.4926671 143.2370321 101.3876616  35.5498244
 133.8772281 103.0053161  46.8663004 133.5575065 102.1518469  46.5737378
 133.3305709 103.2201739  47.6220971 137.6552188 105.7215602  50.5832510
 137.8738198 106.6532710  50.6020544 138.0677962 105.3623577  51.3687314
 144.5756406  96.2283688  42.5708199 143.7657134  95.8830773  42.9463445
 145.2640823  95.9191231  43.1595810 146.5046954  95.3061734  44.1932495
 147.0577993  95.7257188  44.8522518 146.7417041  94.3797483  44.2355451
 142.5280053 101.2948808  59.9735259 142.4276780 102.2443165  59.9047350
 142.3101596 100.9667047  59.1011329 141.7293125  98.5433733  36.5575937
 142.5912289  98.8688631  36.8171754 141.9143469  97.7565229  36.0449002
 133.7460541 106.6256073  48.8356125 133.0524012 106.2110026  48.3226080
 134.4933532 106.6676609  48.2389544 142.3911324 104.7245947  58.7900321
 141.9078405 105.5246307  58.9964210 142.4772263 104.7353892  57.8367765
 135.6597283 106.5574327  46.7122140 135.6367971 106.6562014  45.7604023
 135.9697920 107.4039477  47.0339306 138.3184661 108.6150482  50.8268755
 139.2727915 108.5834424  50.7598686 138.1197185 108.1541105  51.6418981
 138.9084043 107.1851598  53.3939552 139.7276932 107.6795676  53.4174390
 139.1820851 106.2683566  53.3657120 136.6734890 114.1570101  47.8438953
 136.5389358 113.3970502  47.2776951 136.2566952 114.8811001  47.3767741
 139.8304016 115.0539418  48.0557395 139.7136400 115.9984851  47.9536085
 139.0096462 114.7512980  48.4443194 134.1618957 101.5189732  54.0931749
 134.8077821 101.0088685  54.5818975 133.9536109 102.2558413  54.6675175
 146.6872350 108.5870579  59.5923890 147.5563509 108.7611231  59.2310525
 146.2079101 109.4064996  59.4699619 142.6822568  95.7829776  39.8455646
 142.6701238  96.7271616  40.0023916 143.5745990  95.5999922  39.5515107
 140.8558530 115.7067680  51.2713324 141.7585777 115.7391290  51.5879819
 140.6295900 114.7768131  51.2859659 142.6112132 114.4598667  47.9323402
 141.6607763 114.4600528  47.8187775 142.9144618 113.7131401  47.4159437
 146.4974687  92.3772553  44.1001582 145.7307083  91.8231039  44.2458265
 146.9085392  92.4494422  44.9615734 138.5016448  98.6657349  58.1906764
 139.3647910  98.3094153  58.4010088 137.9281859  98.3271243  58.8782168
 147.0762179 117.4389095  47.7477408 146.2861233 117.6946624  47.2717519
 147.5673426 118.2537433  47.8529449 145.3599882 117.6919586  50.1792399
 145.6107920 118.5766596  50.4449975 145.8959430 117.5124187  49.4067491
 145.9908924 121.8410578  43.8709876 146.8284146 122.2507586  43.6543583
 146.1687191 120.9010020  43.8410069 146.0135095 119.1801293  44.5420609
 145.8159495 118.5870654  43.8171676 145.4581759 118.8753503  45.2596548
 142.5734926 120.8651488  46.7088354 143.2605966 120.5513218  46.1209370
 142.4183055 121.7692853  46.4355606 147.3769648 115.7541685  51.1373378
 147.2927837 115.1467354  50.4023788 146.5552354 116.2450703  51.1382874
 142.1502902 118.9452082  48.9805822 142.1887002 118.4115672  49.7742940
 141.6443195 118.4187287  48.3616799 145.7811480 117.6716184  42.0559753
 146.0764921 116.7626862  42.0026807 144.8799515 117.6503923  41.7340755
 145.9685298 120.3414079  51.1984587 145.4238766 121.1173887  51.3304861
 146.8464648 120.6884884  51.0403708 146.7551320 119.4683976  54.0914743
 146.0133056 119.6166611  54.6779374 146.4344064 119.7292241  53.2281493
 145.4016539 125.2735731  47.0814072 144.5648447 124.8457905  46.8998073
 145.3740184 125.4668174  48.0184863 144.7166035 118.3345079  46.8663004
 144.3968819 117.4810387  46.5737378 144.1699463 118.5493657  47.6220971
 144.5854295 121.9547990  48.8356125 143.8917767 121.5401943  48.3226080
 145.3327286 121.9968527  48.2389544 146.4991038 121.8866244  46.7122140
 146.4761726 121.9853932  45.7604023 146.8091674 122.7331395  47.0339306
 145.0012712 116.8481649  54.0931749 145.6471575 116.3380603  54.5818975
 144.7929863 117.5850331  54.6675175  76.4235960   0.3383031  30.5262147
  76.3459990   1.2890856  30.6050627  75.8197604  -0.0071096  31.1837073
  75.0829927  -2.1515448  37.9028707  75.6337352  -2.2798384  37.1305701
  74.2441403  -1.8520559  37.5523600  81.2970490  -0.2300610  25.6823409
  80.6232188   0.0731087  26.2908367  81.6836312   0.5728470  25.3328867
  79.4961705  -0.0620937  27.8970489  79.6713461  -0.5332894  28.7116111
  78.8094493   0.5644829  28.1251749  74.0622790   3.0868425  34.6710349
  74.3019388   3.7186949  35.3489367  73.2191987   2.7356465  34.9575708
  78.5750652  -1.1052452  37.0751853  78.5020824  -0.2997481  37.5871157
  78.1328045  -0.9060486  36.2499874  78.3640432  -1.8680682  30.5854674
  77.5807954  -1.3259002  30.6792899  79.0633177  -1.3506703  30.9848916
  81.0349336  -1.2065618  39.2310011  81.7477308  -0.5718153  39.1585913
  80.5439364  -1.1101752  38.4150013  74.5367622  -0.8883572  32.0009127
  73.8677998  -0.4037445  31.5173167  74.3980492  -0.6414352  32.9152506
  78.6772891   1.1460171  38.5991786  79.2291199   1.3091793  39.3640871
  79.0179084   1.7364609  37.9271811  78.8238702  -1.2881347  40.6140440
  79.1325829  -1.5332200  41.4863140  79.6214184  -1.0834709  40.1259310
  78.8459314   0.8656562  32.8445817  78.4064305   0.3732941  33.5378673
  79.5967431   0.3229530  32.6037892  71.3251653  -2.9431897  32.8470445
  72.1509673  -3.2428125  32.4669088  70.9745705  -3.7124274  33.2960233
  69.5260258  -5.0245570  33.8059378  68.6892167  -5.4523396  33.6243380
  69.4983904  -4.8313127  34.7430170  71.6372364  -0.8119282  34.5684259
  71.5026832  -1.5718881  34.0022257  71.2204426  -0.0878383  34.1013048
  74.7941490   0.0850035  34.7802702  74.6773874   1.0295467  34.6781392
  73.9733936  -0.2176404  35.1688501  75.8196004   0.7378297  37.9958630
  76.7223251   0.7701907  38.3125125  75.5933374  -0.1921253  38.0104966
  77.5749606  -0.5090717  34.6568709  76.6245237  -0.5088855  34.5433081
  77.8782092  -1.2557982  34.1404743  93.3102300   5.3269821  35.7214471
  93.9480710   5.2076569  35.0177811  93.1923143   6.2750665  35.7802423
  90.1192006   5.2797250  35.6575996  89.7810517   5.1638314  34.7696531
  90.9881774   4.8788415  35.6377002  85.9778822   7.1332726  31.6472887
  85.4143687   7.0422663  30.8789175  85.8631217   6.3132630  32.1275379
  90.6011789   6.4332101  41.6162201  90.5900430   6.0384900  40.7442705
  90.7632428   5.6998174  42.2095973  83.5243254   8.6283918  34.4857107
  84.3164545   8.2874742  34.0703407  83.7639904   8.7378893  35.4059261
  91.5578380  10.8003694  26.9587352  90.9066360  11.3857774  26.5721366
  92.3522743  11.3309889  27.0182389  85.4834007   7.8892831  27.3574486
  86.2564883   7.3421818  27.2187362  85.8359406   8.7537080  27.5688948
  87.3219050   9.2169213  40.5641385  87.0308916  10.1214844  40.4488052
  87.9576034   9.2585741  41.2785455  88.2475257   6.5946062  37.1542745
  88.8438829   6.3702084  36.4399708  88.3050228   5.8530807  37.7568193
  87.8200285   4.0485497  24.9892936  88.0725806   3.5267018  24.2276399
  86.8824844   3.8851642  25.0919620  93.0353645   8.4894126  27.4956336
  92.3999478   8.5628752  28.2077241  92.7051052   9.0787724  26.8175415
  87.5396574   5.9513603  27.1917311  87.4232832   5.2758506  27.8598395
  87.6498834   5.4645977  26.3749464  89.8828115   5.4123750  30.8964000
  89.5186322   4.8854371  31.6076922  90.7395231   5.0222219  30.7230486
  92.2808935   8.9030629  37.5591179  91.9809658   9.8055667  37.4506986
  91.9359995   8.6362812  38.4112332  85.7321417   5.3544425  33.5927884
  84.8071913   5.2220640  33.8005575  85.9805830   6.1338645  34.0897826
  89.5022823   2.8971307  26.8772016  89.3822448   3.3428358  27.7157496
  88.8075411   3.2456625  26.3185554  83.0930228   4.9977699  34.4271673
  83.2222609   5.2512178  35.3411084  82.4127679   5.5905407  34.1076328
  87.2629715  15.6674949  30.5262147  87.1853745  16.6182774  30.6050627
  86.6591359  15.3220821  31.1837073  89.7546945   2.8402814  43.1823514
  88.9780279   3.3996735  43.1726378  90.3937508   3.3259597  43.7038384
  88.0093317   5.6488268  42.7441481  88.7508001   6.1873312  42.4676304
  87.3030302   6.2754557  42.9013033  93.4848657   7.7917408  41.3413642
  93.8932013   7.3499819  40.5968275  92.7625918   7.2170036  41.5947835
  89.8379727   2.7290015  38.7147199  90.6840922   3.1529429  38.8581848
  89.7778364   2.0723639  39.4085762  93.8077471   8.3518599  35.0965931
  93.1786334   8.5164313  34.3941999  93.4203133   8.7660208  35.8676895
  97.6866703   9.2873037  32.4510295  97.0017741   9.6671938  31.9007328
  97.7710553   9.8968363  33.1842243  94.9417635   6.9332996  39.0505638
  95.1534530   7.5764756  38.3740019  94.8947383   6.0995312  38.5827568
  89.3605433   8.0893007  32.3616016  89.8243779   8.3680710  31.5720639
  89.0962231   7.1876452  32.1789107  86.2529514   7.6364488  35.2995779
  86.8230871   8.0651757  34.6613264  86.8437626   7.3547073  35.9979965
  88.2974319   4.2116159  29.1705581  88.9998363   4.6637203  29.6379508
  87.9654948   3.5699978  29.7985474  86.7454681   2.8027916  43.5456791
  86.1153341   3.4844197  43.7792188  86.6390769   2.6910998  42.6009929
  82.0399653   2.4699712  34.4722715  81.2498707   2.7257241  33.9962826
  82.5310901   3.2848050  34.5774755  96.0563463   9.8104951  37.2227996
  96.8780906   9.4085138  36.9410677  96.0525866   9.7073185  38.1744112
  83.9914399   2.8344291  31.4306192  83.1945562   2.9462985  31.9489687
  83.7639991   3.1730943  30.5647082  89.8220066   9.3588994  39.3788706
  89.8864499   9.8209402  40.2146878  89.1130990   8.7286359  39.5071016
  80.3237356   2.7230202  36.9037706  80.5745395   3.6077212  37.1695282
  80.8596905   2.5434804  36.1312798  89.5368084  11.0257102  29.2467687
  89.4013759  11.8708638  29.6752534  90.0777896  11.2276380  28.4833620
  82.9897481   8.5432540  29.8195612  83.5022002   9.3375790  29.9701176
  83.6420194   7.8458830  29.7529213  84.7992366  11.6598296  31.9018365
  84.9758994  12.5816261  31.7139349  85.5949199  11.3456715  32.3312745
  84.0844722   3.7062928  41.7780528  83.9698238   2.8048185  42.0787627
  83.2289240   3.9526625  41.4265345  91.1636560  11.6480668  43.3768029
  90.7200414  10.8617047  43.0588933  91.8253774  11.8359819  42.7111919
  85.9223681  13.1776470  37.9028707  86.4731107  13.0493533  37.1305701
  85.0835157  13.4771359  37.5523600  93.2617798  11.9283468  41.4049430
  93.2436274  12.7492349  40.9129699  94.1837718  11.8037544  41.6299571
  89.7190852   9.4427598  42.2472938  90.2519189   8.6815886  42.0172246
  89.1904934   9.1501250  42.9897093  80.9546398   6.8721194  30.5955182
  81.7921620   7.2818203  30.3788890  81.1324666   5.9320636  30.5655376
  92.8510830   4.5396275  26.2839015  92.3357454   5.3100880  26.5227403
  92.5788139   3.8661411  26.9072077  97.8245104   7.2928630  28.2192189
  97.0474547   6.9539789  27.7747351  98.5036585   7.2981253  27.5447154
  91.0843565   8.5713590  29.7591750  90.5564927   7.8366350  29.4464988
  90.5831068   9.3488267  29.5131719  96.0636411   6.7662611  34.8758797
  95.4060086   7.4561872  34.9638925  96.8676810   7.1559043  35.2192783
  94.8741870   5.1206984  32.9262738  95.3873752   5.7536975  33.4284448
  95.5243094   4.5208179  32.5606098  86.1431880   1.2637718  26.1394247
  85.3069192   1.6012404  26.4603522  86.0036650   1.1286697  25.2021384
  89.2296165   6.3893801  22.7626723  88.3223227   6.1583054  22.9617872
  89.7267197   5.5931420  22.9500705  92.1364244  15.0991308  25.6823409
  91.4625943  15.4023005  26.2908367  92.5230066  15.9020388  25.3328867
  91.3522701   2.5956439  35.1721079  90.4345262   2.8171386  35.0142767
  91.7682844   2.6702750  34.3132786  92.1357749   3.9947855  30.3023759
  92.8829568   4.5069252  29.9930881  92.4049338   3.6731907  31.1628153
  90.4084399   6.4906395  27.2850713  89.4995618   6.2065428  27.3823183
  90.4379483   6.9105474  26.4254020  95.6403666  10.1012985  31.0541881
  95.1865993   9.2603895  31.1107071  95.0097633  10.7374383  31.3916661
  94.0836605  11.9389482  31.9891699  94.3759580  12.4994539  31.2704065
  94.5935226  12.2318043  32.7444858  80.9772569   4.2111910  31.2665916
  80.7796969   3.6181270  30.5416982  80.4219233   3.9064120  31.9841854
  88.9569293   4.1035016  33.3860509  89.0117903   3.1508852  33.3102985
  88.1460495   4.2594455  33.8701807  90.1060487   8.0315139  24.6238792
  89.6679917   7.3150998  24.1644429  90.8470927   8.2591254  24.0623883
  86.8961653   2.7212076  31.1450888  86.0829518   3.0206246  31.5516080
  87.3920647   2.3267765  31.8625370  89.0470231  12.7169833  33.0785152
  89.0046409  12.9430679  32.1493684  89.9632929  12.4833207  33.2270953
  92.4935864   3.1853900  39.9765782  92.8485252   3.4125373  40.8360247
  93.1407996   3.5172277  39.3543037  98.2233601   6.3072336  30.6815111
  98.0851500   6.4973932  29.7536300  97.8669820   7.0691719  31.1383162
  98.2502981   8.3748863  35.6926382  98.6839488   8.2824152  36.5409436
  98.9634562   8.3506364  35.0546398  87.1636031   9.5932862  32.8747115
  87.9576630   9.0983182  32.6729690  86.4527724   9.0650725  32.5114821
  91.9830876  11.9750957  37.2259483  92.0367898  12.5441894  37.9937199
  91.1145657  12.1452842  36.8613520  83.4718795   3.7375943  28.9506868
  82.5416383   3.6760399  29.1676830  83.5676267   3.2151896  28.1543509
  83.3904344   0.2630756  31.5385109  83.6511161   1.1776090  31.4294270
  84.2121516  -0.2044801  31.6881722  84.8629269   1.6768513  38.7083934
  85.5352323   1.4685876  38.0596583  84.0359056   1.4790599  38.2689166
  99.1118531   8.4172564  38.2259267  99.3054421   9.3218374  38.4718542
  99.0119149   7.9579983  39.0597853  94.1733639   8.5679307  43.8000148
  94.0219146   8.3389858  42.8830232  94.1638319   9.5249908  43.8131493
  90.9418976   6.1411219  38.7846415  91.8711036   6.2922379  38.6115382
  90.5210006   6.2295240  37.9295061  89.7407307  10.1661884  36.5544952
  89.6018393   9.7980668  37.4270890  88.9521904  10.6809523  36.3828910
  90.3355459  15.2670980  27.8970489  90.5107215  14.7959023  28.7116111
  89.6488247  15.8936746  28.1251749  91.2912523   9.5443486  33.9433790
  90.9562355   9.5044256  34.8391440  90.7916468   8.8788202  33.4704200
  85.2656767   4.9511116  39.4686371  85.1276564   4.2191355  40.0697910
  86.1761690   4.8620017  39.1870559  94.2271714   6.8899521  24.2170850
  93.6100885   6.1646349  24.1203902  93.7588203   7.6508881  23.8737924
  87.8939067   4.6631076  38.9570051  88.6038686   4.0224268  38.9156669
  87.8508375   4.9143971  39.8796232  95.8825846  11.5998429  41.8776630
  95.8238392  10.9157649  41.2107213  96.2845364  12.3417419  41.4257256
  86.6068001   1.6496294  40.7765690  86.0705358   1.1987032  41.4287287
  86.0184710   1.7842203  40.0336155  84.9016545  18.4160343  34.6710349
  85.1413143  19.0478867  35.3489367  84.0585741  18.0648383  34.9575708
  95.8843253   9.5638013  40.1090610  94.9970032   9.2263935  40.2317008
  96.4541804   8.8321044  40.3459375  77.5372400   5.8962105  33.4333661
  78.2243440   5.5823835  32.8454676  77.3820529   6.8003469  33.1600912
  82.3407122   0.7852301  37.8618685  82.2565311   0.1777971  37.1269095
  81.5189829   1.2761320  37.8628181  89.4144407  14.2239465  37.0751853
  89.3414578  15.0294437  37.5871157  88.9721800  14.4231431  36.2499874
  89.2034186  13.4611235  30.5854674  88.4201708  14.0032916  30.6792899
  89.9026931  13.9785215  30.9848916  91.8743090  14.1226299  39.2310011
  92.5871062  14.7573764  39.1585913  91.3833119  14.2190165  38.4150013
  93.5960617   8.0277552  30.8027303  92.6616896   8.1479015  30.6332007
  93.7737285   7.1250019  30.5387313  86.9255004  11.8720743  40.0515582
  87.6264463  12.5057226  40.2044977  86.4550119  12.2135474  39.2911222
  95.0509399  10.2138693  28.3363489  95.3269243  10.0995287  29.2457363
  94.1813898   9.8156178  28.2975662  91.6863463  14.4625044  31.9796303
  91.8685858  13.6446699  32.4424055  92.5096449  14.6792736  31.5421193
  92.0205629  13.3893229  29.2411351  92.5493395  12.8785683  28.6281514
  92.2833848  13.0735759  30.1056884  90.7743863   5.1685161  44.3634170
  90.0984500   5.0679291  45.0336545  91.5971496   5.0124375  44.8270167
  82.5222722  11.4057098  36.9846685  83.1076158  10.6600786  37.1174589
  82.3247560  11.7161055  37.8683349  85.3761377  14.4408345  32.0009127
  84.7071752  14.9254473  31.5173167  85.2374247  14.6877566  32.9152506
  77.1140376   3.9762698  35.7051128  77.1524476   3.4426289  36.4988246
  76.6080669   3.4497904  35.0862105  89.5166645  16.4752089  38.5991786
  90.0684953  16.6383710  39.3640871  89.8572839  17.0656527  37.9271811
  83.9683411   0.8950371  42.8486705  84.5955450   0.5127449  43.4624229
  83.1111330   0.6764573  43.2142397  94.3677520  11.3013346  44.4540440
  94.9117424  11.9143305  43.9595395  93.7864365  11.8592925  44.9707453
  80.7448954   2.7026800  28.7805060  81.0402395   1.7937479  28.7272113
  79.8436990   2.6814540  28.4586062  92.6535033  14.4234064  35.5855468
  92.5286172  13.6223804  35.0766413  93.3114124  14.9180258  35.0969438
  84.2743201   0.7782797  34.7632608  83.5529787   1.3918765  34.6240081
  85.0636457   1.3140562  34.6849254  94.7169941  12.2243084  37.2135018
  93.7700277  12.1048436  37.1413345  95.0652714  11.3365583  37.2961279
  82.4736796   0.3840898  28.9044385  82.1449502  -0.4961723  28.7219491
  82.8276166   0.3288567  29.7920774  91.7216374  12.0195801  33.4139370
  91.5741337  11.0912508  33.5946940  92.5469868  12.0415891  32.9296445
  85.5878619   0.6713868  29.2719862  85.9274691   1.1999789  28.5498471
  86.0350739   1.0094274  30.0478429  95.3250496  12.8424359  34.5004243
  96.2497044  12.6367221  34.3628694  95.1565800  12.5940761  35.4093584
  86.4577110   2.8319352  34.9842232  86.3121691   3.1459655  35.8766514
  85.9802314   3.4504252  34.4313131  95.1145812  13.3610027  29.8566334
  95.2882690  12.7956449  29.1040187  95.6074704  14.1610922  29.6745824
  80.9322772   5.3724696  37.9229893  80.3876240   6.1484504  38.0550168
  81.8102122   5.7195500  37.7649015  96.1020985  12.6776791  26.9563233
  96.7971890  13.2983484  27.1750547  96.4444135  11.8272143  27.2315611
  81.7188794   4.4994592  40.8160050  80.9770530   4.6477228  41.4024681
  81.3981538   4.7602858  39.9526800  98.0012408  10.1276497  28.4850563
  98.5263732  10.4663770  27.7599883  97.9134761   9.1923512  28.3013698
  89.6632457  14.0410570  40.6140440  89.9719583  13.7959717  41.4863140
  90.4607939  14.2457209  40.1259310  89.6853069  16.1948480  32.8445817
  89.2458059  15.7024859  33.5378673  90.4361186  15.6521448  32.6037892
  82.1645408  12.3860021  32.8470445  82.9903428  12.0863793  32.4669088
  81.8139460  11.6167643  33.2960233  87.1326941  11.7386489  34.9168118
  86.5106950  11.0757194  34.6170346  87.8031808  11.7647621  34.2341766
  80.3654013  10.3046347  33.8059378  79.5285921   9.8768522  33.6243380
  80.3377658  10.4978791  34.7430170  97.6906314  10.7609400  43.7901761
  96.9001858  10.7433539  43.2506261  97.4539669  11.2997694  44.5450798
  97.8104189   7.6101867  41.1034490  97.8602194   7.4451874  42.0450013
  97.7018113   6.7429126  40.7132371  86.6940448  10.2890413  28.3926579
  86.8428568  10.9725877  27.7393252  87.5006891  10.2695503  28.9076035
  99.3122386  10.0298808  41.3476512  99.0207194  10.3928789  42.1839972
  98.6994517   9.3165817  41.1689844 100.5118068   7.5951688  33.8679082
 101.3464960   8.0341492  34.0316642 100.6477197   7.1190341  33.0487327
  97.5609574   5.1531423  39.8156569  98.0363696   5.3459069  39.0075421
  96.6375140   5.2090609  39.5699953  84.4493081   6.3155590  29.3987648
  84.2039123   5.4117920  29.5967858  84.6188995   6.3172741  28.4567126
  83.7188728   2.0483948  26.8973809  83.0257973   2.1228303  26.2413845
  83.4740480   1.2844291  27.4195326  90.1935853  12.7838543  25.8638326
  89.6209820  13.4028730  25.4108798  90.7668647  13.3337905  26.3978248
  93.4133113  13.0675693  26.9946909  94.3463786  13.0021255  27.1979784
  93.3256326  13.9031960  26.5361441  96.0421130  12.3841563  23.9550856
  95.9634761  12.0501427  24.8486614  96.8630797  12.8763331  23.9542328
  90.5782652   4.1199356  23.2054379  91.5241757   3.9905564  23.2742797
  90.1996897   3.3814018  23.6823807  90.4621344   8.1717102  44.6655036
  91.3824354   8.3495701  44.8595082  90.4270927   7.2273147  44.5134735
  88.7625569   2.0449332  23.1409264  87.8557024   1.7482445  23.2171978
  89.0401550   1.7479150  22.2743550  79.6803509   3.3655696  33.5908310
  79.3606294   2.5121004  33.2982684  79.1336938   3.5804274  34.3466278
  83.4583417   6.0818137  37.3077817  83.6769427   7.0135244  37.3265851
  83.8709191   5.7226111  38.0932621  88.3311282   1.6551342  46.6980566
  88.2308009   2.6045699  46.6292657  88.1132824   1.3269581  45.8256636
  79.5491769   6.9858607  35.5601432  78.8555241   6.5712560  35.0471386
  80.2964760   7.0279144  34.9634851  88.1942552   5.0848481  45.5145628
  87.7109634   5.8848841  45.7209517  88.2803491   5.0956426  44.5613071
  81.4628512   6.9176861  33.4367447  81.4399200   7.0164548  32.4849330
  81.7729148   7.7642012  33.7584613  84.1215890   8.9753016  37.5514061
  85.0759143   8.9436958  37.4843993  83.9228413   8.5143640  38.3664287
  84.7115272   7.5454132  40.1184859  85.5308161   8.0398211  40.1419696
  84.9852080   6.6286100  40.0902426  82.4766119  14.5172635  34.5684259
  82.3420587  13.7573036  34.0022257  82.0598181  15.2413535  34.1013048
  93.6125082   9.7009559  23.5760834  94.3160932   9.9059561  24.1918490
  92.8887730  10.2686321  23.8409918  94.4422892   5.4519420  29.6963105
  94.3858093   5.9087972  28.8570737  94.9951234   4.6910105  29.5185947
  85.6335244  15.4141952  34.7802702  85.5167629  16.3587385  34.6781392
  84.8127691  15.1115514  35.1688501  95.5211779  10.1392088  25.6259295
  96.3557383   9.7073287  25.4436769  95.3596122   9.9674102  26.5536189
  95.1757671   6.6424201  26.9915634  95.1206475   6.4768473  26.0504078
  94.5503726   7.3500234  27.1477824  79.9650186   1.8792266  40.8177056
  80.6109050   1.3691220  41.3064281  79.7567337   2.6160947  41.3920481
  92.4903578   8.9473113  46.3169197  93.3594738   9.1213765  45.9555832
  92.0110330   9.7667530  46.1944926  86.6589759  16.0670214  37.9958630
  87.5617005  16.0993824  38.3125125  86.4327129  15.1370665  38.0104966
  88.4143361  14.8201201  34.6568709  87.4638992  14.8203062  34.5433081
  88.7175847  14.0733935  34.1404743 104.1496054  20.6561739  35.7214471
 104.7874464  20.5368487  35.0177811 104.0316897  21.6042583  35.7802423
 100.9585760  20.6089167  35.6575996 100.6204272  20.4930232  34.7696531
 101.8275529  20.2080332  35.6377002  96.8172576  22.4624644  31.6472887
  96.2537441  22.3714581  30.8789175  96.7024971  21.6424548  32.1275379
 101.4405543  21.7624019  41.6162201 101.4294184  21.3676817  40.7442705
 101.6026183  21.0290092  42.2095973  94.3637008  23.9575835  34.4857107
  95.1558300  23.6166660  34.0703407  94.6033658  24.0670810  35.4059261
 102.3972135  26.1295611  26.9587352 101.7460115  26.7149692  26.5721366
 103.1916498  26.6601806  27.0182389  96.3227762  23.2184749  27.3574486
  97.0958638  22.6713736  27.2187362  96.6753161  24.0828998  27.5688948
  98.1612805  24.5461131  40.5641385  97.8702671  25.4506762  40.4488052
  98.7969789  24.5877658  41.2785455  99.0869011  21.9237979  37.1542745
  99.6832584  21.6994002  36.4399708  99.1443983  21.1822725  37.7568193
  98.6594040  19.3777415  24.9892936  98.9119560  18.8558936  24.2276399
  97.7218599  19.2143560  25.0919620 103.7037323  18.3813193  32.7967679
 104.4900412  17.9632616  32.4458096 103.9676027  19.2859285  32.9649328
 103.8747400  23.8186043  27.4956336 103.2393233  23.8920670  28.2077241
 103.5444806  24.4079642  26.8175415 109.1045750  18.3188426  33.7000658
 109.8370922  17.7487643  33.9338487 108.3485105  17.9310027  34.1407163
  98.3790329  21.2805521  27.1917311  98.2626587  20.6050424  27.8598395
  98.4892588  20.7937895  26.3749464 100.7221869  20.7415668  30.8964000
 100.3580077  20.2146289  31.6076922 101.5788985  20.3514137  30.7230486
 106.6271170  12.0310000  38.1595266 106.2954495  12.9005411  37.9356481
 106.0316783  11.7146284  38.8389297 100.3627356  15.7705567  25.8925349
 100.5301759  16.6385804  26.2595820 100.1724526  15.9332849  24.9686638
 103.1202690  24.2322546  37.5591179 102.8203413  25.1347585  37.4506986
 102.7753749  23.9654730  38.4112332  96.5715171  20.6836343  33.5927884
  95.6465668  20.5512557  33.8005575  96.8199584  21.4630562  34.0897826
 106.5199833  16.7505086  35.2388616 105.6116711  16.6820495  34.9447377
 106.4687429  17.2277031  36.0670442 100.3416577  18.2263225  26.8772016
 100.2216203  18.6720276  27.7157496  99.6469166  18.5748543  26.3185554
  93.9323982  20.3269617  34.4271673  94.0616363  20.5804096  35.3411084
  93.2521433  20.9197325  34.1076328  98.1023469  30.9966867  30.5262147
  98.0247499  31.9474692  30.6050627  97.4985113  30.6512739  31.1837073
 100.5940699  18.1694732  43.1823514  99.8174033  18.7288652  43.1726378
 101.2331262  18.6551515  43.7038384 108.3861480  14.9521525  37.0166490
 107.7435860  15.2454058  36.3706285 107.8816408  14.8374445  37.8219687
 106.0401643  18.6984698  27.7052350 106.9519500  18.9312085  27.5300047
 105.5311291  19.2821742  27.1427428  98.8487072  20.9780185  42.7441481
  99.5901756  21.5165229  42.4676304  98.1424057  21.6046474  42.9013033
 104.3242411  23.1209326  41.3413642 104.7325767  22.6791736  40.5968275
 103.6019673  22.5461953  41.5947835 100.6773481  18.0581933  38.7147199
 101.5234676  18.4821346  38.8581848 100.6172119  17.4015557  39.4085762
 104.6471226  23.6810517  35.0965931 104.0180088  23.8456231  34.3941999
 104.2596888  24.0952126  35.8676895 108.5260458  24.6164954  32.4510295
 107.8411496  24.9963856  31.9007328 108.6104307  25.2260281  33.1842243
 103.8272927  15.7186301  40.3728373 103.5833858  16.4728362  39.8362648
 104.1032857  16.0971649  41.2075620 105.7811389  22.2624913  39.0505638
 105.9928285  22.9056673  38.3740019 105.7341138  21.4287230  38.5827568
 103.3837618  14.8742734  35.9542211 102.5222097  15.1723988  36.2458948
 103.4100053  15.0913133  35.0223243 100.1999188  23.4184925  32.3616016
 100.6637533  23.6972628  31.5720639  99.9355986  22.5168369  32.1789107
  97.0923269  22.9656406  35.2995779  97.6624626  23.3943675  34.6613264
  97.6831381  22.6838991  35.9979965  99.1368074  19.5408077  29.1705581
  99.8392117  19.9929121  29.6379508  98.8048702  18.8991896  29.7985474
  97.5848435  18.1319834  43.5456791  96.9547096  18.8136114  43.7792188
  97.4784523  18.0202915  42.6009929  92.8793408  17.7991630  34.4722715
  92.0892462  18.0549158  33.9962826  93.3704655  18.6139968  34.5774755
 106.8957217  25.1396869  37.2227996 107.7174661  24.7377056  36.9410677
 106.8919620  25.0365103  38.1744112  94.8308153  18.1636209  31.4306192
  94.0339316  18.2754903  31.9489687  94.6033745  18.5022861  30.5647082
 100.6613821  24.6880912  39.3788706 100.7258253  25.1501319  40.2146878
  99.9524745  24.0578277  39.5071016  91.1631111  18.0522120  36.9037706
  91.4139149  18.9369130  37.1695282  91.6990659  17.8726722  36.1312798
 114.9863210  21.4835617  33.5712967 114.2326919  20.9143015  33.4156972
 115.1210752  21.4498282  34.5183602 100.3761838  26.3549020  29.2467687
 100.2407513  27.2000555  29.6752534 100.9171651  26.5568297  28.4833620
  96.8629178  12.4340599  45.9082042  96.4696124  11.8806798  46.5829686
  97.6795318  12.7451178  46.2988559  93.8291236  23.8724458  29.8195612
  94.3415756  24.6667708  29.9701176  94.4813949  23.1750748  29.7529213
  95.6386120  26.9890214  31.9018365  95.8152749  27.9108179  31.7139349
  96.4342954  26.6748633  32.3312745  99.7797139  13.8498479  43.5002298
 100.5206852  14.4505632  43.4206761 100.0115062  13.1076116  42.9420341
  94.9238477  19.0354846  41.7780528  94.8091992  18.1340103  42.0787627
  94.0682995  19.2818543  41.4265345 102.0030315  26.9772586  43.3768029
 101.5594169  26.1908965  43.0588933 102.6647528  27.1651737  42.7111919
  96.7617436  28.5068388  37.9028707  97.3124861  28.3785451  37.1305701
  95.9228912  28.8063277  37.5523600 104.1011553  27.2575386  41.4049430
 104.0830028  28.0784267  40.9129699 105.0231473  27.1329461  41.6299571
 100.5584607  24.7719516  42.2472938 101.0912944  24.0107804  42.0172246
 100.0298688  24.4793167  42.9897093 103.7254302   9.8779581  37.7766580
 103.3818571  10.7681223  37.7005691 104.0933265   9.6881239  36.9136165
  91.7940153  22.2013112  30.5955182  92.6315375  22.6110120  30.3788890
  91.9718420  21.2612554  30.5655376 103.6904585  19.8688193  26.2839015
 103.1751208  20.6392797  26.5227403 103.4181893  19.1953329  26.9072077
 101.2751696  14.7137893  31.3424254 100.4193292  14.3244744  31.1629892
 101.6878647  14.7929854  30.4824039 102.8050842  12.2484237  35.7415813
 102.3015638  12.2114372  34.9283619 103.0981449  13.1576979  35.8012470
  99.0493728  12.3322966  34.7481995  99.9146725  12.1365775  34.3887884
  99.1171237  12.1033318  35.6751352 108.6638859  22.6220547  28.2192189
 107.8868302  22.2831707  27.7747351 109.3430340  22.6273170  27.5447154
 103.4790888  17.7415285  28.1098796 103.1741023  18.0561434  28.9608940
 104.4321330  17.8196705  28.1526129 101.9237320  23.9005508  29.7591750
 101.3958681  23.1658268  29.4464988 101.4224822  24.6780184  29.5131719
 106.9030166  22.0954528  34.8758797 106.2453840  22.7853790  34.9638925
 107.7070565  22.4850960  35.2192783  96.6556047  14.5625174  32.1198362
  97.2299799  14.3400356  31.3871555  97.2427030  14.6313869  32.8726963
 105.7135624  20.4498901  32.9262738 106.2267506  21.0828893  33.4284448
 106.3636848  19.8500097  32.5606098  96.9825634  16.5929635  26.1394247
  96.1462947  16.9304322  26.4603522  96.8430404  16.4578615  25.2021384
  98.9578715  11.4366423  30.8473431  98.3043127  11.1215440  30.2230046
  98.9159189  10.8142164  31.5733254 100.0689920  21.7185718  22.7626723
  99.1616982  21.4874972  22.9617872 100.5660952  20.9223338  22.9500705
 102.9757999  30.4283225  25.6823409 102.3019697  30.7314922  26.2908367
 103.3623821  31.2312306  25.3328867 102.1916455  17.9248357  35.1721079
 101.2739017  18.1463304  35.0142767 102.6076599  17.9994667  34.3132786
 102.9751503  19.3239772  30.3023759 103.7223322  19.8361170  29.9930881
 103.2443093  19.0023825  31.1628153 101.2478153  21.8198313  27.2850713
 100.3389373  21.5357346  27.3823183 101.2773237  22.2397392  26.4254020
 106.4797421  25.4304903  31.0541881 106.0259748  24.5895813  31.1107071
 105.8491387  26.0666301  31.3916661 105.4230340  16.3596889  32.2842548
 104.6853097  15.8474275  32.6152791 105.6757114  15.9197270  31.4725825
 104.9230360  27.2681399  31.9891699 105.2153334  27.8286456  31.2704065
 105.4328980  27.5609960  32.7444858 105.5241968   9.1373141  32.8784318
 105.8300844   8.2770504  32.5910233 106.2494572   9.7290761  32.6783312
  91.8166324  19.5403827  31.2665916  91.6190723  18.9473188  30.5416982
  91.2612988  19.2356037  31.9841854  99.7963047  19.4326934  33.3860509
  99.8511657  18.4800770  33.3102985  98.9854249  19.5886373  33.8701807
 100.9454241  23.3607057  24.6238792 100.5073671  22.6442916  24.1644429
 101.6864682  23.5883172  24.0623883  97.7355407  18.0503993  31.1450888
  96.9223273  18.3498164  31.5516080  98.2314401  17.6559682  31.8625370
  99.8863985  28.0461750  33.0785152  99.8440164  28.2722597  32.1493684
 100.8026684  27.8125125  33.2270953 103.3329619  18.5145818  39.9765782
 103.6879007  18.7417291  40.8360247 103.9801750  18.8464195  39.3543037
 109.0627356  21.6364254  30.6815111 108.9245254  21.8265850  29.7536300
 108.7063575  22.3983637  31.1383162  97.2269482  15.6222349  36.7612123
  97.8668861  15.4811108  36.0635086  96.3947013  15.3356862  36.3850725
 109.0896735  23.7040781  35.6926382 109.5233242  23.6116070  36.5409436
 109.8028316  23.6798281  35.0546398  98.0029786  24.9224779  32.8747115
  98.7970384  24.4275100  32.6729690  97.2921478  24.3942643  32.5114821
 102.8224630  27.3042875  37.2259483 102.8761653  27.8733811  37.9937199
 101.9539412  27.4744760  36.8613520  94.3112549  19.0667861  28.9506868
  93.3810137  19.0052317  29.1676830  94.4070021  18.5443814  28.1543509
  94.2298098  15.5922674  31.5385109  94.4904916  16.5068007  31.4294270
  95.0515271  15.1247117  31.6881722  95.7023024  17.0060431  38.7083934
  96.3746077  16.7977793  38.0596583  94.8752810  16.8082517  38.2689166
 109.9512285  23.7464482  38.2259267 110.1448175  24.6510292  38.4718542
 109.8512903  23.2871901  39.0597853 101.6048596  13.6322372  40.7249595
 100.9576511  14.3312322  40.6314071 102.3749611  14.0658516  41.0925843
 105.0127394  23.8971224  43.8000148 104.8612900  23.6681776  42.8830232
 105.0032073  24.8541826  43.8131493 101.7812730  21.4703137  38.7846415
 102.7104790  21.6214297  38.6115382 101.3603760  21.5587158  37.9295061
 100.5801062  25.4953801  36.5544952 100.4412148  25.1272586  37.4270890
  99.7915658  26.0101441  36.3828910 101.1749214  30.5962898  27.8970489
 101.3500970  30.1250941  28.7116111 100.4882002  31.2228664  28.1251749
 102.1306277  24.8735404  33.9433790 101.7956110  24.8336174  34.8391440
 101.6310223  24.2080120  33.4704200  96.1050521  20.2803034  39.4686371
  95.9670319  19.5483273  40.0697910  97.0155444  20.1911934  39.1870559
 105.0665469  22.2191438  24.2170850 104.4494639  21.4938267  24.1203902
 104.5981957  22.9800799  23.8737924  98.7332822  19.9922993  38.9570051
  99.4432440  19.3516186  38.9156669  98.6902130  20.2435888  39.8796232
 106.7219600  26.9290347  41.8776630 106.6632146  26.2449567  41.2107213
 107.1239119  27.6709337  41.4257256  97.4461756  16.9788211  40.7765690
  96.9099113  16.5278950  41.4287287  96.8578464  17.1134120  40.0336155
  95.7410299  33.7452261  34.6710349  95.9806897  34.3770785  35.3489367
  94.8979496  33.3940301  34.9575708  96.8564015  16.4376863  23.3392154
  95.9793481  16.3165664  22.9754401  97.3321768  15.6462941  23.0871043
 106.7237008  24.8929931  40.1090610 105.8363786  24.5555853  40.2317008
 107.2935559  24.1612962  40.3459375  88.3766155  21.2254022  33.4333661
  89.0637195  20.9115753  32.8454676  88.2214283  22.1295387  33.1600912
  93.1800877  16.1144219  37.8618685  93.0959066  15.5069889  37.1269095
  92.3583583  16.6053237  37.8628181 100.2538161  29.5531383  37.0751853
 100.1808332  30.3586355  37.5871157  99.8115554  29.7523349  36.2499874
 100.0427941  28.7903153  30.5854674  99.2595463  29.3324833  30.6792899
 100.7420686  29.3077133  30.9848916 103.3524591  14.5997783  33.2288880
 103.8493290  13.8467745  32.9089950 102.5811572  14.6362099  32.6632089
 111.2054348  20.3038148  34.8707171 111.1944224  21.1862864  34.5001104
 110.3371728  19.9509699  34.6761708 102.7136845  29.4518217  39.2310011
 103.4264817  30.0865682  39.1585913 102.2226873  29.5482083  38.4150013
 104.4354371  23.3569470  30.8027303 103.5010650  23.4770932  30.6332007
 104.6131040  22.4541937  30.5387313  99.9359559  16.7415166  32.9560564
  99.5657347  16.1886206  33.6441470 100.4318652  16.1373299  32.4035564
 107.8226923  19.1986789  31.3377337 108.2887375  20.0314781  31.2637640
 108.2734423  18.7331771  32.0422596  97.7648758  27.2012661  40.0515582
  98.4658218  27.8349144  40.2044977  97.2943873  27.5427392  39.2911222
 105.8903154  25.5430610  28.3363489 106.1662998  25.4287205  29.2457363
 105.0207653  25.1448095  28.2975662 105.7943586  11.5667376  35.3768239
 104.8806665  11.7971603  35.5450446 106.2236687  11.6505820  36.2282271
 105.5650044  19.7557268  37.8768133 104.9121494  20.0033175  37.2220585
 105.9430424  18.9421406  37.5430610 102.5257218  29.7916961  31.9796303
 102.7079612  28.9738617  32.4424055 103.3490204  30.0084653  31.5421193
 102.8599383  28.7185146  29.2411351 103.3887150  28.2077601  28.6281514
 103.1227603  28.4027677  30.1056884 101.6137617  20.4977079  44.3634170
 100.9378254  20.3971208  45.0336545 102.4365251  20.3416293  44.8270167
  93.3616476  26.7349016  36.9846685  93.9469913  25.9892704  37.1174589
  93.1641315  27.0452972  37.8683349  96.2155131  29.7700263  32.0009127
  95.5465507  30.2546391  31.5173167  96.0768001  30.0169483  32.9152506
  87.9534131  19.3054616  35.7051128  87.9918230  18.7718207  36.4988246
  87.4474424  18.7789821  35.0862105 100.3560400  31.8044007  38.5991786
 100.9078708  31.9675628  39.3640871 100.6966593  32.3948444  37.9271811
  95.3324893  14.1519156  39.2013670  95.3966220  15.0133987  38.7891068
  95.2692013  13.5393158  38.4686029  94.8077166  16.2242289  42.8486705
  95.4349204  15.8419366  43.4624229  93.9505085  16.0056491  43.2142397
 105.2071274  26.6305264  44.4540440 105.7511178  27.2435222  43.9595395
 104.6258119  27.1884842  44.9707453  91.5842708  18.0318718  28.7805060
  91.8796150  17.1229396  28.7272113  90.6830744  18.0106457  28.4586062
 103.4928787  29.7525982  35.5855468 103.3679927  28.9515722  35.0766413
 104.1507878  30.2472175  35.0969438  95.1136955  16.1074715  34.7632608
  94.3923541  16.7210682  34.6240081  95.9030211  16.6432479  34.6849254
 105.5563696  27.5535002  37.2135018 104.6094031  27.4340353  37.1413345
 105.9046469  26.6657500  37.2961279  97.9163269  13.4429141  41.0373260
  98.4397671  13.6891438  41.7999569  97.6975602  14.2749176  40.6176397
  93.3130550  15.7132816  28.9044385  92.9843256  14.8330195  28.7219491
  93.6669921  15.6580484  29.7920774 102.5610129  27.3487718  33.4139370
 102.4135091  26.4204426  33.5946940 103.3863622  27.3707809  32.9296445
  96.4272373  16.0005785  29.2719862  96.7668446  16.5291707  28.5498471
  96.8744494  16.3386192  30.0478429 106.1644251  28.1716277  34.5004243
 107.0890798  27.9659138  34.3628694 105.9959554  27.9232678  35.4093584
  99.1215814  14.3842836  38.7222930  98.7812634  13.5850649  39.1243610
  98.4154820  14.6844547  38.1499764  99.7732286  11.4692149  37.1750253
 100.5958355  10.9952627  37.0529144 100.0170349  12.2482632  37.6748940
  98.4140520  14.4980407  27.4713155  99.1348883  14.8761660  26.9676872
  97.7905824  15.2169284  27.5748133 102.5571643  15.2025556  28.4071487
 102.7735258  16.0850194  28.1060316 102.0765710  14.8111769  27.6777129
  97.2970865  18.1611269  34.9842232  97.1515445  18.4751572  35.8766514
  96.8196068  18.7796170  34.4313131  99.1567247  15.1513817  35.0323122
  99.1428816  14.2554911  34.6955420  99.8739676  15.1584481  35.6661408
 101.0093378  15.5851157  37.0776249 100.7511156  16.5068228  37.0760579
 100.4778419  15.1881592  37.7676713 105.9539567  28.6901945  29.8566334
 106.1276444  28.1248367  29.1040187 106.4468458  29.4902839  29.6745824
  91.7716527  20.7016614  37.9229893  91.2269995  21.4776422  38.0550168
  92.6495877  21.0487418  37.7649015  98.5604143  14.0328198  30.3010692
  98.6820055  13.1044844  30.5001579  98.2706186  14.0466883  29.3889007
 101.4295334  11.7183108  33.4377412 101.4517031  11.7822441  32.4829391
 101.8463393  10.8787617  33.6317918 111.8078958  21.4538367  31.4756634
 112.2510104  20.7045693  31.0775757 110.9305468  21.4448504  31.0930366
 106.9414739  28.0068709  26.9563233 107.6365644  28.6275402  27.1750547
 107.2837890  27.1564060  27.2315611  92.5582549  19.8286510  40.8160050
  91.8164285  19.9769145  41.4024681  92.2375293  20.0894776  39.9526800
 108.8406163  25.4568414  28.4850563 109.3657487  25.7955687  27.7599883
 108.7528515  24.5215430  28.3013698 100.5026211  29.3702488  40.6140440
 100.8113338  29.1251635  41.4863140 101.3001693  29.5749127  40.1259310
 100.5246823  31.5240398  32.8445817 100.0851814  31.0316776  33.5378673
 101.2754940  30.9813365  32.6037892  93.0039162  27.7151939  32.8470445
  93.8297182  27.4155710  32.4669088  92.6533214  26.9459561  33.2960233
  97.9720695  27.0678407  34.9168118  97.3500705  26.4049112  34.6170346
  98.6425562  27.0939539  34.2341766  91.2047767  25.6338265  33.8059378
  90.3679676  25.2060439  33.6243380  91.1771413  25.8270708  34.7430170
  98.0445223  15.5460195  44.5100624  98.0933378  16.4222318  44.1278394
  98.5867737  15.0037588  43.9372268 108.5300069  26.0901318  43.7901761
 107.7395612  26.0725457  43.2506261 108.2933423  26.6289612  44.5450798
 108.6497944  22.9393784  41.1034490 108.6995949  22.7743792  42.0450013
 108.5411867  22.0721044  40.7132371  97.5334202  25.6182330  28.3926579
  97.6822323  26.3017795  27.7393252  98.3400646  25.5987420  28.9076035
 105.9401706  18.9224713  42.4193797 106.8411569  18.7831177  42.1277794
 106.0149681  19.0879167  43.3591974 100.2744511  16.2991567  41.2646983
  99.4047821  16.5925133  40.9929572 100.5103992  16.8832012  41.9854247
 110.1516140  25.3590726  41.3476512 109.8600949  25.7220707  42.1839972
 109.5388272  24.6457734  41.1689844 111.3511823  22.9243606  33.8679082
 112.1858714  23.3633410  34.0316642 111.4870952  22.4482259  33.0487327
 108.4003329  20.4823341  39.8156569 108.8757450  20.6750987  39.0075421
 107.4768894  20.5382526  39.5699953  95.2886835  21.6447508  29.3987648
  95.0432877  20.7409838  29.5967858  95.4582750  21.6464658  28.4567126
 102.9783545  12.5171184  38.7812403 103.4965489  13.2532211  38.4558892
 102.6238678  12.8235177  39.6159163  94.5582483  17.3775865  26.8973809
  93.8651728  17.4520220  26.2413845  94.3134235  16.6136209  27.4195326
 103.2296139   8.9371467  34.3013300 103.5097893   8.2694656  34.9273727
 104.0146746   9.1300562  33.7887964 101.0329608  28.1130461  25.8638326
 100.4603575  28.7320648  25.4108798 101.6062402  28.6629822  26.3978248
 107.1004998  17.3589101  38.0484875 108.0522421  17.4587198  38.0697099
 106.9308448  16.5667369  38.5582959 105.1219377  14.4444684  38.2344276
 104.5269309  14.7249697  37.5390765 104.8369074  14.9338585  39.0061017
 104.2526868  28.3967611  26.9946909 105.1857541  28.3313172  27.1979784
 104.1650080  29.2323878  26.5361441 106.8814884  27.7133481  23.9550856
 106.8028516  27.3793345  24.8486614 107.7024551  28.2055249  23.9542328
 109.5793076  20.5795220  37.1627175 109.5469396  19.6411221  37.3486859
 110.1893699  20.6579257  36.4293000 101.4176406  19.4491273  23.2054379
 102.3635511  19.3197481  23.2742797 101.0390651  18.7105935  23.6823807
 109.7287564  17.3706264  37.2085458 109.2126613  16.5864720  37.0215387
 110.6127513  17.0424980  37.3731977 107.3898291  11.1147279  33.1681271
 107.1923112  10.8062368  34.0524603 107.9997997  11.8408918  33.2979200
 115.3969625  21.6411227  36.3033212 116.1273014  21.3796515  36.8640915
 114.7876571  20.9039949  36.3435280 113.4784922  19.7819090  36.9007663
 112.7518086  19.6475055  36.2924154 113.0632209  20.0895918  37.7064381
 101.3015099  23.5009020  44.6655036 102.2218108  23.6787619  44.8595082
 101.2664682  22.5565065  44.5134735  99.6019324  17.3741250  23.1409264
  98.6950779  17.0774362  23.2171978  99.8795305  17.0771068  22.2743550
  90.5197264  18.6947613  33.5908310  90.2000048  17.8412921  33.2982684
  89.9730692  18.9096191  34.3466278  94.2977171  21.4110054  37.3077817
  94.5163181  22.3427162  37.3265851  94.7102945  21.0518029  38.0932621
 101.2181389  11.9178139  29.2953505 100.4082118  11.5725224  29.6708751
 101.9065806  11.6085683  29.8841117 103.1471938  10.9956186  30.9177802
 103.7002976  11.4151640  31.5767825 103.3842024  10.0691934  30.9600758
  99.1705037  16.9843260  46.6980566  99.0701764  17.9337617  46.6292657
  98.9526579  16.6561499  45.8256636  98.3718108  14.2328185  23.2821243
  99.2337272  14.5583083  23.5417061  98.5568452  13.4459681  22.7694309
  90.3885524  22.3150525  35.5601432  89.6948995  21.9004477  35.0471386
  91.1358515  22.3571061  34.9634851 106.5250745  13.1056711  30.4256466
 105.9449414  13.7641515  30.0434519 106.2586677  12.2834056  30.0143884
 104.9754311  12.5061769  32.6277787 105.4754089  12.6178304  31.8192105
 105.6189919  12.2022822  33.2678595  99.0336307  20.4140399  45.5145628
  98.5503389  21.2140759  45.7209517  99.1197246  20.4248344  44.5613071
  92.3022266  22.2468778  33.4367447  92.2792955  22.3456466  32.4849330
  92.6122903  23.0933929  33.7584613  94.9609644  24.3044933  37.5514061
  95.9152898  24.2728876  37.4843993  94.7622168  23.8435557  38.3664287
  95.5509026  22.8746050  40.1184859  96.3701915  23.3690128  40.1419696
  95.8245834  21.9578018  40.0902426 105.3075623  15.2656802  29.4812814
 104.4201478  15.5506452  29.2633009 105.7229612  15.1050565  28.6340091
 108.6590159  15.2903323  33.1967154 109.4350549  15.7799775  33.4691771
 107.9338293  15.7161377  33.6539023 111.0962717  16.0030942  34.2541094
 111.6907208  15.7626678  33.5434403 111.1689301  15.2838073  34.8814631
  93.3159873  29.8464553  34.5684259  93.1814341  29.0864954  34.0022257
  92.8991935  30.5705453  34.1013048 104.4518836  25.0301477  23.5760834
 105.1554686  25.2351479  24.1918490 103.7281485  25.5978238  23.8409918
 105.2816646  20.7811338  29.6963105 105.2251848  21.2379889  28.8570737
 105.8344989  20.0202022  29.5185947 109.0921452  16.5701070  30.5213224
 108.8358387  16.1697705  31.3521432 108.4674320  17.2844864  30.3963363
 113.4033790  19.3097143  33.0284516 112.8433348  19.3790332  33.8016078
 112.7977294  19.1338128  32.3084012  96.4728999  30.7433870  34.7802702
  96.3561383  31.6879302  34.6781392  95.6521445  30.4407432  35.1688501
 106.3605534  25.4684006  25.6259295 107.1951137  25.0365204  25.4436769
 106.1989876  25.2966019  26.5536189 106.0151426  21.9716119  26.9915634
 105.9600230  21.8060390  26.0504078 105.3897481  22.6792152  27.1477824
  90.8043941  17.2084183  40.8177056  91.4502804  16.6983137  41.3064281
  90.5961092  17.9452865  41.3920481 103.3297333  24.2765031  46.3169197
 104.1988493  24.4505683  45.9555832 102.8504084  25.0959448  46.1944926
  99.3247551  11.4724228  26.5700952  99.3126221  12.4166068  26.7269223
 100.2170973  11.2894373  26.2760413  97.4983513  31.3962132  37.9958630
  98.4010760  31.4285742  38.3125125  97.2720883  30.4662583  38.0104966
  99.2537115  30.1493118  34.6568709  98.3032746  30.1494980  34.5433081
  99.5569601  29.4025853  34.1404743 103.1399671   8.0667005  30.8246889
 102.3732066   7.5125491  30.9703571 103.5510376   8.1388873  31.6861041
  95.1441432  14.3551800  44.9152070  96.0072893  13.9988605  45.1255395
  94.5706842  14.0165695  45.6027475 114.9889809  35.9853657  35.7214471
 115.6268219  35.8660404  35.0177811 114.8710652  36.9334501  35.7802423
 111.7979515  35.9381085  35.6575996 111.4598026  35.8222150  34.7696531
 112.6669283  35.5372250  35.6377002 107.6566331  37.7916561  31.6472887
 107.0931196  37.7006498  30.8789175 107.5418726  36.9716466  32.1275379
 112.2799298  37.0915937  41.6162201 112.2687939  36.6968735  40.7442705
 112.4419937  36.3582009  42.2095973 105.2030763  39.2867753  34.4857107
 105.9952054  38.9458578  34.0703407 105.4427413  39.3962728  35.4059261
 113.2365889  41.4587529  26.9587352 112.5853869  42.0441609  26.5721366
 114.0310252  41.9893724  27.0182389 107.1621516  38.5476666  27.3574486
 107.9352392  38.0005653  27.2187362 107.5146915  39.4120916  27.5688948
 109.0006559  39.8753048  40.5641385 108.7096425  40.7798679  40.4488052
 109.6363543  39.9169576  41.2785455 109.9262766  37.2529897  37.1542745
 110.5226338  37.0285919  36.4399708 109.9837737  36.5114642  37.7568193
 109.4987794  34.7069332  24.9892936 109.7513315  34.1850854  24.2276399
 108.5612353  34.5435478  25.0919620 114.5431077  33.7105111  32.7967679
 115.3294166  33.2924534  32.4458096 114.8069781  34.6151203  32.9649328
 114.7141154  39.1477961  27.4956336 114.0786987  39.2212588  28.2077241
 114.3838561  39.7371560  26.8175415 119.9439504  33.6480344  33.7000658
 120.6764676  33.0779561  33.9338487 119.1878860  33.2601944  34.1407163
 109.2184083  36.6097438  27.1917311 109.1020341  35.9342342  27.8598395
 109.3286343  36.1229812  26.3749464 111.5615624  36.0707585  30.8964000
 111.1973831  35.5438206  31.6076922 112.4182740  35.6806054  30.7230486
 117.4664925  27.3601918  38.1595266 117.1348249  28.2297329  37.9356481
 116.8710538  27.0438202  38.8389297 111.2021111  31.0997485  25.8925349
 111.3695513  31.9677721  26.2595820 111.0118280  31.2624767  24.9686638
 113.9596444  39.5614464  37.5591179 113.6597167  40.4639503  37.4506986
 113.6147504  39.2946647  38.4112332 107.4108926  36.0128261  33.5927884
 106.4859422  35.8804475  33.8005575 107.6593339  36.7922480  34.0897826
 117.3593588  32.0797004  35.2388616 116.4510465  32.0112413  34.9447377
 117.3081184  32.5568949  36.0670442 111.1810332  33.5555143  26.8772016
 111.0609957  34.0012193  27.7157496 110.4862920  33.9040460  26.3185554
 104.7717737  35.6561534  34.4271673 104.9010118  35.9096013  35.3411084
 104.0915188  36.2489242  34.1076328 108.9417224  46.3258784  30.5262147
 108.8641254  47.2766609  30.6050627 108.3378868  45.9804657  31.1837073
 111.4334454  33.4986650  43.1823514 110.6567788  34.0580570  43.1726378
 112.0725017  33.9843433  43.7038384 119.2255234  30.2813443  37.0166490
 118.5829615  30.5745976  36.3706285 118.7210163  30.1666363  37.8219687
 116.8795398  34.0276616  27.7052350 117.7913254  34.2604003  27.5300047
 116.3705045  34.6113660  27.1427428 109.6880826  36.3072103  42.7441481
 110.4295510  36.8457147  42.4676304 108.9817811  36.9338392  42.9013033
 115.1636166  38.4501244  41.3413642 115.5719522  38.0083654  40.5968275
 114.4413427  37.8753871  41.5947835 111.5167236  33.3873850  38.7147199
 112.3628431  33.8113264  38.8581848 111.4565873  32.7307475  39.4085762
 115.4864980  39.0102434  35.0965931 114.8573843  39.1748148  34.3941999
 115.0990642  39.4244044  35.8676895 119.3654212  39.9456872  32.4510295
 118.6805250  40.3255773  31.9007328 119.4498061  40.5552199  33.1842243
 114.6666681  31.0478219  40.3728373 114.4227613  31.8020279  39.8362648
 114.9426612  31.4263566  41.2075620 116.6205144  37.5916831  39.0505638
 116.8322039  38.2348591  38.3740019 116.5734892  36.7579148  38.5827568
 114.2231373  30.2034652  35.9542211 113.3615852  30.5015905  36.2458948
 114.2493807  30.4205051  35.0223243 111.0392942  38.7476842  32.3616016
 111.5031288  39.0264545  31.5720639 110.7749740  37.8460287  32.1789107
 107.9317023  38.2948324  35.2995779 108.5018380  38.7235592  34.6613264
 108.5225135  38.0130909  35.9979965 109.9761828  34.8699995  29.1705581
 110.6785872  35.3221038  29.6379508 109.6442457  34.2283814  29.7985474
 108.4242190  33.4611751  43.5456791 107.7940850  34.1428032  43.7792188
 108.3178278  33.3494833  42.6009929 103.7187162  33.1283547  34.4722715
 102.9286216  33.3841076  33.9962826 104.2098410  33.9431885  34.5774755
 117.7350972  40.4688787  37.2227996 118.5568415  40.0668974  36.9410677
 117.7313375  40.3657021  38.1744112 105.6701908  33.4928127  31.4306192
 104.8733071  33.6046821  31.9489687 105.4427500  33.8314779  30.5647082
 111.5007575  40.0172830  39.3788706 111.5652008  40.4793237  40.2146878
 110.7918499  39.3870195  39.5071016 102.0024865  33.3814038  36.9037706
 102.2532904  34.2661048  37.1695282 102.5384414  33.2018639  36.1312798
 125.8256965  36.8127535  33.5712967 125.0720673  36.2434933  33.4156972
 125.9604506  36.7790199  34.5183602 111.2155593  41.6840937  29.2467687
 111.0801268  42.5292473  29.6752534 111.7565405  41.8860215  28.4833620
 107.7022932  27.7632517  45.9082042 107.3089878  27.2098716  46.5829686
 108.5189073  28.0743096  46.2988559 104.6684990  39.2016375  29.8195612
 105.1809511  39.9959626  29.9701176 105.3207703  38.5042666  29.7529213
 106.4779875  42.3182132  31.9018365 106.6546503  43.2400096  31.7139349
 107.2736708  42.0040551  32.3312745 110.6190893  29.1790396  43.5002298
 111.3600607  29.7797549  43.4206761 110.8508816  28.4368034  42.9420341
 105.7632231  34.3646763  41.7780528 105.6485747  33.4632021  42.0787627
 104.9076749  34.6110460  41.4265345 112.8424069  42.3064504  43.3768029
 112.3987923  41.5200882  43.0588933 113.5041283  42.4943654  42.7111919
 107.6011190  43.8360305  37.9028707 108.1518616  43.7077369  37.1305701
 106.7622666  44.1355194  37.5523600 114.9405307  42.5867304  41.4049430
 114.9223783  43.4076185  40.9129699 115.8625227  42.4621379  41.6299571
 111.3978361  40.1011433  42.2472938 111.9306698  39.3399721  42.0172246
 110.8692443  39.8085085  42.9897093 114.5648056  25.2071499  37.7766580
 114.2212326  26.0973141  37.7005691 114.9327019  25.0173157  36.9136165
 102.6333907  37.5305030  30.5955182 103.4709129  37.9402038  30.3788890
 102.8112175  36.5904472  30.5655376 114.5298339  35.1980110  26.2839015
 114.0144963  35.9684715  26.5227403 114.2575648  34.5245246  26.9072077
 112.1145450  30.0429811  31.3424254 111.2587046  29.6536661  31.1629892
 112.5272402  30.1221772  30.4824039 113.6444597  27.5776154  35.7415813
 113.1409392  27.5406289  34.9283619 113.9375204  28.4868897  35.8012470
 109.8887483  27.6614884  34.7481995 110.7540479  27.4657693  34.3887884
 109.9564992  27.4325236  35.6751352 119.5032613  37.9512465  28.2192189
 118.7262056  37.6123624  27.7747351 120.1824094  37.9565088  27.5447154
 114.3184642  33.0707202  28.1098796 114.0134778  33.3853352  28.9608940
 115.2715084  33.1488622  28.1526129 112.7631074  39.2297426  29.7591750
 112.2352436  38.4950185  29.4464988 112.2618577  40.0072102  29.5131719
 117.7423920  37.4246446  34.8758797 117.0847595  38.1145708  34.9638925
 118.5464319  37.8142878  35.2192783 107.4949802  29.8917092  32.1198362
 108.0693554  29.6692273  31.3871555 108.0820784  29.9605786  32.8726963
 116.5529379  35.7790819  32.9262738 117.0661261  36.4120811  33.4284448
 117.2030603  35.1792014  32.5606098 107.8219389  31.9221553  26.1394247
 106.9856701  32.2596240  26.4603522 107.6824159  31.7870533  25.2021384
 109.7972469  26.7658341  30.8473431 109.1436882  26.4507358  30.2230046
 109.7552944  26.1434081  31.5733254 110.9083674  37.0477636  22.7626723
 110.0010736  36.8166889  22.9617872 111.4054706  36.2515255  22.9500705
 113.8151753  45.7575143  25.6823409 113.1413452  46.0606840  26.2908367
 114.2017575  46.5604223  25.3328867 113.0310210  33.2540274  35.1721079
 112.1132771  33.4755221  35.0142767 113.4470353  33.3286585  34.3132786
 113.8145258  34.6531690  30.3023759 114.5617077  35.1653087  29.9930881
 114.0836847  34.3315743  31.1628153 112.0871908  37.1490231  27.2850713
 111.1783127  36.8649264  27.3823183 112.1166992  37.5689309  26.4254020
 117.3191175  40.7596820  31.0541881 116.8653502  39.9187730  31.1107071
 116.6885142  41.3958219  31.3916661 116.2624095  31.6888806  32.2842548
 115.5246852  31.1766193  32.6152791 116.5150868  31.2489188  31.4725825
 115.7624114  42.5973317  31.9891699 116.0547089  43.1578374  31.2704065
 116.2722735  42.8901878  32.7444858 116.3635722  24.4665058  32.8784318
 116.6694599  23.6062422  32.5910233 117.0888327  25.0582679  32.6783312
 102.6560078  34.8695745  31.2665916 102.4584478  34.2765106  30.5416982
 102.1006742  34.5647955  31.9841854 110.6356802  34.7618851  33.3860509
 110.6905412  33.8092688  33.3102985 109.8248004  34.9178291  33.8701807
 111.7847996  38.6898974  24.6238792 111.3467425  37.9734833  24.1644429
 112.5258436  38.9175089  24.0623883 108.5749162  33.3795911  31.1450888
 107.7617027  33.6790082  31.5516080 109.0708156  32.9851600  31.8625370
 110.7257740  43.3753668  33.0785152 110.6833918  43.6014514  32.1493684
 111.6420438  43.1417043  33.2270953 114.1723373  33.8437736  39.9765782
 114.5272761  34.0709209  40.8360247 114.8195505  34.1756112  39.3543037
 119.9021110  36.9656172  30.6815111 119.7639009  37.1557767  29.7536300
 119.5457329  37.7275554  31.1383162 108.0663236  30.9514267  36.7612123
 108.7062616  30.8103026  36.0635086 107.2340767  30.6648780  36.3850725
 119.9290490  39.0332699  35.6926382 120.3626997  38.9407988  36.5409436
 120.6422071  39.0090199  35.0546398 108.8423540  40.2516697  32.8747115
 109.6364139  39.7567017  32.6729690 108.1315233  39.7234560  32.5114821
 113.6618385  42.6334793  37.2259483 113.7155407  43.2025729  37.9937199
 112.7933166  42.8036678  36.8613520 105.1506304  34.3959779  28.9506868
 104.2203892  34.3344234  29.1676830 105.2463776  33.8735732  28.1543509
 105.0691853  30.9214592  31.5385109 105.3298670  31.8359925  31.4294270
 105.8909025  30.4539034  31.6881722 106.5416778  32.3352349  38.7083934
 107.2139832  32.1269711  38.0596583 105.7146565  32.1374435  38.2689166
 120.7906040  39.0756399  38.2259267 120.9841930  39.9802210  38.4718542
 120.6906658  38.6163818  39.0597853 112.4442350  28.9614290  40.7249595
 111.7970265  29.6604239  40.6314071 113.2143366  29.3950434  41.0925843
 115.8521148  39.2263142  43.8000148 115.7006655  38.9973694  42.8830232
 115.8425828  40.1833743  43.8131493 112.6206485  36.7995055  38.7846415
 113.5498545  36.9506214  38.6115382 112.1997515  36.8879075  37.9295061
 111.4194816  40.8245719  36.5544952 111.2805902  40.4564503  37.4270890
 110.6309413  41.3393359  36.3828910 112.0142968  45.9254816  27.8970489
 112.1894724  45.4542859  28.7116111 111.3275756  46.5520582  28.1251749
 112.9700032  40.2027322  33.9433790 112.6349864  40.1628092  34.8391440
 112.4703977  39.5372038  33.4704200 106.9444275  35.6094952  39.4686371
 106.8064073  34.8775191  40.0697910 107.8549199  35.5203852  39.1870559
 115.9059223  37.5483356  24.2170850 115.2888394  36.8230184  24.1203902
 115.4375712  38.3092716  23.8737924 109.5726576  35.3214911  38.9570051
 110.2826195  34.6808103  38.9156669 109.5295884  35.5727806  39.8796232
 117.5613355  42.2582264  41.8776630 117.5025901  41.5741485  41.2107213
 117.9632873  43.0001254  41.4257256 108.2855510  32.3080129  40.7765690
 107.7492867  31.8570867  41.4287287 107.6972219  32.4426038  40.0336155
 106.5804054  49.0744178  34.6710349 106.8200652  49.7062702  35.3489367
 105.7373250  48.7232218  34.9575708 107.6957769  31.7668780  23.3392154
 106.8187235  31.6457581  22.9754401 108.1715522  30.9754859  23.0871043
 117.5630762  40.2221848  40.1090610 116.6757541  39.8847770  40.2317008
 118.1329313  39.4904880  40.3459375  99.2159909  36.5545940  33.4333661
  99.9030949  36.2407670  32.8454676  99.0608038  37.4587305  33.1600912
 104.0194631  31.4436137  37.8618685 103.9352820  30.8361806  37.1269095
 103.1977338  31.9345155  37.8628181 111.0931916  44.8823301  37.0751853
 111.0202087  45.6878272  37.5871157 110.6509309  45.0815267  36.2499874
 110.8821695  44.1195071  30.5854674 110.0989217  44.6616751  30.6792899
 111.5814440  44.6369050  30.9848916 114.1918345  29.9289700  33.2288880
 114.6887045  29.1759663  32.9089950 113.4205327  29.9654017  32.6632089
 122.0448103  35.6330066  34.8707171 122.0337979  36.5154781  34.5001104
 121.1765482  35.2801617  34.6761708 113.5530599  44.7810135  39.2310011
 114.2658571  45.4157600  39.1585913 113.0620628  44.8774001  38.4150013
 115.2748126  38.6861387  30.8027303 114.3404405  38.8062850  30.6332007
 115.4524794  37.7833854  30.5387313 110.7753314  32.0707083  32.9560564
 110.4051102  31.5178124  33.6441470 111.2712406  31.4665217  32.4035564
 118.6620677  34.5278707  31.3377337 119.1281129  35.3606698  31.2637640
 119.1128178  34.0623688  32.0422596 108.6042513  42.5304578  40.0515582
 109.3051972  43.1641061  40.2044977 108.1337628  42.8719310  39.2911222
 116.7296908  40.8722528  28.3363489 117.0056752  40.7579123  29.2457363
 115.8601407  40.4740013  28.2975662 116.6337340  26.8959294  35.3768239
 115.7200420  27.1263521  35.5450446 117.0630441  26.9797738  36.2282271
 116.4043799  35.0849186  37.8768133 115.7515249  35.3325093  37.2220585
 116.7824178  34.2713324  37.5430610 113.3650972  45.1208879  31.9796303
 113.5473367  44.3030535  32.4424055 114.1883958  45.3376571  31.5421193
 113.6993138  44.0477064  29.2411351 114.2280904  43.5369519  28.6281514
 113.9621357  43.7319594  30.1056884 112.4531372  35.8268997  44.3634170
 111.7772009  35.7263126  45.0336545 113.2759005  35.6708211  44.8270167
 104.2010231  42.0640933  36.9846685 104.7863667  41.3184621  37.1174589
 104.0035069  42.3744890  37.8683349 107.0548886  45.0992181  32.0009127
 106.3859261  45.5838308  31.5173167 106.9161756  45.3461401  32.9152506
  98.7927885  34.6346534  35.7051128  98.8311985  34.1010124  36.4988246
  98.2868178  34.1081739  35.0862105 111.1954154  47.1335924  38.5991786
 111.7472462  47.2967546  39.3640871 111.5360348  47.7240362  37.9271811
 106.1718648  29.4811074  39.2013670 106.2359974  30.3425905  38.7891068
 106.1085768  28.8685076  38.4686029 105.6470920  31.5534207  42.8486705
 106.2742959  31.1711284  43.4624229 104.7898839  31.3348408  43.2142397
 116.0465029  41.9597182  44.4540440 116.5904933  42.5727140  43.9595395
 115.4651874  42.5176760  44.9707453 102.4236463  33.3610636  28.7805060
 102.7189904  32.4521314  28.7272113 101.5224499  33.3398375  28.4586062
 114.3322542  45.0817900  35.5855468 114.2073681  44.2807640  35.0766413
 114.9901633  45.5764093  35.0969438 105.9530710  31.4366632  34.7632608
 105.2317296  32.0502600  34.6240081 106.7423966  31.9724397  34.6849254
 116.3957450  42.8826920  37.2135018 115.4487786  42.7632271  37.1413345
 116.7440223  41.9949418  37.2961279 108.7557023  28.7721059  41.0373260
 109.2791425  29.0183355  41.7999569 108.5369357  29.6041094  40.6176397
 104.1524305  31.0424733  28.9044385 103.8237011  30.1622112  28.7219491
 104.5063675  30.9872402  29.7920774 113.4003883  42.6779636  33.4139370
 113.2528846  41.7496343  33.5946940 114.2257377  42.6999727  32.9296445
 107.2666128  31.3297703  29.2719862 107.6062200  31.8583624  28.5498471
 107.7138248  31.6678109  30.0478429 117.0038005  43.5008195  34.5004243
 117.9284553  43.2951056  34.3628694 116.8353309  43.2524596  35.4093584
 109.9609568  29.7134754  38.7222930 109.6206389  28.9142567  39.1243610
 109.2548575  30.0136465  38.1499764 110.6126040  26.7984066  37.1750253
 111.4352110  26.3244544  37.0529144 110.8564104  27.5774550  37.6748940
 109.2534275  29.8272325  27.4713155 109.9742637  30.2053578  26.9676872
 108.6299579  30.5461202  27.5748133 113.3965398  30.5317474  28.4071487
 113.6129012  31.4142112  28.1060316 112.9159465  30.1403687  27.6777129
 108.1364619  33.4903187  34.9842232 107.9909200  33.8043490  35.8766514
 107.6589823  34.1088087  34.4313131 109.9961002  30.4805735  35.0323122
 109.9822571  29.5846828  34.6955420 110.7133430  30.4876399  35.6661408
 111.8487133  30.9143075  37.0776249 111.5904910  31.8360146  37.0760579
 111.3172173  30.5173510  37.7676713 116.7933321  44.0193862  29.8566334
 116.9670199  43.4540285  29.1040187 117.2862213  44.8194757  29.6745824
 102.6110281  36.0308531  37.9229893 102.0663749  36.8068339  38.0550168
 103.4889631  36.3779336  37.7649015 109.3997898  29.3620115  30.3010692
 109.5213809  28.4336761  30.5001579 109.1099940  29.3758801  29.3889007
 112.2689088  27.0475026  33.4377412 112.2910785  27.1114359  32.4829391
 112.6857147  26.2079534  33.6317918 122.6472713  36.7830285  31.4756634
 123.0903859  36.0337610  31.0775757 121.7699223  36.7740422  31.0930366
 117.7808494  43.3360627  26.9563233 118.4759399  43.9567319  27.1750547
 118.1231644  42.4855978  27.2315611 103.3976303  35.1578428  40.8160050
 102.6558039  35.3061063  41.4024681 103.0769047  35.4186693  39.9526800
 119.6799917  40.7860332  28.4850563 120.2051241  41.1247605  27.7599883
 119.5922270  39.8507347  28.3013698 111.3419966  44.6994406  40.6140440
 111.6507092  44.4543553  41.4863140 112.1395448  44.9041044  40.1259310
 111.3640578  46.8532315  32.8445817 110.9245568  46.3608694  33.5378673
 112.1148695  46.3105283  32.6037892 103.8432917  43.0443856  32.8470445
 104.6690937  42.7447628  32.4669088 103.4926969  42.2751479  33.2960233
 108.8114450  42.3970325  34.9168118 108.1894459  41.7341030  34.6170346
 109.4819317  42.4231456  34.2341766 102.0441522  40.9630183  33.8059378
 101.2073430  40.5352357  33.6243380 102.0165167  41.1562626  34.7430170
 108.8838977  30.8752113  44.5100624 108.9327133  31.7514235  44.1278394
 109.4261492  30.3329506  43.9372268 119.3693823  41.4193236  43.7901761
 118.5789367  41.4017375  43.2506261 119.1327178  41.9581529  44.5450798
 119.4891698  38.2685702  41.1034490 119.5389703  38.1035710  42.0450013
 119.3805622  37.4012961  40.7132371 108.3727957  40.9474248  28.3926579
 108.5216077  41.6309712  27.7393252 109.1794400  40.9279338  28.9076035
 116.7795461  34.2516630  42.4193797 117.6805323  34.1123095  42.1277794
 116.8543435  34.4171085  43.3591974 111.1138266  31.6283485  41.2646983
 110.2441575  31.9217051  40.9929572 111.3497746  32.2123930  41.9854247
 120.9909895  40.6882644  41.3476512 120.6994703  41.0512624  42.1839972
 120.3782026  39.9749652  41.1689844 122.1905577  38.2535523  33.8679082
 123.0252469  38.6925328  34.0316642 122.3264706  37.7774177  33.0487327
 119.2397083  35.8115258  39.8156569 119.7151205  36.0042905  39.0075421
 118.3162649  35.8674444  39.5699953 106.1280590  36.9739426  29.3987648
 105.8826632  36.0701755  29.5967858 106.2976504  36.9756576  28.4567126
 113.8177300  27.8463102  38.7812403 114.3359244  28.5824129  38.4558892
 113.4632432  28.1527095  39.6159163 105.3976237  32.7067783  26.8973809
 104.7045482  32.7812138  26.2413845 105.1527989  31.9428127  27.4195326
 114.0689894  24.2663384  34.3013300 114.3491648  23.5986573  34.9273727
 114.8540501  24.4592480  33.7887964 111.8723362  43.4422378  25.8638326
 111.2997329  44.0612565  25.4108798 112.4456156  43.9921740  26.3978248
 117.9398752  32.6881018  38.0484875 118.8916175  32.7879116  38.0697099
 117.7702203  31.8959287  38.5582959 115.9613132  29.7736602  38.2344276
 115.3663064  30.0541614  37.5390765 115.6762828  30.2630503  39.0061017
 115.0920622  43.7259528  26.9946909 116.0251295  43.6605090  27.1979784
 115.0043835  44.5615795  26.5361441 117.7208639  43.0425399  23.9550856
 117.6422270  42.7085262  24.8486614 118.5418306  43.5347167  23.9542328
 120.4186830  35.9087138  37.1627175 120.3863150  34.9703139  37.3486859
 121.0287454  35.9871175  36.4293000 112.2570161  34.7783191  23.2054379
 113.2029266  34.6489399  23.2742797 111.8784406  34.0397853  23.6823807
 120.5681318  32.6998182  37.2085458 120.0520367  31.9156638  37.0215387
 121.4521267  32.3716898  37.3731977 118.2292045  26.4439197  33.1681271
 118.0316867  26.1354285  34.0524603 118.8391751  27.1700836  33.2979200
 126.2363380  36.9703145  36.3033212 126.9666768  36.7088433  36.8640915
 125.6270325  36.2331867  36.3435280 124.3178677  35.1111008  36.9007663
 123.5911841  34.9766972  36.2924154 123.9025964  35.4187836  37.7064381
 112.1408853  38.8300937  44.6655036 113.0611863  39.0079536  44.8595082
 112.1058436  37.8856983  44.5134735 110.4413078  32.7033167  23.1409264
 109.5344533  32.4066280  23.2171978 110.7189059  32.4062986  22.2743550
 101.3591018  34.0239531  33.5908310 101.0393803  33.1704839  33.2982684
 100.8124447  34.2388109  34.3466278 105.1370926  36.7401972  37.3077817
 105.3556936  37.6719080  37.3265851 105.5496700  36.3809946  38.0932621
 112.0575144  27.2470057  29.2953505 111.2475872  26.9017142  29.6708751
 112.7459561  26.9377601  29.8841117 113.9865692  26.3248104  30.9177802
 114.5396731  26.7443557  31.5767825 114.2235778  25.3983852  30.9600758
 110.0098791  32.3135178  46.6980566 109.9095518  33.2629535  46.6292657
 109.7920333  31.9853417  45.8256636 109.2111863  29.5620103  23.2821243
 110.0731027  29.8875001  23.5417061 109.3962207  28.7751599  22.7694309
 101.2279278  37.6442442  35.5601432 100.5342750  37.2296395  35.0471386
 101.9752269  37.6862979  34.9634851 117.3644499  28.4348629  30.4256466
 116.7843168  29.0933433  30.0434519 117.0980432  27.6125974  30.0143884
 115.8148065  27.8353687  32.6277787 116.3147844  27.9470221  31.8192105
 116.4583673  27.5314740  33.2678595 109.8730061  35.7432316  45.5145628
 109.3897143  36.5432677  45.7209517 109.9591000  35.7540261  44.5613071
 103.1416021  37.5760696  33.4367447 103.1186709  37.6748383  32.4849330
 103.4516657  38.4225847  33.7584613 105.8003399  39.6336851  37.5514061
 106.7546652  39.6020793  37.4843993 105.6015922  39.1727475  38.3664287
 106.3902781  38.2037967  40.1184859 107.2095670  38.6982046  40.1419696
 106.6639589  37.2869935  40.0902426 116.1469377  30.5948720  29.4812814
 115.2595232  30.8798370  29.2633009 116.5623366  30.4342483  28.6340091
 119.4983913  30.6195240  33.1967154 120.2744303  31.1091693  33.4691771
 118.7732047  31.0453295  33.6539023 121.9356472  31.3322860  34.2541094
 122.5300963  31.0918596  33.5434403 122.0083056  30.6129990  34.8814631
 104.1553628  45.1756471  34.5684259 104.0208096  44.4156872  34.0022257
 103.7385690  45.8997371  34.1013048 115.2912591  40.3593394  23.5760834
 115.9948441  40.5643397  24.1918490 114.5675239  40.9270156  23.8409918
 116.1210401  36.1103255  29.6963105 116.0645602  36.5671807  28.8570737
 116.6738743  35.3493940  29.5185947 119.9315207  31.8992987  30.5213224
 119.6752141  31.4989623  31.3521432 119.3068075  32.6136781  30.3963363
 124.2427545  34.6389061  33.0284516 123.6827103  34.7082250  33.8016078
 123.6371048  34.4630045  32.3084012 107.3122753  46.0725788  34.7802702
 107.1955138  47.0171220  34.6781392 106.4915200  45.7699349  35.1688501
 117.1999288  40.7975923  25.6259295 118.0344892  40.3657122  25.4436769
 117.0383631  40.6257937  26.5536189 116.8545180  37.3008037  26.9915634
 116.7993984  37.1352308  26.0504078 116.2291235  38.0084070  27.1477824
 101.6437695  32.5376101  40.8177056 102.2896559  32.0275055  41.3064281
 101.4354846  33.2744783  41.3920481 114.1691087  39.6056949  46.3169197
 115.0382247  39.7797601  45.9555832 113.6897839  40.4251365  46.1944926
 110.1641306  26.8016146  26.5700952 110.1519975  27.7457986  26.7269223
 111.0564728  26.6186291  26.2760413 108.3377268  46.7254050  37.9958630
 109.2404514  46.7577660  38.3125125 108.1114638  45.7954501  38.0104966
 110.0930870  45.4785036  34.6568709 109.1426501  45.4786898  34.5433081
 110.3963356  44.7317771  34.1404743 113.9793425  23.3958922  30.8246889
 113.2125821  22.8417409  30.9703571 114.3904130  23.4680791  31.6861041
 105.9835186  29.6843718  44.9152070 106.8466648  29.3280523  45.1255395
 105.4100597  29.3457613  45.6027475 125.8283563  51.3145575  35.7214471
 126.4661973  51.1952322  35.0177811 125.7104406  52.2626418  35.7802423
 122.6373269  51.2673003  35.6575996 122.2991781  51.1514067  34.7696531
 123.5063038  50.8664168  35.6377002 118.4960085  53.1208479  31.6472887
 117.9324950  53.0298416  30.8789175 118.3812480  52.3008383  32.1275379
 123.1193052  52.4207854  41.6162201 123.1081693  52.0260653  40.7442705
 123.2813692  51.6873927  42.2095973 116.0424517  54.6159671  34.4857107
 116.8345809  54.2750495  34.0703407 116.2821167  54.7254646  35.4059261
 124.0759644  56.7879447  26.9587352 123.4247624  57.3733527  26.5721366
 124.8704007  57.3185642  27.0182389 118.0015271  53.8768584  27.3574486
 118.7746147  53.3297571  27.2187362 118.3540670  54.7412833  27.5688948
 119.8400314  55.2044966  40.5641385 119.5490180  56.1090597  40.4488052
 120.4757298  55.2461494  41.2785455 120.7656520  52.5821815  37.1542745
 121.3620093  52.3577837  36.4399708 120.8231492  51.8406560  37.7568193
 120.3381549  50.0361250  24.9892936 120.5907069  49.5142771  24.2276399
 119.4006108  49.8727395  25.0919620 125.3824832  49.0397028  32.7967679
 126.1687921  48.6216452  32.4458096 125.6463536  49.9443121  32.9649328
 125.5534909  54.4769879  27.4956336 124.9180742  54.5504505  28.2077241
 125.2232315  55.0663477  26.8175415 130.7833259  48.9772262  33.7000658
 131.5158431  48.4071478  33.9338487 130.0272614  48.5893862  34.1407163
 120.0577838  51.9389356  27.1917311 119.9414096  51.2634259  27.8598395
 120.1680097  51.4521730  26.3749464 122.4009378  51.3999503  30.8964000
 122.0367586  50.8730124  31.6076922 123.2576494  51.0097972  30.7230486
 128.3058679  42.6893836  38.1595266 127.9742004  43.5589247  37.9356481
 127.7104292  42.3730120  38.8389297 122.0414865  46.4289403  25.8925349
 122.2089268  47.2969639  26.2595820 121.8512034  46.5916684  24.9686638
 124.7990199  54.8906382  37.5591179 124.4990922  55.7931420  37.4506986
 124.4541258  54.6238565  38.4112332 118.2502680  51.3420178  33.5927884
 117.3253177  51.2096393  33.8005575 118.4987093  52.1214398  34.0897826
 128.1987342  47.4088922  35.2388616 127.2904220  47.3404330  34.9447377
 128.1474938  47.8860867  36.0670442 122.0204086  48.8847060  26.8772016
 121.9003712  49.3304111  27.7157496 121.3256675  49.2332378  26.3185554
 115.6111491  50.9853452  34.4271673 115.7403872  51.2387931  35.3411084
 114.9308942  51.5781160  34.1076328 119.7810978  61.6550702  30.5262147
 119.7035008  62.6058527  30.6050627 119.1772622  61.3096574  31.1837073
 122.2728208  48.8278567  43.1823514 121.4961542  49.3872488  43.1726378
 122.9118771  49.3135350  43.7038384 130.0648989  45.6105360  37.0166490
 129.4223369  45.9037893  36.3706285 129.5603917  45.4958281  37.8219687
 127.7189152  49.3568533  27.7052350 128.6307009  49.5895920  27.5300047
 127.2098800  49.9405578  27.1427428 120.5274580  51.6364021  42.7441481
 121.2689265  52.1749065  42.4676304 119.8211566  52.2630310  42.9013033
 126.0029920  53.7793161  41.3413642 126.4113276  53.3375572  40.5968275
 125.2807182  53.2045789  41.5947835 122.3560990  48.7165768  38.7147199
 123.2022185  49.1405182  38.8581848 122.2959628  48.0599392  39.4085762
 126.3258735  54.3394352  35.0965931 125.6967597  54.5040066  34.3941999
 125.9384397  54.7535961  35.8676895 130.2047967  55.2748790  32.4510295
 129.5199005  55.6547691  31.9007328 130.2891816  55.8844116  33.1842243
 125.5060436  46.3770136  40.3728373 125.2621367  47.1312197  39.8362648
 125.7820366  46.7555484  41.2075620 127.4598898  52.9208749  39.0505638
 127.6715794  53.5640509  38.3740019 127.4128647  52.0871065  38.5827568
 125.0625127  45.5326569  35.9542211 124.2009606  45.8307823  36.2458948
 125.0887562  45.7496968  35.0223243 121.8786697  54.0768760  32.3616016
 122.3425042  54.3556463  31.5720639 121.6143495  53.1752205  32.1789107
 118.7710778  53.6240242  35.2995779 119.3412135  54.0527510  34.6613264
 119.3618890  53.3422826  35.9979965 120.8155583  50.1991912  29.1705581
 121.5179626  50.6512956  29.6379508 120.4836211  49.5575731  29.7985474
 119.2635944  48.7903669  43.5456791 118.6334605  49.4719950  43.7792188
 119.1572032  48.6786751  42.6009929 114.5580917  48.4575465  34.4722715
 113.7679971  48.7132994  33.9962826 115.0492164  49.2723803  34.5774755
 128.5744726  55.7980704  37.2227996 129.3962170  55.3960891  36.9410677
 128.5707129  55.6948938  38.1744112 116.5095662  48.8220044  31.4306192
 115.7126825  48.9338738  31.9489687 116.2821254  49.1606696  30.5647082
 122.3401330  55.3464747  39.3788706 122.4045762  55.8085155  40.2146878
 121.6312254  54.7162112  39.5071016 112.8418620  48.7105955  36.9037706
 113.0926658  49.5952965  37.1695282 113.3778168  48.5310557  36.1312798
 136.6650719  52.1419453  33.5712967 135.9114428  51.5726851  33.4156972
 136.7998260  52.1082117  34.5183602 122.0549347  57.0132855  29.2467687
 121.9195022  57.8584391  29.6752534 122.5959160  57.2152133  28.4833620
 118.5416687  43.0924435  45.9082042 118.1483633  42.5390633  46.5829686
 119.3582827  43.4035013  46.2988559 115.5078745  54.5308293  29.8195612
 116.0203265  55.3251543  29.9701176 116.1601458  53.8334583  29.7529213
 117.3173629  57.6474049  31.9018365 117.4940258  58.5692014  31.7139349
 118.1130463  57.3332468  32.3312745 121.4584648  44.5082314  43.5002298
 122.1994361  45.1089467  43.4206761 121.6902571  43.7659952  42.9420341
 116.6025986  49.6938681  41.7780528 116.4879501  48.7923938  42.0787627
 115.7470504  49.9402378  41.4265345 123.6817824  57.6356421  43.3768029
 123.2381678  56.8492800  43.0588933 124.3435037  57.8235572  42.7111919
 118.4404945  59.1652223  37.9028707 118.9912370  59.0369286  37.1305701
 117.6016421  59.4647112  37.5523600 125.7799062  57.9159221  41.4049430
 125.7617537  58.7368102  40.9129699 126.7018982  57.7913297  41.6299571
 122.2372116  55.4303351  42.2472938 122.7700453  54.6691639  42.0172246
 121.7086197  55.1377003  42.9897093 125.4041811  40.5363417  37.7766580
 125.0606080  41.4265059  37.7005691 125.7720773  40.3465074  36.9136165
 113.4727661  52.8596947  30.5955182 114.3102883  53.2693956  30.3788890
 113.6505929  51.9196389  30.5655376 125.3692094  50.5272028  26.2839015
 124.8538717  51.2976633  26.5227403 125.0969402  49.8537164  26.9072077
 122.9539205  45.3721729  31.3424254 122.0980801  44.9828579  31.1629892
 123.3666156  45.4513690  30.4824039 124.4838351  42.9068072  35.7415813
 123.9803147  42.8698207  34.9283619 124.7768958  43.8160815  35.8012470
 120.7281237  42.9906802  34.7481995 121.5934234  42.7949610  34.3887884
 120.7958746  42.7617153  35.6751352 130.3426368  53.2804383  28.2192189
 129.5655811  52.9415542  27.7747351 131.0217849  53.2857006  27.5447154
 125.1578397  48.3999120  28.1098796 124.8528532  48.7145269  28.9608940
 126.1108839  48.4780540  28.1526129 123.6024829  54.5589343  29.7591750
 123.0746190  53.8242103  29.4464988 123.1012331  55.3364020  29.5131719
 128.5817675  52.7538364  34.8758797 127.9241349  53.4437625  34.9638925
 129.3858074  53.1434796  35.2192783 118.3343556  45.2209010  32.1198362
 118.9087308  44.9984191  31.3871555 118.9214539  45.2897704  32.8726963
 127.3923133  51.1082737  32.9262738 127.9055015  51.7412728  33.4284448
 128.0424357  50.5083932  32.5606098 118.6613143  47.2513471  26.1394247
 117.8250456  47.5888157  26.4603522 118.5217913  47.1162450  25.2021384
 120.6366224  42.0950259  30.8473431 119.9830636  41.7799276  30.2230046
 120.5946698  41.4725999  31.5733254 121.7477429  52.3769554  22.7626723
 120.8404491  52.1458807  22.9617872 122.2448461  51.5807173  22.9500705
 124.6545508  61.0867061  25.6823409 123.9807206  61.3898758  26.2908367
 125.0411330  61.8896141  25.3328867 123.8703964  48.5832192  35.1721079
 122.9526526  48.8047139  35.0142767 124.2864108  48.6578503  34.3132786
 124.6539012  49.9823608  30.3023759 125.4010831  50.4945005  29.9930881
 124.9230602  49.6607660  31.1628153 122.9265662  52.4782148  27.2850713
 122.0176882  52.1941181  27.3823183 122.9560746  52.8981227  26.4254020
 128.1584930  56.0888738  31.0541881 127.7047257  55.2479648  31.1107071
 127.5278896  56.7250136  31.3916661 127.1017849  47.0180724  32.2842548
 126.3640606  46.5058110  32.6152791 127.3544623  46.5781106  31.4725825
 126.6017869  57.9265235  31.9891699 126.8940843  58.4870292  31.2704065
 127.1116489  58.2193796  32.7444858 127.2029477  39.7956976  32.8784318
 127.5088353  38.9354339  32.5910233 127.9282081  40.3874596  32.6783312
 113.4953833  50.1987663  31.2665916 113.2978232  49.6057023  30.5416982
 112.9400497  49.8939873  31.9841854 121.4750556  50.0910769  33.3860509
 121.5299166  49.1384605  33.3102985 120.6641758  50.2470208  33.8701807
 122.6241750  54.0190892  24.6238792 122.1861180  53.3026751  24.1644429
 123.3652191  54.2467007  24.0623883 119.4142916  48.7087829  31.1450888
 118.6010782  49.0081999  31.5516080 119.9101910  48.3143518  31.8625370
 121.5651494  58.7045586  33.0785152 121.5227673  58.9306432  32.1493684
 122.4814193  58.4708960  33.2270953 125.0117128  49.1729653  39.9765782
 125.3666516  49.4001126  40.8360247 125.6589259  49.5048030  39.3543037
 130.7414865  52.2948089  30.6815111 130.6032763  52.4849685  29.7536300
 130.3851084  53.0567472  31.1383162 118.9056991  46.2806184  36.7612123
 119.5456370  46.1394943  36.0635086 118.0734522  45.9940698  36.3850725
 130.7684244  54.3624616  35.6926382 131.2020751  54.2699905  36.5409436
 131.4815825  54.3382117  35.0546398 119.6817295  55.5808615  32.8747115
 120.4757893  55.0858935  32.6729690 118.9708987  55.0526478  32.5114821
 124.5012139  57.9626710  37.2259483 124.5549162  58.5317647  37.9937199
 123.6326921  58.1328595  36.8613520 115.9900058  49.7251697  28.9506868
 115.0597646  49.6636152  29.1676830 116.0857530  49.2027649  28.1543509
 115.9085607  46.2506509  31.5385109 116.1692425  47.1651843  31.4294270
 116.7302780  45.7830952  31.6881722 117.3810533  47.6644267  38.7083934
 118.0533586  47.4561629  38.0596583 116.5540319  47.4666353  38.2689166
 131.6299794  54.4048317  38.2259267 131.8235684  55.3094127  38.4718542
 131.5300412  53.9455736  39.0597853 123.2836105  44.2906207  40.7249595
 122.6364020  44.9896157  40.6314071 124.0537120  44.7242351  41.0925843
 126.6914903  54.5555060  43.8000148 126.5400409  54.3265611  42.8830232
 126.6819582  55.5125661  43.8131493 123.4600239  52.1286972  38.7846415
 124.3892299  52.2798132  38.6115382 123.0391269  52.2170993  37.9295061
 122.2588571  56.1537637  36.5544952 122.1199657  55.7856421  37.4270890
 121.4703167  56.6685276  36.3828910 122.8536723  61.2546733  27.8970489
 123.0288479  60.7834776  28.7116111 122.1669511  61.8812499  28.1251749
 123.8093786  55.5319239  33.9433790 123.4743619  55.4920009  34.8391440
 123.3097732  54.8663955  33.4704200 117.7838030  50.9386869  39.4686371
 117.6457828  50.2067108  40.0697910 118.6942953  50.8495770  39.1870559
 126.7452978  52.8775274  24.2170850 126.1282148  52.1522102  24.1203902
 126.2769466  53.6384634  23.8737924 120.4120331  50.6506829  38.9570051
 121.1219949  50.0100021  38.9156669 120.3689639  50.9019724  39.8796232
 128.4007109  57.5874182  41.8776630 128.3419655  56.9033402  41.2107213
 128.8026628  58.3293172  41.4257256 119.1249265  47.6372047  40.7765690
 118.5886622  47.1862785  41.4287287 118.5365973  47.7717956  40.0336155
 117.4197808  64.4036096  34.6710349 117.6594406  65.0354620  35.3489367
 116.5767005  64.0524136  34.9575708 118.5351524  47.0960698  23.3392154
 117.6580990  46.9749499  22.9754401 119.0109277  46.3046776  23.0871043
 128.4024517  55.5513766  40.1090610 127.5151295  55.2139688  40.2317008
 128.9723068  54.8196797  40.3459375 110.0553664  51.8837858  33.4333661
 110.7424704  51.5699588  32.8454676 109.9001792  52.7879222  33.1600912
 114.8588386  46.7728054  37.8618685 114.7746575  46.1653724  37.1269095
 114.0371092  47.2637073  37.8628181 121.9325670  60.2115218  37.0751853
 121.8595841  61.0170190  37.5871157 121.4903063  60.4107184  36.2499874
 121.7215450  59.4486988  30.5854674 120.9382972  59.9908669  30.6792899
 122.4208195  59.9660968  30.9848916 125.0312100  45.2581618  33.2288880
 125.5280799  44.5051580  32.9089950 124.2599081  45.2945935  32.6632089
 132.8841857  50.9621983  34.8707171 132.8731733  51.8446699  34.5001104
 132.0159237  50.6093534  34.6761708 124.3924354  60.1102052  39.2310011
 125.1052326  60.7449517  39.1585913 123.9014382  60.2065918  38.4150013
 126.1141880  54.0153305  30.8027303 125.1798159  54.1354768  30.6332007
 126.2918549  53.1125772  30.5387313 121.6147068  47.3999001  32.9560564
 121.2444856  46.8470041  33.6441470 122.1106161  46.7957134  32.4035564
 129.5014432  49.8570624  31.3377337 129.9674884  50.6898616  31.2637640
 129.9521932  49.3915606  32.0422596 119.4436267  57.8596496  40.0515582
 120.1445727  58.4932979  40.2044977 118.9731382  58.2011227  39.2911222
 127.5690663  56.2014446  28.3363489 127.8450507  56.0871040  29.2457363
 126.6995162  55.8031931  28.2975662 127.4731095  42.2251211  35.3768239
 126.5594174  42.4555438  35.5450446 127.9024196  42.3089655  36.2282271
 127.2437553  50.4141103  37.8768133 126.5909003  50.6617011  37.2220585
 127.6217933  49.6005242  37.5430610 124.2044727  60.4500797  31.9796303
 124.3867121  59.6322452  32.4424055 125.0277713  60.6668489  31.5421193
 124.5386892  59.3768982  29.2411351 125.0674659  58.8661436  28.6281514
 124.8015112  59.0611512  30.1056884 123.2925126  51.1560914  44.3634170
 122.6165763  51.0555044  45.0336545 124.1152760  51.0000128  44.8270167
 115.0403985  57.3932851  36.9846685 115.6257422  56.6476539  37.1174589
 114.8428824  57.7036808  37.8683349 117.8942640  60.4284098  32.0009127
 117.2253016  60.9130226  31.5173167 117.7555510  60.6753319  32.9152506
 109.6321640  49.9638451  35.7051128 109.6705739  49.4302042  36.4988246
 109.1261933  49.4373657  35.0862105 122.0347909  62.4627842  38.5991786
 122.5866217  62.6259463  39.3640871 122.3754102  63.0532280  37.9271811
 117.0112402  44.8102992  39.2013670 117.0753729  45.6717823  38.7891068
 116.9479522  44.1976993  38.4686029 116.4864675  46.8826124  42.8486705
 117.1136713  46.5003202  43.4624229 115.6292594  46.6640326  43.2142397
 126.8858783  57.2889099  44.4540440 127.4298687  57.9019058  43.9595395
 126.3045628  57.8468678  44.9707453 113.2630217  48.6902553  28.7805060
 113.5583659  47.7813232  28.7272113 112.3618253  48.6690293  28.4586062
 125.1716296  60.4109817  35.5855468 125.0467436  59.6099557  35.0766413
 125.8295387  60.9056011  35.0969438 116.7924464  46.7658550  34.7632608
 116.0711050  47.3794518  34.6240081 117.5817720  47.3016315  34.6849254
 127.2351205  58.2118838  37.2135018 126.2881540  58.0924189  37.1413345
 127.5833978  57.3241336  37.2961279 119.5950778  44.1012976  41.0373260
 120.1185180  44.3475273  41.7999569 119.3763111  44.9333011  40.6176397
 114.9918059  46.3716651  28.9044385 114.6630765  45.4914030  28.7219491
 115.3457430  46.3164320  29.7920774 124.2397638  58.0071554  33.4139370
 124.0922600  57.0788261  33.5946940 125.0651131  58.0291644  32.9296445
 118.1059882  46.6589621  29.2719862 118.4455955  47.1875542  28.5498471
 118.5532003  46.9970027  30.0478429 127.8431760  58.8300112  34.5004243
 128.7678307  58.6242974  34.3628694 127.6747063  58.5816514  35.4093584
 120.8003323  45.0426672  38.7222930 120.4600143  44.2434485  39.1243610
 120.0942329  45.3428382  38.1499764 121.4519795  42.1275984  37.1750253
 122.2745864  41.6536462  37.0529144 121.6957858  42.9066468  37.6748940
 120.0928029  45.1564242  27.4713155 120.8136392  45.5345495  26.9676872
 119.4693333  45.8753119  27.5748133 124.2359152  45.8609391  28.4071487
 124.4522767  46.7434029  28.1060316 123.7553219  45.4695605  27.6777129
 118.9758374  48.8195105  34.9842232 118.8302954  49.1335408  35.8766514
 118.4983577  49.4380005  34.4313131 120.8354756  45.8097653  35.0323122
 120.8216325  44.9138746  34.6955420 121.5527185  45.8168316  35.6661408
 122.6880887  46.2434993  37.0776249 122.4298665  47.1652063  37.0760579
 122.1565928  45.8465427  37.7676713 127.6327076  59.3485780  29.8566334
 127.8063953  58.7832202  29.1040187 128.1255967  60.1486675  29.6745824
 113.4504036  51.3600449  37.9229893 112.9057504  52.1360257  38.0550168
 114.3283386  51.7071253  37.7649015 120.2391652  44.6912033  30.3010692
 120.3607564  43.7628679  30.5001579 119.9493695  44.7050719  29.3889007
 123.1082843  42.3766943  33.4377412 123.1304540  42.4406276  32.4829391
 123.5250902  41.5371452  33.6317918 133.4866467  52.1122203  31.4756634
 133.9297613  51.3629528  31.0775757 132.6092977  52.1032339  31.0930366
 128.6202248  58.6652544  26.9563233 129.3153153  59.2859237  27.1750547
 128.9625399  57.8147896  27.2315611 114.2370058  50.4870345  40.8160050
 113.4951794  50.6352981  41.4024681 113.9162802  50.7478611  39.9526800
 130.5193672  56.1152250  28.4850563 131.0444996  56.4539523  27.7599883
 130.4316024  55.1799265  28.3013698 122.1813720  60.0286323  40.6140440
 122.4900847  59.7835470  41.4863140 122.9789202  60.2332962  40.1259310
 122.2034332  62.1824233  32.8445817 121.7639323  61.6900612  33.5378673
 122.9542449  61.6397201  32.6037892 114.6826671  58.3735774  32.8470445
 115.5084691  58.0739546  32.4669088 114.3320723  57.6043396  33.2960233
 119.6508204  57.7262242  34.9168118 119.0288214  57.0632947  34.6170346
 120.3213071  57.7523374  34.2341766 112.8835276  56.2922100  33.8059378
 112.0467185  55.8644275  33.6243380 112.8558922  56.4854544  34.7430170
 119.7232732  46.2044030  44.5100624 119.7720887  47.0806153  44.1278394
 120.2655246  45.6621423  43.9372268 130.2087578  56.7485153  43.7901761
 129.4183121  56.7309292  43.2506261 129.9720932  57.2873447  44.5450798
 130.3285453  53.5977620  41.1034490 130.3783458  53.4327627  42.0450013
 130.2199376  52.7304879  40.7132371 119.2121711  56.2766166  28.3926579
 119.3609832  56.9601630  27.7393252 120.0188155  56.2571256  28.9076035
 127.6189215  49.5808548  42.4193797 128.5199078  49.4415013  42.1277794
 127.6937190  49.7463003  43.3591974 121.9532020  46.9575403  41.2646983
 121.0835330  47.2508969  40.9929572 122.1891501  47.5415848  41.9854247
 131.8303649  56.0174561  41.3476512 131.5388458  56.3804542  42.1839972
 131.2175781  55.3041570  41.1689844 133.0299332  53.5827441  33.8679082
 133.8646223  54.0217245  34.0316642 133.1658461  53.1066094  33.0487327
 130.0790838  51.1407176  39.8156569 130.5544959  51.3334822  39.0075421
 129.1556403  51.1966362  39.5699953 116.9674344  52.3031343  29.3987648
 116.7220386  51.3993673  29.5967858 117.1370259  52.3048494  28.4567126
 124.6571054  43.1755020  38.7812403 125.1752998  43.9116046  38.4558892
 124.3026187  43.4819013  39.6159163 116.2369992  48.0359701  26.8973809
 115.5439237  48.1104056  26.2413845 115.9921744  47.2720044  27.4195326
 124.9083648  39.5955302  34.3013300 125.1885402  38.9278491  34.9273727
 125.6934255  39.7884398  33.7887964 122.7117117  58.7714296  25.8638326
 122.1391084  59.3904483  25.4108798 123.2849911  59.3213658  26.3978248
 128.7792507  48.0172936  38.0484875 129.7309930  48.1171034  38.0697099
 128.6095957  47.2251205  38.5582959 126.8006886  45.1028519  38.2344276
 126.2056818  45.3833532  37.5390765 126.5156583  45.5922420  39.0061017
 125.9314377  59.0551446  26.9946909 126.8645050  58.9897008  27.1979784
 125.8437589  59.8907713  26.5361441 128.5602393  58.3717316  23.9550856
 128.4816025  58.0377180  24.8486614 129.3812060  58.8639084  23.9542328
 131.2580585  51.2379056  37.1627175 131.2256905  50.2995057  37.3486859
 131.8681208  51.3163092  36.4293000 123.0963915  50.1075109  23.2054379
 124.0423020  49.9781317  23.2742797 122.7178160  49.3689771  23.6823807
 131.4075073  48.0290099  37.2085458 130.8914122  47.2448556  37.0215387
 132.2915022  47.7008816  37.3731977 129.0685800  41.7731115  33.1681271
 128.8710621  41.4646203  34.0524603 129.6785505  42.4992754  33.2979200
 137.0757134  52.2995063  36.3033212 137.8060523  52.0380351  36.8640915
 136.4664080  51.5623785  36.3435280 135.1572431  50.4402925  36.9007663
 134.4305595  50.3058890  36.2924154 134.7419718  50.7479754  37.7064381
 122.9802608  54.1592855  44.6655036 123.9005617  54.3371454  44.8595082
 122.9452191  53.2148900  44.5134735 121.2806833  48.0325085  23.1409264
 120.3738288  47.7358198  23.2171978 121.5582814  47.7354903  22.2743550
 112.1984773  49.3531449  33.5908310 111.8787557  48.4996757  33.2982684
 111.6518201  49.5680027  34.3466278 115.9764680  52.0693890  37.3077817
 116.1950690  53.0010997  37.3265851 116.3890454  51.7101864  38.0932621
 122.8968898  42.5761975  29.2953505 122.0869627  42.2309060  29.6708751
 123.5853315  42.2669519  29.8841117 124.8259447  41.6540022  30.9177802
 125.3790485  42.0735475  31.5767825 125.0629533  40.7275770  30.9600758
 120.8492546  47.6427095  46.6980566 120.7489273  48.5921452  46.6292657
 120.6314088  47.3145334  45.8256636 120.0505617  44.8912020  23.2821243
 120.9124781  45.2166919  23.5417061 120.2355961  44.1043516  22.7694309
 112.0673033  52.9734360  35.5601432 111.3736504  52.5588313  35.0471386
 112.8146024  53.0154897  34.9634851 128.2038254  43.7640547  30.4256466
 127.6236923  44.4225351  30.0434519 127.9374186  42.9417891  30.0143884
 126.6541820  43.1645605  32.6277787 127.1541598  43.2762139  31.8192105
 127.2977428  42.8606657  33.2678595 120.7123816  51.0724234  45.5145628
 120.2290898  51.8724594  45.7209517 120.7984755  51.0832179  44.5613071
 113.9809775  52.9052614  33.4367447 113.9580464  53.0040301  32.4849330
 114.2910412  53.7517765  33.7584613 116.6397153  54.9628769  37.5514061
 117.5940407  54.9312711  37.4843993 116.4409677  54.5019393  38.3664287
 117.2296535  53.5329885  40.1184859 118.0489424  54.0273964  40.1419696
 117.5033343  52.6161853  40.0902426 126.9863132  45.9240637  29.4812814
 126.0988987  46.2090288  29.2633009 127.4017121  45.7634401  28.6340091
 130.3377668  45.9487158  33.1967154 131.1138058  46.4383611  33.4691771
 129.6125802  46.3745212  33.6539023 132.7750226  46.6614777  34.2541094
 133.3694717  46.4210513  33.5434403 132.8476810  45.9421908  34.8814631
 114.9947382  60.5048388  34.5684259 114.8601850  59.7448789  34.0022257
 114.5779444  61.2289288  34.1013048 126.1306345  55.6885312  23.5760834
 126.8342195  55.8935314  24.1918490 125.4068994  56.2562074  23.8409918
 126.9604155  51.4395173  29.6963105 126.9039357  51.8963725  28.8570737
 127.5132498  50.6785858  29.5185947 130.7708961  47.2284905  30.5213224
 130.5145896  46.8281541  31.3521432 130.1461829  47.9428699  30.3963363
 135.0821299  49.9680978  33.0284516 134.5220857  50.0374168  33.8016078
 134.4764803  49.7921963  32.3084012 118.1516508  61.4017705  34.7802702
 118.0348892  62.3463138  34.6781392 117.3308954  61.0991267  35.1688501
 128.0393043  56.1267841  25.6259295 128.8738646  55.6949040  25.4436769
 127.8777385  55.9549855  26.5536189 127.6938935  52.6299954  26.9915634
 127.6387738  52.4644226  26.0504078 127.0684990  53.3375987  27.1477824
 112.4831450  47.8668019  40.8177056 113.1290313  47.3566973  41.3064281
 112.2748601  48.6036700  41.3920481 125.0084842  54.9348866  46.3169197
 125.8776001  55.1089519  45.9555832 124.5291593  55.7543283  46.1944926
 121.0035060  42.1308063  26.5700952 120.9913730  43.0749903  26.7269223
 121.8958482  41.9478209  26.2760413 119.1771022  62.0545967  37.9958630
 120.0798269  62.0869578  38.3125125 118.9508392  61.1246418  38.0104966
 120.9324624  60.8076954  34.6568709 119.9820255  60.8078815  34.5433081
 121.2357110  60.0609688  34.1404743 124.8187180  38.7250840  30.8246889
 124.0519575  38.1709327  30.9703571 125.2297885  38.7972709  31.6861041
 116.8228941  45.0135636  44.9152070 117.6860402  44.6572441  45.1255395
 116.2494351  44.6749531  45.6027475 136.6677318  66.6437492  35.7214471
 137.3055728  66.5244240  35.0177811 136.5498160  67.5918336  35.7802423
 133.4767024  66.5964920  35.6575996 133.1385535  66.4805985  34.7696531
 134.3456792  66.1956085  35.6377002 129.3353840  68.4500397  31.6472887
 128.7718705  68.3590334  30.8789175 129.2206235  67.6300301  32.1275379
 133.9586807  67.7499772  41.6162201 133.9475448  67.3552570  40.7442705
 134.1207446  67.0165845  42.2095973 126.8818272  69.9451588  34.4857107
 127.6739563  69.6042413  34.0703407 127.1214922  70.0546563  35.4059261
 134.9153398  72.1171364  26.9587352 134.2641378  72.7025445  26.5721366
 135.7097761  72.6477559  27.0182389 128.8409025  69.2060502  27.3574486
 129.6139901  68.6589489  27.2187362 129.1934424  70.0704751  27.5688948
 130.6794068  70.5336884  40.5641385 130.3883934  71.4382515  40.4488052
 131.3151052  70.5753411  41.2785455 131.6050275  67.9113732  37.1542745
 132.2013847  67.6869755  36.4399708 131.6625246  67.1698478  37.7568193
 131.1775303  65.3653168  24.9892936 131.4300824  64.8434689  24.2276399
 130.2399862  65.2019313  25.0919620 136.2218586  64.3688946  32.7967679
 137.0081675  63.9508369  32.4458096 136.4857290  65.2735038  32.9649328
 136.3928663  69.8061796  27.4956336 135.7574496  69.8796423  28.2077241
 136.0626070  70.3955395  26.8175415 141.6227013  64.3064179  33.7000658
 142.3552185  63.7363396  33.9338487 140.8666369  63.9185780  34.1407163
 130.8971592  67.2681274  27.1917311 130.7807850  66.5926177  27.8598395
 131.0073852  66.7813648  26.3749464 133.2403133  66.7291421  30.8964000
 132.8761340  66.2022042  31.6076922 134.0970249  66.3389890  30.7230486
 139.1452434  58.0185753  38.1595266 138.8135758  58.8881164  37.9356481
 138.5498047  57.7022037  38.8389297 132.8808620  61.7581320  25.8925349
 133.0483022  62.6261557  26.2595820 132.6905789  61.9208602  24.9686638
 135.6383953  70.2198299  37.5591179 135.3384676  71.1223338  37.4506986
 135.2935013  69.9530483  38.4112332 129.0896435  66.6712096  33.5927884
 128.1646931  66.5388310  33.8005575 129.3380848  67.4506315  34.0897826
 139.0381097  62.7380840  35.2388616 138.1297974  62.6696248  34.9447377
 138.9868693  63.2152784  36.0670442 132.8597841  64.2138978  26.8772016
 132.7397466  64.6596029  27.7157496 132.1650429  64.5624296  26.3185554
 126.4505246  66.3145370  34.4271673 126.5797627  66.5679849  35.3411084
 125.7702697  66.9073078  34.1076328 130.6204733  76.9842620  30.5262147
 130.5428763  77.9350445  30.6050627 130.0166376  76.6388492  31.1837073
 133.1121963  64.1570485  43.1823514 132.3355297  64.7164405  43.1726378
 133.7512526  64.6427268  43.7038384 140.9042743  60.9397278  37.0166490
 140.2617124  61.2329811  36.3706285 140.3997672  60.8250198  37.8219687
 138.5582907  64.6860451  27.7052350 139.4700763  64.9187838  27.5300047
 138.0492554  65.2697495  27.1427428 131.3668335  66.9655938  42.7441481
 132.1083019  67.5040982  42.4676304 130.6605320  67.5922227  42.9013033
 136.8423675  69.1085079  41.3413642 137.2507031  68.6667489  40.5968275
 136.1200936  68.5337706  41.5947835 133.1954745  64.0457686  38.7147199
 134.0415940  64.4697099  38.8581848 133.1353382  63.3891310  39.4085762
 137.1652489  69.6686270  35.0965931 136.5361352  69.8331984  34.3941999
 136.7778151  70.0827879  35.8676895 141.0441721  70.6040707  32.4510295
 140.3592759  70.9839609  31.9007328 141.1285570  71.2136034  33.1842243
 136.3454190  61.7062054  40.3728373 136.1015122  62.4604115  39.8362648
 136.6214120  62.0847402  41.2075620 138.2992653  68.2500666  39.0505638
 138.5109548  68.8932426  38.3740019 138.2522401  67.4162983  38.5827568
 135.9018882  60.8618487  35.9542211 135.0403361  61.1599741  36.2458948
 135.9281316  61.0788886  35.0223243 132.7180451  69.4060678  32.3616016
 133.1818797  69.6848381  31.5720639 132.4537249  68.5044122  32.1789107
 129.6104532  68.9532159  35.2995779 130.1805889  69.3819428  34.6613264
 130.2012644  68.6714744  35.9979965 131.6549337  65.5283830  29.1705581
 132.3573381  65.9804874  29.6379508 131.3229966  64.8867649  29.7985474
 130.1029699  64.1195587  43.5456791 129.4728359  64.8011867  43.7792188
 129.9965787  64.0078668  42.6009929 125.3974671  63.7867383  34.4722715
 124.6073725  64.0424911  33.9962826 125.8885919  64.6015721  34.5774755
 139.4138481  71.1272622  37.2227996 140.2355924  70.7252809  36.9410677
 139.4100884  71.0240856  38.1744112 127.3489417  64.1511962  31.4306192
 126.5520580  64.2630656  31.9489687 127.1215009  64.4898614  30.5647082
 133.1795084  70.6756665  39.3788706 133.2439517  71.1377072  40.2146878
 132.4706008  70.0454030  39.5071016 123.6812374  64.0397873  36.9037706
 123.9320413  64.9244883  37.1695282 124.2171923  63.8602475  36.1312798
 147.5044474  67.4711370  33.5712967 146.7508182  66.9018768  33.4156972
 147.6392015  67.4374035  34.5183602 132.8943102  72.3424773  29.2467687
 132.7588777  73.1876308  29.6752534 133.4352914  72.5444050  28.4833620
 129.3810441  58.4216352  45.9082042 128.9877387  57.8682551  46.5829686
 130.1976582  58.7326931  46.2988559 126.3472499  69.8600211  29.8195612
 126.8597020  70.6543461  29.9701176 126.9995212  69.1626501  29.7529213
 128.1567384  72.9765967  31.9018365 128.3334012  73.8983932  31.7139349
 128.9524217  72.6624386  32.3312745 132.2978402  59.8374232  43.5002298
 133.0388116  60.4381385  43.4206761 132.5296325  59.0951869  42.9420341
 127.4419740  65.0230599  41.7780528 127.3273256  64.1215856  42.0787627
 126.5864258  65.2694296  41.4265345 134.5211578  72.9648339  43.3768029
 134.0775432  72.1784718  43.0588933 135.1828792  73.1527490  42.7111919
 129.2798699  74.4944141  37.9028707 129.8306124  74.3661204  37.1305701
 128.4410175  74.7939030  37.5523600 136.6192816  73.2451139  41.4049430
 136.6011292  74.0660020  40.9129699 137.5412736  73.1205214  41.6299571
 133.0765870  70.7595269  42.2472938 133.6094207  69.9983557  42.0172246
 132.5479952  70.4668920  42.9897093 136.2435565  55.8655335  37.7766580
 135.8999835  56.7556976  37.7005691 136.6114528  55.6756992  36.9136165
 124.3121416  68.1888865  30.5955182 125.1496638  68.5985873  30.3788890
 124.4899684  67.2488307  30.5655376 136.2085848  65.8563946  26.2839015
 135.6932472  66.6268550  26.5227403 135.9363157  65.1829082  26.9072077
 133.7932959  60.7013646  31.3424254 132.9374555  60.3120497  31.1629892
 134.2059911  60.7805607  30.4824039 135.3232106  58.2359990  35.7415813
 134.8196901  58.1990125  34.9283619 135.6162713  59.1452732  35.8012470
 131.5674992  58.3198719  34.7481995 132.4327988  58.1241528  34.3887884
 131.6352501  58.0909071  35.6751352 141.1820122  68.6096300  28.2192189
 140.4049565  68.2707460  27.7747351 141.8611603  68.6148923  27.5447154
 135.9972151  63.7291038  28.1098796 135.6922287  64.0437187  28.9608940
 136.9502593  63.8072458  28.1526129 134.4418583  69.8881261  29.7591750
 133.9139945  69.1534021  29.4464988 133.9406086  70.6655937  29.5131719
 139.4211429  68.0830282  34.8758797 138.7635104  68.7729543  34.9638925
 140.2251828  68.4726713  35.2192783 129.1737311  60.5500927  32.1198362
 129.7481063  60.3276109  31.3871555 129.7608293  60.6189622  32.8726963
 138.2316888  66.4374654  32.9262738 138.7448770  67.0704646  33.4284448
 138.8818112  65.8375850  32.5606098 129.5006898  62.5805388  26.1394247
 128.6644210  62.9180075  26.4603522 129.3611667  62.4454368  25.2021384
 131.4759978  57.4242176  30.8473431 130.8224391  57.1091193  30.2230046
 131.4340453  56.8017917  31.5733254 132.5871183  67.7061471  22.7626723
 131.6798245  67.4750725  22.9617872 133.0842215  66.9099091  22.9500705
 135.4939262  76.4158978  25.6823409 134.8200961  76.7190675  26.2908367
 135.8805084  77.2188059  25.3328867 134.7097719  63.9124110  35.1721079
 133.7920280  64.1339057  35.0142767 135.1257862  63.9870420  34.3132786
 135.4932767  65.3115525  30.3023759 136.2404586  65.8236923  29.9930881
 135.7624356  64.9899578  31.1628153 133.7659417  67.8074066  27.2850713
 132.8570636  67.5233099  27.3823183 133.7954501  68.2273145  26.4254020
 138.9978684  71.4180656  31.0541881 138.5441011  70.5771566  31.1107071
 138.3672651  72.0542054  31.3916661 137.9411604  62.3472642  32.2842548
 137.2034361  61.8350028  32.6152791 138.1938377  61.9073023  31.4725825
 137.4411623  73.2557152  31.9891699 137.7334598  73.8162209  31.2704065
 137.9510244  73.5485713  32.7444858 138.0423231  55.1248894  32.8784318
 138.3482108  54.2646257  32.5910233 138.7675836  55.7166514  32.6783312
 124.3347587  65.5279580  31.2665916 124.1371987  64.9348941  30.5416982
 123.7794251  65.2231790  31.9841854 132.3144311  65.4202687  33.3860509
 132.3692921  64.4676523  33.3102985 131.5035513  65.5762126  33.8701807
 133.4635505  69.3482810  24.6238792 133.0254934  68.6318669  24.1644429
 134.2045945  69.5758925  24.0623883 130.2536671  64.0379747  31.1450888
 129.4404536  64.3373917  31.5516080 130.7495665  63.6435435  31.8625370
 132.4045249  74.0337503  33.0785152 132.3621427  74.2598350  32.1493684
 133.3207947  73.8000878  33.2270953 135.8510882  64.5021571  39.9765782
 136.2060270  64.7293044  40.8360247 136.4983014  64.8339948  39.3543037
 141.5808619  67.6240007  30.6815111 141.4426518  67.8141603  29.7536300
 141.2244838  68.3859390  31.1383162 129.7450745  61.6098102  36.7612123
 130.3850125  61.4686861  36.0635086 128.9128276  61.3232615  36.3850725
 141.6077999  69.6916534  35.6926382 142.0414506  69.5991823  36.5409436
 142.3209580  69.6674034  35.0546398 130.5211049  70.9100532  32.8747115
 131.3151648  70.4150853  32.6729690 129.8102742  70.3818396  32.5114821
 135.3405894  73.2918628  37.2259483 135.3942916  73.8609564  37.9937199
 134.4720675  73.4620513  36.8613520 126.8293813  65.0543614  28.9506868
 125.8991401  64.9928070  29.1676830 126.9251285  64.5319567  28.1543509
 126.7479362  61.5798427  31.5385109 127.0086179  62.4943760  31.4294270
 127.5696534  61.1122870  31.6881722 128.2204287  62.9936184  38.7083934
 128.8927341  62.7853546  38.0596583 127.3934074  62.7958270  38.2689166
 142.4693548  69.7340235  38.2259267 142.6629439  70.6386045  38.4718542
 142.3694167  69.2747654  39.0597853 134.1229859  59.6198125  40.7249595
 133.4757774  60.3188075  40.6314071 134.8930875  60.0534269  41.0925843
 137.5308657  69.8846977  43.8000148 137.3794164  69.6557529  42.8830232
 137.5213337  70.8417579  43.8131493 134.2993994  67.4578890  38.7846415
 135.2286054  67.6090050  38.6115382 133.8785024  67.5462911  37.9295061
 133.0982325  71.4829554  36.5544952 132.9593411  71.1148339  37.4270890
 132.3096922  71.9977194  36.3828910 133.6930477  76.5838651  27.8970489
 133.8682233  76.1126694  28.7116111 133.0063265  77.2104417  28.1251749
 134.6487541  70.8611157  33.9433790 134.3137373  70.8211927  34.8391440
 134.1491486  70.1955873  33.4704200 128.6231784  66.2678787  39.4686371
 128.4851582  65.5359026  40.0697910 129.5336708  66.1787687  39.1870559
 137.5846732  68.2067191  24.2170850 136.9675903  67.4814020  24.1203902
 137.1163221  68.9676552  23.8737924 131.2514085  65.9798746  38.9570051
 131.9613704  65.3391939  38.9156669 131.2083393  66.2311641  39.8796232
 139.2400864  72.9166100  41.8776630 139.1813410  72.2325320  41.2107213
 139.6420382  73.6585090  41.4257256 129.9643019  62.9663964  40.7765690
 129.4280376  62.5154703  41.4287287 129.3759728  63.1009873  40.0336155
 128.2591563  79.7328014  34.6710349 128.4988161  80.3646538  35.3489367
 127.4160759  79.3816054  34.9575708 129.3745278  62.4252616  23.3392154
 128.4974744  62.3041417  22.9754401 129.8503031  61.6338694  23.0871043
 139.2418271  70.8805684  40.1090610 138.3545050  70.5431606  40.2317008
 139.8116822  70.1488715  40.3459375 120.8947418  67.2129776  33.4333661
 121.5818458  66.8991506  32.8454676 120.7395547  68.1171140  33.1600912
 125.6982140  62.1019972  37.8618685 125.6140329  61.4945642  37.1269095
 124.8764847  62.5928990  37.8628181 132.7719424  75.5407136  37.0751853
 132.6989596  76.3462108  37.5871157 132.3296818  75.7399102  36.2499874
 132.5609204  74.7778906  30.5854674 131.7776726  75.3200586  30.6792899
 133.2601949  75.2952886  30.9848916 135.8705854  60.5873536  33.2288880
 136.3674554  59.8343498  32.9089950 135.0992836  60.6237852  32.6632089
 143.7235612  66.2913901  34.8707171 143.7125488  67.1738617  34.5001104
 142.8552991  65.9385452  34.6761708 135.2318108  75.4393970  39.2310011
 135.9446080  76.0741435  39.1585913 134.7408137  75.5357836  38.4150013
 136.9535635  69.3445223  30.8027303 136.0191914  69.4646685  30.6332007
 137.1312303  68.4417690  30.5387313 132.4540823  62.7290919  32.9560564
 132.0838610  62.1761959  33.6441470 132.9499915  62.1249052  32.4035564
 140.3408186  65.1862542  31.3377337 140.8068638  66.0190534  31.2637640
 140.7915687  64.7207524  32.0422596 130.2830022  73.1888414  40.0515582
 130.9839481  73.8224897  40.2044977 129.8125137  73.5303145  39.2911222
 138.4084417  71.5306363  28.3363489 138.6844261  71.4162958  29.2457363
 137.5388916  71.1323848  28.2975662 138.3124849  57.5543129  35.3768239
 137.3987929  57.7847356  35.5450446 138.7417950  57.6381573  36.2282271
 138.0831307  65.7433021  37.8768133 137.4302758  65.9908929  37.2220585
 138.4611687  64.9297159  37.5430610 135.0438481  75.7792714  31.9796303
 135.2260876  74.9614370  32.4424055 135.8671467  75.9960406  31.5421193
 135.3780647  74.7060899  29.2411351 135.9068413  74.1953354  28.6281514
 135.6408866  74.3903430  30.1056884 134.1318881  66.4852832  44.3634170
 133.4559518  66.3846961  45.0336545 134.9546514  66.3292046  44.8270167
 125.8797740  72.7224769  36.9846685 126.4651176  71.9768457  37.1174589
 125.6822578  73.0328725  37.8683349 128.7336395  75.7576016  32.0009127
 128.0646770  76.2422144  31.5173167 128.5949265  76.0045236  32.9152506
 120.4715394  65.2930369  35.7051128 120.5099494  64.7593960  36.4988246
 119.9655687  64.7665574  35.0862105 132.8741663  77.7919760  38.5991786
 133.4259971  77.9551381  39.3640871 133.2147857  78.3824197  37.9271811
 127.8506157  60.1394909  39.2013670 127.9147483  61.0009740  38.7891068
 127.7873277  59.5268911  38.4686029 127.3258429  62.2118042  42.8486705
 127.9530468  61.8295119  43.4624229 126.4686348  61.9932244  43.2142397
 137.7252538  72.6181017  44.4540440 138.2692442  73.2310975  43.9595395
 137.1439383  73.1760595  44.9707453 124.1023972  64.0194471  28.7805060
 124.3977413  63.1105149  28.7272113 123.2012008  63.9982210  28.4586062
 136.0110051  75.7401735  35.5855468 135.8861190  74.9391475  35.0766413
 136.6689142  76.2347928  35.0969438 127.6318219  62.0950468  34.7632608
 126.9104805  62.7086435  34.6240081 128.4211475  62.6308232  34.6849254
 138.0744959  73.5410755  37.2135018 137.1275295  73.4216106  37.1413345
 138.4227732  72.6533253  37.2961279 130.4344532  59.4304894  41.0373260
 130.9578934  59.6767191  41.7999569 130.2156866  60.2624929  40.6176397
 125.8311813  61.7008569  28.9044385 125.5024520  60.8205948  28.7219491
 126.1851184  61.6456237  29.7920774 135.0791392  73.3363471  33.4139370
 134.9316355  72.4080179  33.5946940 135.9044886  73.3583562  32.9296445
 128.9453637  61.9881538  29.2719862 129.2849709  62.5167460  28.5498471
 129.3925757  62.3261945  30.0478429 138.6825514  74.1592030  34.5004243
 139.6072062  73.9534891  34.3628694 138.5140818  73.9108431  35.4093584
 131.6397077  60.3718589  38.7222930 131.2993898  59.5726402  39.1243610
 130.9336084  60.6720300  38.1499764 132.2913549  57.4567902  37.1750253
 133.1139619  56.9828380  37.0529144 132.5351613  58.2358385  37.6748940
 130.9321784  60.4856160  27.4713155 131.6530146  60.8637413  26.9676872
 130.3087088  61.2045037  27.5748133 135.0752907  61.1901309  28.4071487
 135.2916521  62.0725947  28.1060316 134.5946974  60.7987522  27.6777129
 129.8152128  64.1487022  34.9842232 129.6696709  64.4627325  35.8766514
 129.3377332  64.7671923  34.4313131 131.6748511  61.1389570  35.0323122
 131.6610080  60.2430664  34.6955420 132.3920939  61.1460234  35.6661408
 133.5274642  61.5726910  37.0776249 133.2692419  62.4943981  37.0760579
 132.9959682  61.1757345  37.7676713 138.4720830  74.6777698  29.8566334
 138.6457708  74.1124120  29.1040187 138.9649722  75.4778592  29.6745824
 124.2897790  66.6892367  37.9229893 123.7451258  67.4652175  38.0550168
 125.1677140  67.0363171  37.7649015 131.0785407  60.0203951  30.3010692
 131.2001318  59.0920597  30.5001579 130.7887449  60.0342637  29.3889007
 133.9476597  57.7058861  33.4377412 133.9698294  57.7698194  32.4829391
 134.3644656  56.8663370  33.6317918 144.3260222  67.4414121  31.4756634
 144.7691368  66.6921446  31.0775757 143.4486732  67.4324257  31.0930366
 139.4596003  73.9944462  26.9563233 140.1546908  74.6151155  27.1750547
 139.8019153  73.1439813  27.2315611 125.0763812  65.8162263  40.8160050
 124.3345548  65.9644898  41.4024681 124.7556556  66.0770529  39.9526800
 141.3587426  71.4444168  28.4850563 141.8838750  71.7831440  27.7599883
 141.2709779  70.5091183  28.3013698 133.0207475  75.3578241  40.6140440
 133.3294601  75.1127388  41.4863140 133.8182957  75.5624880  40.1259310
 133.0428087  77.5116151  32.8445817 132.6033077  77.0192529  33.5378673
 133.7936204  76.9689118  32.6037892 125.5220426  73.7027692  32.8470445
 126.3478446  73.4031464  32.4669088 125.1714478  72.9335314  33.2960233
 130.4901959  73.0554160  34.9168118 129.8681968  72.3924865  34.6170346
 131.1606826  73.0815292  34.2341766 123.7229031  71.6214018  33.8059378
 122.8860939  71.1936192  33.6243380 123.6952676  71.8146461  34.7430170
 130.5626486  61.5335948  44.5100624 130.6114642  62.4098071  44.1278394
 131.1049001  60.9913341  43.9372268 141.0481332  72.0777071  43.7901761
 140.2576876  72.0601210  43.2506261 140.8114687  72.6165365  44.5450798
 141.1679207  68.9269538  41.1034490 141.2177212  68.7619545  42.0450013
 141.0593130  68.0596797  40.7132371 130.0515466  71.6058083  28.3926579
 130.2003586  72.2893548  27.7393252 130.8581909  71.5863173  28.9076035
 138.4582970  64.9100466  42.4193797 139.3592832  64.7706930  42.1277794
 138.5330944  65.0754920  43.3591974 132.7925775  62.2867320  41.2646983
 131.9229084  62.5800886  40.9929572 133.0285255  62.8707765  41.9854247
 142.6697404  71.3466479  41.3476512 142.3782212  71.7096460  42.1839972
 142.0569535  70.6333487  41.1689844 143.8693086  68.9119359  33.8679082
 144.7039978  69.3509163  34.0316642 144.0052215  68.4358012  33.0487327
 140.9184592  66.4699094  39.8156569 141.3938714  66.6626740  39.0075421
 139.9950158  66.5258279  39.5699953 127.8068099  67.6323261  29.3987648
 127.5614141  66.7285591  29.5967858 127.9764013  67.6340411  28.4567126
 135.4964809  58.5046937  38.7812403 136.0146753  59.2407964  38.4558892
 135.1419941  58.8110931  39.6159163 127.0763746  63.3651618  26.8973809
 126.3832991  63.4395973  26.2413845 126.8315498  62.6011962  27.4195326
 135.7477403  54.9247220  34.3013300 136.0279157  54.2570409  34.9273727
 136.5328010  55.1176315  33.7887964 133.5510871  74.1006214  25.8638326
 132.9784838  74.7196401  25.4108798 134.1243665  74.6505575  26.3978248
 139.6186261  63.3464854  38.0484875 140.5703684  63.4462951  38.0697099
 139.4489712  62.5543122  38.5582959 137.6400641  60.4320437  38.2344276
 137.0450573  60.7125450  37.5390765 137.3550337  60.9214338  39.0061017
 136.7708131  74.3843364  26.9946909 137.7038804  74.3188925  27.1979784
 136.6831344  75.2199631  26.5361441 139.3996148  73.7009234  23.9550856
 139.3209779  73.3669098  24.8486614 140.2205815  74.1931002  23.9542328
 142.0974339  66.5670973  37.1627175 142.0650659  65.6286974  37.3486859
 142.7074963  66.6455010  36.4293000 133.9357670  65.4367026  23.2054379
 134.8816775  65.3073235  23.2742797 133.5571915  64.6981688  23.6823807
 142.2468827  63.3582017  37.2085458 141.7307876  62.5740474  37.0215387
 143.1308776  63.0300733  37.3731977 139.9079554  57.1023032  33.1681271
 139.7104376  56.7938121  34.0524603 140.5179260  57.8284671  33.2979200
 145.9966186  65.7694843  36.9007663 145.2699350  65.6350808  36.2924154
 145.5813473  66.0771671  37.7064381 133.8196362  69.4884773  44.6655036
 134.7399372  69.6663372  44.8595082 133.7845945  68.5440818  44.5134735
 132.1200587  63.3617003  23.1409264 131.2132042  63.0650116  23.2171978
 132.3976568  63.0646821  22.2743550 123.0378527  64.6823366  33.5908310
 122.7181312  63.8288674  33.2982684 122.4911956  64.8971944  34.3466278
 126.8158435  67.3985807  37.3077817 127.0344445  68.3302915  37.3265851
 127.2284209  67.0393782  38.0932621 133.7362653  57.9053893  29.2953505
 132.9263381  57.5600977  29.6708751 134.4247070  57.5961436  29.8841117
 135.6653201  56.9831939  30.9177802 136.2184240  57.4027393  31.5767825
 135.9023287  56.0567687  30.9600758 131.6886300  62.9719013  46.6980566
 131.5883027  63.9213370  46.6292657 131.4707842  62.6437252  45.8256636
 130.8899372  60.2203938  23.2821243 131.7518536  60.5458836  23.5417061
 131.0749716  59.4335434  22.7694309 122.9066787  68.3026278  35.5601432
 122.2130259  67.8880231  35.0471386 123.6539778  68.3446814  34.9634851
 139.0432008  59.0932464  30.4256466 138.4630677  59.7517269  30.0434519
 138.7767941  58.2709809  30.0143884 137.4935574  58.4937522  32.6277787
 137.9935353  58.6054057  31.8192105 138.1371182  58.1898575  33.2678595
 131.5517570  66.4016152  45.5145628 131.0684652  67.2016512  45.7209517
 131.6378509  66.4124097  44.5613071 124.8203530  68.2344531  33.4367447
 124.7974218  68.3332219  32.4849330 125.1304166  69.0809682  33.7584613
 127.4790908  70.2920687  37.5514061 128.4334161  70.2604629  37.4843993
 127.2803431  69.8311310  38.3664287 128.0690290  68.8621803  40.1184859
 128.8883179  69.3565881  40.1419696 128.3427098  67.9453771  40.0902426
 137.8256886  61.2532555  29.4812814 136.9382741  61.5382205  29.2633009
 138.2410875  61.0926318  28.6340091 141.1771422  61.2779076  33.1967154
 141.9531812  61.7675528  33.4691771 140.4519556  61.7037130  33.6539023
 143.6143981  61.9906695  34.2541094 144.2088472  61.7502431  33.5434403
 143.6870565  61.2713826  34.8814631 125.8341137  75.8340306  34.5684259
 125.6995605  75.0740707  34.0022257 125.4173199  76.5581206  34.1013048
 136.9700100  71.0177230  23.5760834 137.6735950  71.2227232  24.1918490
 136.2462748  71.5853991  23.8409918 137.7997910  66.7687091  29.6963105
 137.7433111  67.2255642  28.8570737 138.3526252  66.0077775  29.5185947
 141.6102716  62.5576823  30.5213224 141.3539650  62.1573458  31.3521432
 140.9855584  63.2720617  30.3963363 145.9215054  65.2972896  33.0284516
 145.3614612  65.3666085  33.8016078 145.3158557  65.1213881  32.3084012
 128.9910262  76.7309623  34.7802702 128.8742647  77.6755056  34.6781392
 128.1702709  76.4283185  35.1688501 138.8786797  71.4559759  25.6259295
 139.7132401  71.0240957  25.4436769 138.7171140  71.2841772  26.5536189
 138.5332689  67.9591872  26.9915634 138.4781493  67.7936143  26.0504078
 137.9078744  68.6667905  27.1477824 123.3225204  63.1959936  40.8177056
 123.9684068  62.6858890  41.3064281 123.1142355  63.9328618  41.3920481
 135.8478596  70.2640784  46.3169197 136.7169756  70.4381436  45.9555832
 135.3685348  71.0835201  46.1944926 131.8428815  57.4599981  26.5700952
 131.8307484  58.4041821  26.7269223 132.7352237  57.2770126  26.2760413
 130.0164777  77.3837885  37.9958630 130.9192023  77.4161495  38.3125125
 129.7902147  76.4538336  38.0104966 131.7718379  76.1368871  34.6568709
 130.8214010  76.1370733  34.5433081 132.0750865  75.3901606  34.1404743
 135.6580934  54.0542758  30.8246889 134.8913330  53.5001244  30.9703571
 136.0691639  54.1264626  31.6861041 127.6622695  60.3427554  44.9152070
 128.5254157  59.9864358  45.1255395 127.0888106  60.0041448  45.6027475
 144.3160778  81.9256838  35.6575996 143.9779290  81.8097903  34.7696531
 145.1850547  81.5248003  35.6377002 140.1747594  83.7792314  31.6472887
 139.6112459  83.6882251  30.8789175 140.0599989  82.9592219  32.1275379
 144.7980561  83.0791690  41.6162201 144.7869202  82.6844488  40.7442705
 144.9601201  82.3457762  42.2095973 137.7212026  85.2743506  34.4857107
 138.5133318  84.9334331  34.0703407 137.9608676  85.3838481  35.4059261
 145.7547153  87.4463282  26.9587352 145.1035133  88.0317362  26.5721366
 146.5491516  87.9769477  27.0182389 139.6802780  84.5352419  27.3574486
 140.4533656  83.9881406  27.2187362 140.0328179  85.3996669  27.5688948
 141.5187823  85.8628801  40.5641385 141.2277688  86.7674432  40.4488052
 142.1544807  85.9045329  41.2785455 142.4444029  83.2405650  37.1542745
 143.0407602  83.0161672  36.4399708 142.5019001  82.4990395  37.7568193
 142.0169058  80.6945085  24.9892936 142.2694578  80.1726607  24.2276399
 141.0793617  80.5311231  25.0919620 147.0612341  79.6980864  32.7967679
 147.8475430  79.2800287  32.4458096 147.3251045  80.6026956  32.9649328
 147.2322418  85.1353714  27.4956336 146.5968251  85.2088341  28.2077241
 146.9019824  85.7247313  26.8175415 141.7365346  82.5973191  27.1917311
 141.6201605  81.9218095  27.8598395 141.8467606  82.1105565  26.3749464
 144.0796887  82.0583338  30.8964000 143.7155095  81.5313959  31.6076922
 144.9364003  81.6681807  30.7230486 143.7202374  77.0873238  25.8925349
 143.8876777  77.9553475  26.2595820 143.5299543  77.2500520  24.9686638
 146.4777708  85.5490217  37.5591179 146.1778431  86.4515256  37.4506986
 146.1328767  85.2822400  38.4112332 139.9290189  82.0004014  33.5927884
 139.0040686  81.8680228  33.8005575 140.1774602  82.7798233  34.0897826
 143.6991595  79.5430896  26.8772016 143.5791220  79.9887946  27.7157496
 143.0044184  79.8916213  26.3185554 137.2899000  81.6437287  34.4271673
 137.4191381  81.8971766  35.3411084 136.6096451  82.2364995  34.1076328
 141.4598487  92.3134537  30.5262147 141.3822517  93.2642362  30.6050627
 140.8560131  91.9680410  31.1837073 143.9515717  79.4862403  43.1823514
 143.1749051  80.0456323  43.1726378 144.5906280  79.9719186  43.7038384
 142.2062089  82.2947856  42.7441481 142.9476774  82.8332900  42.4676304
 141.4999075  82.9214145  42.9013033 144.0348499  79.3749603  38.7147199
 144.8809694  79.7989017  38.8581848 143.9747137  78.7183228  39.4085762
 147.1847944  77.0353972  40.3728373 146.9408876  77.7896032  39.8362648
 147.4607875  77.4139319  41.2075620 146.7412636  76.1910405  35.9542211
 145.8797115  76.4891658  36.2458948 146.7675071  76.4080804  35.0223243
 143.5574206  84.7352595  32.3616016 144.0212551  85.0140298  31.5720639
 143.2931004  83.8336040  32.1789107 140.4498287  84.2824077  35.2995779
 141.0199644  84.7111345  34.6613264 141.0406399  84.0006662  35.9979965
 142.4943092  80.8575748  29.1705581 143.1967135  81.3096791  29.6379508
 142.1623720  80.2159567  29.7985474 140.9423453  79.4487504  43.5456791
 140.3122114  80.1303785  43.7792188 140.8359541  79.3370586  42.6009929
 136.2368426  79.1159300  34.4722715 135.4467480  79.3716829  33.9962826
 136.7279673  79.9307638  34.5774755 138.1883171  79.4803880  31.4306192
 137.3914334  79.5922574  31.9489687 137.9608763  79.8190532  30.5647082
 144.0188839  86.0048583  39.3788706 144.0833271  86.4668990  40.2146878
 143.3099763  85.3745948  39.5071016 134.5206129  79.3689791  36.9037706
 134.7714167  80.2536801  37.1695282 135.0565677  79.1894392  36.1312798
 143.7336856  87.6716690  29.2467687 143.5982531  88.5168226  29.6752534
 144.2746669  87.8735968  28.4833620 140.2204196  73.7508270  45.9082042
 139.8271142  73.1974469  46.5829686 141.0370336  74.0618849  46.2988559
 137.1866254  85.1892128  29.8195612 137.6990774  85.9835379  29.9701176
 137.8388967  84.4918419  29.7529213 138.9961138  88.3057885  31.9018365
 139.1727767  89.2275849  31.7139349 139.7917972  87.9916304  32.3312745
 143.1372157  75.1666149  43.5002298 143.8781870  75.7673302  43.4206761
 143.3690080  74.4243787  42.9420341 138.2813495  80.3522517  41.7780528
 138.1667010  79.4507774  42.0787627 137.4258013  80.5986213  41.4265345
 145.3605333  88.2940257  43.3768029 144.9169187  87.5076635  43.0588933
 146.0222546  88.4819407  42.7111919 140.1192454  89.8236058  37.9028707
 140.6699879  89.6953122  37.1305701 139.2803930  90.1230947  37.5523600
 143.9159625  86.0887186  42.2472938 144.4487962  85.3275474  42.0172246
 143.3873706  85.7960838  42.9897093 147.0829320  71.1947252  37.7766580
 146.7393589  72.0848894  37.7005691 147.4508282  71.0048910  36.9136165
 135.1515170  83.5180783  30.5955182 135.9890392  83.9277791  30.3788890
 135.3293438  82.5780225  30.5655376 147.0479603  81.1855863  26.2839015
 146.5326226  81.9560468  26.5227403 146.7756911  80.5120999  26.9072077
 144.6326714  76.0305564  31.3424254 143.7768310  75.6412414  31.1629892
 145.0453665  76.1097525  30.4824039 146.1625860  73.5651907  35.7415813
 145.6590656  73.5282043  34.9283619 146.4556467  74.4744650  35.8012470
 142.4068746  73.6490637  34.7481995 143.2721743  73.4533446  34.3887884
 142.4746255  73.4200989  35.6751352 146.8365906  79.0582955  28.1098796
 146.5316041  79.3729105  28.9608940 147.7896348  79.1364375  28.1526129
 145.2812338  85.2173179  29.7591750 144.7533699  84.4825938  29.4464988
 144.7799840  85.9947855  29.5131719 140.0131065  75.8792845  32.1198362
 140.5874817  75.6568026  31.3871555 140.6002048  75.9481539  32.8726963
 140.3400652  77.9097306  26.1394247 139.5037965  78.2471993  26.4603522
 140.2005422  77.7746286  25.2021384 142.3153733  72.7534094  30.8473431
 141.6618145  72.4383111  30.2230046 142.2734207  72.1309834  31.5733254
 143.4264938  83.0353389  22.7626723 142.5192000  82.8042642  22.9617872
 143.9235970  82.2391008  22.9500705 146.3333017  91.7450896  25.6823409
 145.6594715  92.0482593  26.2908367 146.7198839  92.5479977  25.3328867
 145.5491473  79.2416027  35.1721079 144.6314035  79.4630974  35.0142767
 145.9651617  79.3162338  34.3132786 146.3326521  80.6407443  30.3023759
 147.0798340  81.1528840  29.9930881 146.6018111  80.3191496  31.1628153
 144.6053171  83.1365984  27.2850713 143.6964390  82.8525017  27.3823183
 144.6348255  83.5565062  26.4254020 135.1741342  80.8571498  31.2665916
 134.9765741  80.2640859  30.5416982 134.6188006  80.5523708  31.9841854
 143.1538065  80.7494604  33.3860509 143.2086675  79.7968441  33.3102985
 142.3429267  80.9054044  33.8701807 144.3029259  84.6774728  24.6238792
 143.8648689  83.9610586  24.1644429 145.0439700  84.9050842  24.0623883
 141.0930425  79.3671664  31.1450888 140.2798291  79.6665835  31.5516080
 141.5889419  78.9727353  31.8625370 143.2439003  89.3629421  33.0785152
 143.2015182  89.5890267  32.1493684 144.1601702  89.1292796  33.2270953
 146.6904637  79.8313489  39.9765782 147.0454025  80.0584962  40.8360247
 147.3376768  80.1631865  39.3543037 140.5844500  76.9390020  36.7612123
 141.2243879  76.7978779  36.0635086 139.7522030  76.6524533  36.3850725
 141.3604804  86.2392450  32.8747115 142.1545402  85.7442770  32.6729690
 140.6496496  85.7110313  32.5114821 146.1799648  88.6210546  37.2259483
 146.2336671  89.1901482  37.9937199 145.3114430  88.7912431  36.8613520
 137.6687567  80.3835532  28.9506868 136.7385155  80.3219987  29.1676830
 137.7645039  79.8611485  28.1543509 137.5873116  76.9090345  31.5385109
 137.8479934  77.8235678  31.4294270 138.4090289  76.4414787  31.6881722
 139.0598042  78.3228102  38.7083934 139.7321095  78.1145464  38.0596583
 138.2327828  78.1250188  38.2689166 144.9623614  74.9490043  40.7249595
 144.3151529  75.6479992  40.6314071 145.7324629  75.3826187  41.0925843
 145.1387748  82.7870808  38.7846415 146.0679808  82.9381967  38.6115382
 144.7178778  82.8754828  37.9295061 143.9376080  86.8121472  36.5544952
 143.7987166  86.4440257  37.4270890 143.1490676  87.3269112  36.3828910
 144.5324232  91.9130569  27.8970489 144.7075988  91.4418612  28.7116111
 143.8457020  92.5396335  28.1251749 145.4881295  86.1903075  33.9433790
 145.1531128  86.1503845  34.8391440 144.9885241  85.5247791  33.4704200
 139.4625539  81.5970705  39.4686371 139.3245337  80.8650944  40.0697910
 140.3730462  81.5079605  39.1870559 142.0907840  81.3090664  38.9570051
 142.8007458  80.6683856  38.9156669 142.0477148  81.5603559  39.8796232
 140.8036774  78.2955882  40.7765690 140.2674131  77.8446621  41.4287287
 140.2153482  78.4301791  40.0336155 139.0985317  95.0619931  34.6710349
 139.3381915  95.6938456  35.3489367 138.2554514  94.7107971  34.9575708
 140.2139033  77.7544533  23.3392154 139.3368499  77.6333334  22.9754401
 140.6896786  76.9630612  23.0871043 131.7341173  82.5421693  33.4333661
 132.4212213  82.2283423  32.8454676 131.5789301  83.4463058  33.1600912
 136.5375895  77.4311890  37.8618685 136.4534084  76.8237559  37.1269095
 135.7158601  77.9220908  37.8628181 143.6113179  90.8699054  37.0751853
 143.5383350  91.6754025  37.5871157 143.1690572  91.0691020  36.2499874
 143.4002959  90.1070824  30.5854674 142.6170480  90.6492504  30.6792899
 144.0995704  90.6244803  30.9848916 146.7099609  75.9165453  33.2288880
 147.2068308  75.1635416  32.9089950 145.9386590  75.9529770  32.6632089
 146.0711862  90.7685888  39.2310011 146.7839835  91.4033353  39.1585913
 145.5801891  90.8649754  38.4150013 143.2934577  78.0582836  32.9560564
 142.9232365  77.5053877  33.6441470 143.7893670  77.4540970  32.4035564
 141.1223776  88.5180331  40.0515582 141.8233236  89.1516814  40.2044977
 140.6518891  88.8595063  39.2911222 145.8832236  91.1084632  31.9796303
 146.0654630  90.2906288  32.4424055 146.7065222  91.3252324  31.5421193
 146.2174401  90.0352817  29.2411351 146.7462168  89.5245272  28.6281514
 146.4802621  89.7195347  30.1056884 144.9712635  81.8144750  44.3634170
 144.2953272  81.7138879  45.0336545 145.7940269  81.6583964  44.8270167
 136.7191494  88.0516686  36.9846685 137.3044931  87.3060374  37.1174589
 136.5216333  88.3620643  37.8683349 139.5730149  91.0867934  32.0009127
 138.9040525  91.5714061  31.5173167 139.4343019  91.3337154  32.9152506
 131.3109149  80.6222287  35.7051128 131.3493248  80.0885877  36.4988246
 130.8049442  80.0957492  35.0862105 143.7135418  93.1211677  38.5991786
 144.2653726  93.2843299  39.3640871 144.0541611  93.7116115  37.9271811
 138.6899911  75.4686827  39.2013670 138.7541238  76.3301658  38.7891068
 138.6267031  74.8560829  38.4686029 138.1652184  77.5409960  42.8486705
 138.7924222  77.1587037  43.4624229 137.3080102  77.3224162  43.2142397
 134.9417726  79.3486389  28.7805060 135.2371167  78.4397067  28.7272113
 134.0405762  79.3274128  28.4586062 146.8503805  91.0693653  35.5855468
 146.7254945  90.2683393  35.0766413 147.5082896  91.5639846  35.0969438
 138.4711973  77.4242385  34.7632608 137.7498559  78.0378353  34.6240081
 139.2605229  77.9600150  34.6849254 141.2738287  74.7596812  41.0373260
 141.7972689  75.0059108  41.7999569 141.0550620  75.5916847  40.6176397
 136.6705568  77.0300486  28.9044385 136.3418274  76.1497865  28.7219491
 137.0244939  76.9748155  29.7920774 145.9185147  88.6655389  33.4139370
 145.7710109  87.7372096  33.5946940 146.7438640  88.6875480  32.9296445
 139.7847391  77.3173456  29.2719862 140.1243464  77.8459377  28.5498471
 140.2319512  77.6553862  30.0478429 142.4790832  75.7010507  38.7222930
 142.1387652  74.9018320  39.1243610 141.7729838  76.0012218  38.1499764
 143.1307304  72.7859819  37.1750253 143.9533373  72.3120297  37.0529144
 143.3745367  73.5650303  37.6748940 141.7715538  75.8148078  27.4713155
 142.4923901  76.1929331  26.9676872 141.1480842  76.5336955  27.5748133
 145.9146661  76.5193227  28.4071487 146.1310276  77.4017865  28.1060316
 145.4340728  76.1279440  27.6777129 140.6545883  79.4778940  34.9842232
 140.5090463  79.7919243  35.8766514 140.1771086  80.0963840  34.4313131
 142.5142265  76.4681488  35.0323122 142.5003834  75.5722581  34.6955420
 143.2314694  76.4752152  35.6661408 144.3668396  76.9018828  37.0776249
 144.1086174  77.8235899  37.0760579 143.8353437  76.5049263  37.7676713
 135.1291545  82.0184284  37.9229893 134.5845013  82.7944092  38.0550168
 136.0070895  82.3655089  37.7649015 141.9179161  75.3495868  30.3010692
 142.0395073  74.4212514  30.5001579 141.6281204  75.3634554  29.3889007
 144.7870352  73.0350779  33.4377412 144.8092049  73.0990112  32.4829391
 145.2038411  72.1955287  33.6317918 135.9157567  81.1454181  40.8160050
 135.1739303  81.2936816  41.4024681 135.5950311  81.4062446  39.9526800
 143.8601229  90.6870159  40.6140440 144.1688356  90.4419306  41.4863140
 144.6576711  90.8916797  40.1259310 143.8821841  92.8408068  32.8445817
 143.4426832  92.3484447  33.5378673 144.6329958  92.2981036  32.6037892
 136.3614180  89.0319609  32.8470445 137.1872200  88.7323381  32.4669088
 136.0108232  88.2627232  33.2960233 141.3295713  88.3846078  34.9168118
 140.7075723  87.7216783  34.6170346 142.0000580  88.4107209  34.2341766
 134.5622785  86.9505936  33.8059378 133.7254694  86.5228110  33.6243380
 134.5346431  87.1438379  34.7430170 141.4020241  76.8627866  44.5100624
 141.4508396  77.7389988  44.1278394 141.9442755  76.3205259  43.9372268
 140.8909220  86.9350001  28.3926579 141.0397341  87.6185465  27.7393252
 141.6975664  86.9155091  28.9076035 143.6319529  77.6159238  41.2646983
 142.7622839  77.9092804  40.9929572 143.8679010  78.1999683  41.9854247
 138.6461853  82.9615179  29.3987648 138.4007895  82.0577509  29.5967858
 138.8157768  82.9632329  28.4567126 146.3358563  73.8338855  38.7812403
 146.8540507  74.5699882  38.4558892 145.9813696  74.1402848  39.6159163
 137.9157501  78.6943536  26.8973809 137.2226746  78.7687891  26.2413845
 137.6709253  77.9303880  27.4195326 146.5871157  70.2539137  34.3013300
 146.8672911  69.5862327  34.9273727 147.3721764  70.4468233  33.7887964
 144.3904626  89.4298131  25.8638326 143.8178593  90.0488318  25.4108798
 144.9637420  89.9797493  26.3978248 144.7751424  80.7658944  23.2054379
 145.7210529  80.6365152  23.2742797 144.3965669  80.0273606  23.6823807
 144.6590117  84.8176690  44.6655036 145.5793126  84.9955289  44.8595082
 144.6239700  83.8732736  44.5134735 142.9594341  78.6908920  23.1409264
 142.0525797  78.3942033  23.2171978 143.2370323  78.3938739  22.2743550
 133.8772282  80.0115284  33.5908310 133.5575066  79.1580592  33.2982684
 133.3305710  80.2263862  34.3466278 137.6552189  82.7277725  37.3077817
 137.8738199  83.6594833  37.3265851 138.0677963  82.3685699  38.0932621
 144.5756407  73.2345810  29.2953505 143.7657136  72.8892895  29.6708751
 145.2640824  72.9253354  29.8841117 146.5046956  72.3123857  30.9177802
 147.0577994  72.7319310  31.5767825 146.7417042  71.3859605  30.9600758
 142.5280055  78.3010931  46.6980566 142.4276782  79.2505288  46.6292657
 142.3101597  77.9729170  45.8256636 141.7293126  75.5495856  23.2821243
 142.5912290  75.8750754  23.5417061 141.9143470  74.7627352  22.7694309
 133.7460542  83.6318195  35.5601432 133.0524013  83.2172148  35.0471386
 134.4933533  83.6738732  34.9634851 142.3911325  81.7308069  45.5145628
 141.9078406  82.5308430  45.7209517 142.4772264  81.7416014  44.5613071
 135.6597284  83.5636449  33.4367447 135.6367973  83.6624136  32.4849330
 135.9697921  84.4101600  33.7584613 138.3184662  85.6212604  37.5514061
 139.2727916  85.5896547  37.4843993 138.1197186  85.1603228  38.3664287
 138.9084044  84.1913720  40.1184859 139.7276933  84.6857799  40.1419696
 139.1820852  83.2745688  40.0902426 136.6734891  91.1632224  34.5684259
 136.5389359  90.4032625  34.0022257 136.2566953  91.8873124  34.1013048
 139.8304017  92.0601541  34.7802702 139.7136401  93.0046973  34.6781392
 139.0096463  91.7575102  35.1688501 134.1618959  78.5251854  40.8177056
 134.8077822  78.0150808  41.3064281 133.9536110  79.2620536  41.3920481
 146.6872351  85.5932702  46.3169197 147.5563510  85.7673354  45.9555832
 146.2079102  86.4127118  46.1944926 142.6822569  72.7891899  26.5700952
 142.6701239  73.7333739  26.7269223 143.5745991  72.6062044  26.2760413
 140.8558531  92.7129803  37.9958630 141.7585778  92.7453413  38.3125125
 140.6295901  91.7830254  38.0104966 142.6112133  91.4660789  34.6568709
 141.6607764  91.4662651  34.5433081 142.9144619  90.7193524  34.1404743
 146.4974689  69.3834675  30.8246889 145.7307084  68.8293162  30.9703571
 146.9085394  69.4556544  31.6861041 138.5016450  75.6719471  44.9152070
 139.3647911  75.3156276  45.1255395 137.9281860  75.3333366  45.6027475
 147.0762180  94.4451218  34.4722715 146.2861234  94.7008747  33.9962826
 147.5673427  95.2599556  34.5774755 145.3599883  94.6981708  36.9037706
 145.6107922  95.5828718  37.1695282 145.8959432  94.5186310  36.1312798
 145.9908925  98.8472700  30.5955182 146.8284147  99.2569709  30.3788890
 146.1687193  97.9072142  30.5655376 146.0135096  96.1863416  31.2665916
 145.8159496  95.5932776  30.5416982 145.4581760  95.8815626  31.9841854
 142.5734927  97.8713611  33.4333661 143.2605967  97.5575341  32.8454676
 142.4183056  98.7754976  33.1600912 147.3769649  92.7603807  37.8618685
 147.2927838  92.1529477  37.1269095 146.5552356  93.2512826  37.8628181
 142.1502903  95.9514204  35.7051128 142.1887003  95.4177795  36.4988246
 141.6443196  95.4249410  35.0862105 145.7811481  94.6778306  28.7805060
 146.0764922  93.7688985  28.7272113 144.8799517  94.6566046  28.4586062
 145.9685299  97.3476202  37.9229893 145.4238767  98.1236010  38.0550168
 146.8464649  97.6947006  37.7649015 146.7551321  96.4746098  40.8160050
 146.0133057  96.6228734  41.4024681 146.4344065  96.7354364  39.9526800
 145.4016540 102.2797853  33.8059378 144.5648448 101.8520028  33.6243380
 145.3740185 102.4730297  34.7430170 144.7166036  95.3407202  33.5908310
 144.3968821  94.4872510  33.2982684 144.1699465  95.5555780  34.3466278
 144.5854296  98.9610113  35.5601432 143.8917768  98.5464066  35.0471386
 145.3327287  99.0030650  34.9634851 146.4991039  98.8928367  33.4367447
 146.4761727  98.9916054  32.4849330 146.8091675  99.7393518  33.7584613
 147.5128646 106.4924141  34.5684259 147.3783113 105.7324542  34.0022257
 147.0960708 107.2165041  34.1013048 145.0012713  93.8543772  40.8177056
 145.6471577  93.3442726  41.3064281 144.7929864  94.5912453  41.3920481
  98.1023471   8.0028989  17.2507453  98.0247500   8.9536814  17.3295934
  97.4985114   7.6574862  17.9082380  96.7617437   5.5130510  24.6274014
  97.3124862   5.3847574  23.8551008  95.9228913   5.8125399  24.2768907
 101.1749215   7.6025020  14.6215795 101.3500971   7.1313064  15.4361418
 100.4882003   8.2290787  14.8497056  95.7410300  10.7514383  21.3955655
  95.9806899  11.3832907  22.0734674  94.8979497  10.4002423  21.6821015
 100.2538162   6.5593506  23.7997159 100.1808334   7.3648477  24.3116464
  99.8115555   6.7585472  22.9745181 100.0427942   5.7965276  17.3099981
  99.2595464   6.3386956  17.4038206 100.7420687   6.3139255  17.7094222
 102.7136846   6.4580340  25.9555318 103.4264818   7.0927805  25.8831220
 102.2226874   6.5544206  25.1395320  96.2155133   6.7762386  18.7254434
  95.5465508   7.2608513  18.2418474  96.0768002   7.0231606  19.6397813
 100.3560401   8.8106129  25.3237092 100.9078709   8.9737751  26.0886178
 100.6966595   9.4010567  24.6517117 100.5026213   6.3764611  27.3385747
 100.8113339   6.1313757  28.2108446 101.3001695   6.5811249  26.8504617
 100.5246825   8.5302520  19.5691123 100.0851815   8.0378899  20.2623980
 101.2754942   7.9875488  19.3283199  93.0039164   4.7214061  19.5715751
  93.8297183   4.4217833  19.1914395  92.6533216   3.9521684  20.0205540
  91.2047769   2.6400388  20.5304685  90.3679677   2.2122562  20.3488686
  91.1771414   2.8332831  21.4675476  93.3159874   6.8526676  21.2929566
  93.1814342   6.0927076  20.7267564  92.8991937   7.5767575  20.8258355
  96.4729000   7.7495993  21.5048008  96.3561384   8.6941425  21.4026699
  95.6521447   7.4469554  21.8933808  97.4983514   8.4024254  24.7203937
  98.4010761   8.4347865  25.0370432  97.2720884   7.4724705  24.7350273
  99.2537116   7.1555241  21.3814016  98.3032747   7.1557103  21.2678388
  99.5569603   6.4087976  20.8650050 111.7979516  12.9443208  22.3821303
 111.4598028  12.8284272  21.4941837 112.6669284  12.5434373  22.3622309
 107.6566332  14.7978684  18.3718194 107.0931197  14.7068621  17.6034481
 107.5418727  13.9778588  18.8520686 112.2799299  14.0978059  28.3407508
 112.2687940  13.7030858  27.4688012 112.4419939  13.3644132  28.9341280
 105.2030764  16.2929876  21.2102414 105.9952056  15.9520700  20.7948713
 105.4427414  16.4024851  22.1304567 109.0006560  16.8815171  27.2886692
 108.7096426  17.7860802  27.1733358 109.6363545  16.9231699  28.0030762
 109.9262767  14.2592020  23.8788052 110.5226339  14.0348042  23.1645015
 109.9837739  13.5176765  24.4813500 113.9596445  16.5676587  24.2836486
 113.6597168  17.4701625  24.1752293 113.6147505  16.3008770  25.1357639
 107.4108927  13.0190383  20.3173190 106.4859423  12.8866598  20.5250882
 107.6593340  13.7984603  20.8143133 104.7717738  12.6623657  21.1516979
 104.9010119  12.9158136  22.0656391 104.0915189  13.2551365  20.8321634
 108.9417225  23.3320907  17.2507453 108.8641255  24.2828732  17.3295934
 108.3378869  22.9866779  17.9082380 111.4334455  10.5048772  29.9068820
 110.6567789  11.0642692  29.8971685 112.0725018  10.9905555  30.4283690
 109.6880827  13.3134226  29.4686787 110.4295512  13.8519270  29.1921611
 108.9817813  13.9400514  29.6258339 115.1636167  15.4563366  28.0658949
 115.5719523  15.0145777  27.3213581 114.4413428  14.8815994  28.3193142
 111.5167237  10.3935973  25.4392506 112.3628432  10.8175386  25.5827155
 111.4565875   9.7369597  26.1331069 115.4864982  16.0164557  21.8211238
 114.8573844  16.1810271  21.1187306 115.0990644  16.4306166  22.5922202
 116.6205145  14.5978954  25.7750945 116.8322040  15.2410714  25.0985326
 116.5734893  13.7641270  25.3072875 111.0392943  15.7538965  19.0861323
 111.5031289  16.0326668  18.2965945 110.7749742  14.8522409  18.9034414
 107.9317024  15.3010446  22.0241086 108.5018382  15.7297715  21.3858571
 108.5225136  15.0193031  22.7225272 108.4242191  10.4673874  30.2702097
 107.7940852  11.1490155  30.5037494 108.3178279  10.3556955  29.3255236
 103.7187163  10.1345670  21.1968022 102.9286217  10.3903198  20.7208132
 104.2098411  10.9494008  21.3020062 117.7350973  17.4750909  23.9473302
 118.5568417  17.0731096  23.6655984 117.7313376  17.3719143  24.8989418
 105.6701909  10.4990249  18.1551498 104.8733072  10.6108943  18.6734994
 105.4427501  10.8376901  17.2892389 111.5007576  17.0234952  26.1034013
 111.5652009  17.4855360  26.9392185 110.7918500  16.3932317  26.2316323
 102.0024866  10.3876160  23.6283012 102.2532905  11.2723170  23.8940588
 102.5384415  10.2080762  22.8558104 104.6684991  16.2078498  16.5440918
 105.1809512  17.0021748  16.6946483 105.3207704  15.5104788  16.4774520
 106.4779876  19.3244254  18.6263671 106.6546505  20.2462219  18.4384655
 107.2736710  19.0102673  19.0558051 105.7632233  11.3708886  28.5025835
 105.6485748  10.4694143  28.8032934 104.9076750  11.6172583  28.1510651
 112.8424070  19.3126626  30.1013335 112.3987925  18.5263005  29.7834240
 113.5041284  19.5005777  29.4357226 107.6011192  20.8422428  24.6274014
 108.1518617  20.7139491  23.8551008 106.7622668  21.1417317  24.2768907
 114.9405309  19.5929426  28.1294737 114.9223784  20.4138307  27.6375006
 115.8625229  19.4683502  28.3544878 111.3978363  17.1073556  28.9718245
 111.9306699  16.3461844  28.7417553 110.8692444  16.8147208  29.7142399
 102.6333908  14.5367152  17.3200489 103.4709130  14.9464161  17.1034197
 102.8112176  13.5966594  17.2900683 102.6560079  11.8757868  17.9911222
 102.4584479  11.2827228  17.2662289 102.1006743  11.5710078  18.7087161
 110.7257741  20.3815791  19.8030459 110.6833920  20.6076637  18.8738991
 111.6420440  20.1479165  19.9516260 114.1723375  10.8499858  26.7011088
 114.5272762  11.0771331  27.5605554 114.8195506  11.1818235  26.0788343
 108.8423542  17.2578820  19.5992422 109.6364140  16.7629140  19.3974997
 108.1315234  16.7296683  19.2360127 113.6618386  19.6396915  23.9504789
 113.7155408  20.2087852  24.7182505 112.7933167  19.8098800  23.5858826
 105.0691854   7.9276714  18.2630416 105.3298671   8.8422048  18.1539577
 105.8909026   7.4601157  18.4127029 106.5416779   9.3414471  25.4329241
 107.2139833   9.1331834  24.7841889 105.7146566   9.1436557  24.9934473
 115.8521149  16.2325265  30.5245455 115.7006656  16.0035816  29.6075538
 115.8425829  17.1895866  30.5376800 112.6206486  13.8057177  25.5091721
 113.5498546  13.9568337  25.3360688 112.1997516  13.8941198  24.6540368
 111.4194818  17.8307842  23.2790259 111.2805903  17.4626626  24.1516197
 110.6309414  18.3455481  23.1074217 112.0142970  22.9316938  14.6215795
 112.1894725  22.4604981  15.4361418 111.3275758  23.5582704  14.8497056
 112.9700033  17.2089444  20.6679097 112.6349865  17.1690214  21.5636746
 112.4703978  16.5434160  20.1949507 106.9444277  12.6157074  26.1931678
 106.8064075  11.8837313  26.7943217 107.8549200  12.5265975  25.9115865
 109.5726577  12.3277034  25.6815357 110.2826196  11.6870226  25.6401976
 109.5295886  12.5789929  26.6041538 117.5613356  19.2644387  28.6021937
 117.5025902  18.5803607  27.9352520 117.9632874  20.0063377  28.1502563
 108.2855511   9.3142252  27.5010997 107.7492868   8.8632990  28.1532593
 107.6972220   9.4488160  26.7581461 106.5804055  26.0806301  21.3955655
 106.8200653  26.7124825  22.0734674 105.7373251  25.7294341  21.6821015
 117.5630763  17.2283971  26.8335916 116.6757542  16.8909893  26.9562315
 118.1329314  16.4967002  27.0704682  99.2159910  13.5608063  20.1578968
  99.9030950  13.2469793  19.5699983  99.0608039  14.4649427  19.8846219
 104.0194633   8.4498259  24.5863991 103.9352821   7.8423929  23.8514401
 103.1977339   8.9407278  24.5873488 111.0931917  21.8885423  23.7997159
 111.0202088  22.6940395  24.3116464 110.6509310  22.0877389  22.9745181
 110.8821696  21.1257193  17.3099981 110.0989218  21.6678874  17.4038206
 111.5814442  21.6431173  17.7094222 113.5530600  21.7872257  25.9555318
 114.2658572  22.4219722  25.8831220 113.0620629  21.8836123  25.1395320
 108.6042514  19.5366701  26.7760889 109.3051973  20.1703184  26.9290283
 108.1337629  19.8781432  26.0156528 113.3650974  22.1271001  18.7041610
 113.5473368  21.3092657  19.1669362 114.1883960  22.3438694  18.2666500
 112.4531373  12.8331119  31.0879476 111.7772010  12.7325249  31.7581852
 113.2759007  12.6770333  31.5515474 104.2010232  19.0703056  23.7091992
 104.7863669  18.3246744  23.8419896 104.0035070  19.3807013  24.5928656
 107.0548887  22.1054303  18.7254434 106.3859262  22.5900431  18.2418474
 106.9161757  22.3523524  19.6397813  98.7927887  11.6408656  22.4296435
  98.8311986  11.1072247  23.2233553  98.2868179  11.1143862  21.8107412
 111.1954156  24.1398047  25.3237092 111.7472464  24.3029668  26.0886178
 111.5360349  24.7302485  24.6517117 105.6470921   8.5596329  29.5732011
 106.2742960   8.1773406  30.1869536 104.7898840   8.3410531  29.9387704
 116.0465030  18.9659304  31.1785747 116.5904934  19.5789263  30.6840702
 115.4651875  19.5238883  31.6952760 102.4236464  10.3672758  15.5050366
 102.7189905   9.4583437  15.4517420 101.5224500  10.3460498  15.1831369
 114.3322543  22.0880022  22.3100775 114.2073682  21.2869762  21.8011720
 114.9901634  22.5826216  21.8214745 105.9530711   8.4428755  21.4877915
 105.2317297   9.0564723  21.3485388 106.7423967   8.9786520  21.4094561
 116.3957451  19.8889042  23.9380325 115.4487787  19.7694394  23.8658651
 116.7440224  19.0011540  24.0206586 113.4003885  19.6841759  20.1384677
 113.2528847  18.7558466  20.3192247 114.2257378  19.7061849  19.6541752
 117.0038006  20.5070317  21.2249550 117.9284554  20.3013179  21.0874001
 116.8353310  20.2586719  22.1338891 108.1364620  10.4965310  21.7087539
 107.9909201  10.8105613  22.6011820 107.6589824  11.1150210  21.1558437
 102.6110282  13.0370654  24.6475200 102.0663751  13.8130462  24.7795474
 103.4889632  13.3841458  24.4894321 103.3976304  12.1640550  27.5405357
 102.6558040  12.3123186  28.1269987 103.0769049  12.4248816  26.6772106
 111.3419967  21.7056528  27.3385747 111.6507093  21.4605675  28.2108446
 112.1395449  21.9103167  26.8504617 111.3640579  23.8594438  19.5691123
 110.9245569  23.3670817  20.2623980 112.1148696  23.3167406  19.3283199
 103.8432918  20.0505979  19.5715751 104.6690938  19.7509751  19.1914395
 103.4926970  19.2813601  20.0205540 108.8114451  19.4032447  21.6413425
 108.1894460  18.7403152  21.3415653 109.4819318  19.4293579  20.9587073
 102.0441523  17.9692305  20.5304685 101.2073431  17.5414480  20.3488686
 102.0165169  18.1624749  21.4675476 119.3693824  18.4255358  30.5147068
 118.5789368  18.4079497  29.9751567 119.1327179  18.9643652  31.2696105
 119.4891699  15.2747825  27.8279797 119.5389704  15.1097832  28.7695319
 119.3805623  14.4075084  27.4377677 108.3727958  17.9536370  15.1171886
 108.5216078  18.6371835  14.4638558 109.1794402  17.9341461  15.6321341
 120.9909896  17.6944766  28.0721818 120.6994705  18.0574747  28.9085279
 120.3782028  16.9811775  27.8935150 106.1280591  13.9801548  16.1232954
 105.8826633  13.0763878  16.3213165 106.2976506  13.9818699  15.1812432
 112.1408855  15.8363060  31.3900342 113.0611864  16.0141659  31.5840389
 112.1058438  14.8919105  31.2380042 101.3591020  11.0301653  20.3153617
 101.0393804  10.1766962  20.0227991 100.8124448  11.2450232  21.0711584
 105.1370927  13.7464094  24.0323124 105.3556937  14.6781202  24.0511157
 105.5496701  13.3872069  24.8177927 110.0098793   9.3197300  33.4225873
 109.9095519  10.2691657  33.3537964 109.7920335   8.9915539  32.5501943
 101.2279280  14.6504565  22.2846739 100.5342751  14.2358518  21.7716693
 101.9752271  14.6925101  21.6880158 109.8730063  12.7494439  32.2390934
 109.3897144  13.5494799  32.4454823 109.9591002  12.7602384  31.2858378
 103.1416022  14.5822819  20.1612754 103.1186710  14.6810506  19.2094637
 103.4516659  15.4287970  20.4829920 105.8003400  16.6398974  24.2759368
 106.7546654  16.6082916  24.2089300 105.6015924  16.1789597  25.0909594
 106.3902782  15.2100090  26.8430166 107.2095671  15.7044168  26.8665003
 106.6639590  14.2932058  26.8147733 104.1553629  22.1818593  21.2929566
 104.0208097  21.4218994  20.7267564 103.7385691  22.9059493  20.8258355
 107.3122755  23.0787910  21.5048008 107.1955139  24.0233343  21.4026699
 106.4915201  22.7761472  21.8933808 101.6437696   9.5438224  27.5422363
 102.2896560   9.0337178  28.0309588 101.4354848  10.2806905  28.1165788
 114.1691089  16.6119071  33.0414503 115.0382248  16.7859723  32.6801138
 113.6897840  17.4313488  32.9190233 108.3377269  23.7316172  24.7203937
 109.2404516  23.7639782  25.0370432 108.1114639  22.8016623  24.7350273
 110.0930871  22.4847159  21.3814016 109.1426502  22.4849020  21.2678388
 110.3963357  21.7379893  20.8650050 122.6373271  28.2735125  22.3821303
 122.2991782  28.1576190  21.4941837 123.5063039  27.8726290  22.3622309
 118.4960086  30.1270602  18.3718194 117.9324951  30.0360539  17.6034481
 118.3812481  29.3070506  18.8520686 123.1193054  29.4269977  28.3407508
 123.1081694  29.0322775  27.4688012 123.2813693  28.6936050  28.9341280
 116.0424518  31.6221793  21.2102414 116.8345810  31.2812618  20.7948713
 116.2821168  31.7316768  22.1304567 119.8400315  32.2107089  27.2886692
 119.5490181  33.1152720  27.1733358 120.4757299  32.2523616  28.0030762
 120.7656522  29.5883937  23.8788052 121.3620094  29.3639960  23.1645015
 120.8231493  28.8468683  24.4813500 124.7990200  31.8968504  24.2836486
 124.4990923  32.7993543  24.1752293 124.4541259  31.6300687  25.1357639
 118.2502681  28.3482301  20.3173190 117.3253178  28.2158515  20.5250882
 118.4987095  29.1276520  20.8143133 115.6111492  27.9915575  21.1516979
 115.7403874  28.2450054  22.0656391 114.9308944  28.5843283  20.8321634
 119.7810980  38.6612825  17.2507453 119.7035009  39.6120650  17.3295934
 119.1772623  38.3158697  17.9082380 122.2728209  25.8340690  29.9068820
 121.4961543  26.3934610  29.8971685 122.9118772  26.3197473  30.4283690
 120.5274582  28.6426143  29.4686787 121.2689266  29.1811187  29.1921611
 119.8211567  29.2692432  29.6258339 126.0029921  30.7855284  28.0658949
 126.4113277  30.3437694  27.3213581 125.2807183  30.2107911  28.3193142
 122.3560991  25.7227891  25.4392506 123.2022187  26.1467304  25.5827155
 122.2959629  25.0661515  26.1331069 126.3258736  31.3456474  21.8211238
 125.6967598  31.5102189  21.1187306 125.9384398  31.7598084  22.5922202
 125.5060437  23.3832259  27.0973679 125.2621369  24.1374320  26.5607955
 125.7820367  23.7617607  27.9320927 127.4598900  29.9270871  25.7750945
 127.6715795  30.5702631  25.0985326 127.4128648  29.0933188  25.3072875
 121.8786698  31.0830883  19.0861323 122.3425043  31.3618586  18.2965945
 121.6143496  30.1814327  18.9034414 118.7710779  30.6302364  22.0241086
 119.3412136  31.0589632  21.3858571 119.3618891  30.3484949  22.7225272
 119.2635945  25.7965792  30.2702097 118.6334606  26.4782072  30.5037494
 119.1572033  25.6848873  29.3255236 114.5580918  25.4637588  21.1968022
 113.7679972  25.7195116  20.7208132 115.0492165  26.2785925  21.3020062
 128.5744727  32.8042827  23.9473302 129.3962171  32.4023014  23.6655984
 128.5707130  32.7011061  24.8989418 116.5095663  25.8282167  18.1551498
 115.7126827  25.9400861  18.6734994 116.2821255  26.1668819  17.2892389
 122.3401331  32.3526870  26.1034013 122.4045763  32.8147277  26.9392185
 121.6312255  31.7224235  26.2316323 112.8418621  25.7168078  23.6283012
 113.0926659  26.6015088  23.8940588 113.3778169  25.5372680  22.8558104
 118.5416688  20.0986557  32.6327348 118.1483634  19.5452756  33.3074993
 119.3582829  20.4097136  33.0233866 115.5078746  31.5370416  16.5440918
 116.0203267  32.3313666  16.6946483 116.1601459  30.8396706  16.4774520
 117.3173631  34.6536172  18.6263671 117.4940259  35.5754137  18.4384655
 118.1130464  34.3394591  19.0558051 121.4584649  21.5144436  30.2247605
 122.1994363  22.1151590  30.1452067 121.6902572  20.7722074  29.6665648
 116.6025987  26.7000804  28.5025835 116.4879502  25.7986061  28.8032934
 115.7470505  26.9464501  28.1510651 123.6817825  34.6418544  30.1013335
 123.2381679  33.8554923  29.7834240 124.3435039  34.8297695  29.4357226
 118.4404946  36.1714346  24.6274014 118.9912371  36.0431409  23.8551008
 117.6016422  36.4709235  24.2768907 125.7799063  34.9221344  28.1294737
 125.7617538  35.7430225  27.6375006 126.7018983  34.7975419  28.3544878
 122.2372117  32.4365473  28.9718245 122.7700454  31.6753762  28.7417553
 121.7086198  32.1439125  29.7142399 113.4727663  29.8659070  17.3200489
 114.3102885  30.2756078  17.1034197 113.6505930  28.9258512  17.2900683
 113.4953834  27.2049785  17.9911222 113.2978234  26.6119146  17.2662289
 112.9400498  26.9001995  18.7087161 121.5651495  35.7107708  19.8030459
 121.5227674  35.9368555  18.8738991 122.4814194  35.4771083  19.9516260
 125.0117129  26.1791776  26.7011088 125.3666517  26.4063249  27.5605554
 125.6589260  26.5110153  26.0788343 118.9056992  23.2868307  23.4857429
 119.5456372  23.1457066  22.7880393 118.0734523  23.0002820  23.1096031
 119.6817296  32.5870737  19.5992422 120.4757895  32.0921058  19.3974997
 118.9708989  32.0588601  19.2360127 124.5012141  34.9688833  23.9504789
 124.5549163  35.5379769  24.7182505 123.6326922  35.1390718  23.5858826
 115.9085609  23.2568632  18.2630416 116.1692426  24.1713965  18.1539577
 116.7302781  22.7893075  18.4127029 117.3810534  24.6706389  25.4329241
 118.0533587  24.4623751  24.7841889 116.5540321  24.4728475  24.9934473
 123.2836106  21.2968330  27.4494901 122.6364021  21.9958280  27.3559378
 124.0537121  21.7304474  27.8171150 126.6914904  31.5617182  30.5245455
 126.5400410  31.3327734  29.6075538 126.6819583  32.5187784  30.5376800
 123.4600240  29.1349095  25.5091721 124.3892300  29.2860255  25.3360688
 123.0391270  29.2233116  24.6540368 122.2588572  33.1599759  23.2790259
 122.1199658  32.7918544  24.1516197 121.4703168  33.6747399  23.1074217
 122.8536724  38.2608856  14.6215795 123.0288480  37.7896899  15.4361418
 122.1669512  38.8874622  14.8497056 123.8093787  32.5381362  20.6679097
 123.4743620  32.4982132  21.5636746 123.3097733  31.8726078  20.1949507
 117.7838031  27.9448992  26.1931678 117.6457829  27.2129231  26.7943217
 118.6942955  27.8557892  25.9115865 120.4120332  27.6568951  25.6815357
 121.1219950  27.0162144  25.6401976 120.3689640  27.9081846  26.6041538
 128.4007111  34.5936305  28.6021937 128.3419657  33.9095525  27.9352520
 128.8026629  35.3355295  28.1502563 119.1249266  24.6434169  27.5010997
 118.5886623  24.1924908  28.1532593 118.5365974  24.7780078  26.7581461
 117.4197809  41.4098219  21.3955655 117.6594408  42.0416743  22.0734674
 116.5767006  41.0586259  21.6821015 128.4024518  32.5575889  26.8335916
 127.5151297  32.2201810  26.9562315 128.9723069  31.8258920  27.0704682
 110.0553665  28.8899980  20.1578968 110.7424705  28.5761710  19.5699983
 109.9001794  29.7941345  19.8846219 114.8588387  23.7790177  24.5863991
 114.7746576  23.1715847  23.8514401 114.0371094  24.2699195  24.5873488
 121.9325671  37.2177341  23.7997159 121.8595843  38.0232313  24.3116464
 121.4903064  37.4169307  22.9745181 121.7215451  36.4549111  17.3099981
 120.9382973  36.9970791  17.4038206 122.4208196  36.9723091  17.7094222
 124.3924355  37.1164175  25.9555318 125.1052327  37.7511640  25.8831220
 123.9014383  37.2128041  25.1395320 119.4436268  34.8658619  26.7760889
 120.1445728  35.4995101  26.9290283 118.9731383  35.2073350  26.0156528
 124.2044728  37.4562919  18.7041610 124.3867123  36.6384575  19.1669362
 125.0277714  37.6730611  18.2666500 123.2925127  28.1623037  31.0879476
 122.6165764  28.0617166  31.7581852 124.1152761  28.0062251  31.5515474
 115.0403986  34.3994974  23.7091992 115.6257423  33.6538661  23.8419896
 114.8428825  34.7098930  24.5928656 117.8942642  37.4346221  18.7254434
 117.2253017  37.9192349  18.2418474 117.7555511  37.6815441  19.6397813
 109.6321641  26.9700574  22.4296435 109.6705741  26.4364164  23.2233553
 109.1261934  26.4435779  21.8107412 122.0347910  39.4689964  25.3237092
 122.5866218  39.6321586  26.0886178 122.3754104  40.0594402  24.6517117
 117.0112403  21.8165114  25.9258977 117.0753730  22.6779945  25.5136375
 116.9479524  21.2039116  25.1931336 116.4864676  23.8888247  29.5732011
 117.1136715  23.5065324  30.1869536 115.6292595  23.6702449  29.9387704
 126.8858784  34.2951222  31.1785747 127.4298688  34.9081180  30.6840702
 126.3045629  34.8530800  31.6952760 113.2630219  25.6964676  15.5050366
 113.5583660  24.7875354  15.4517420 112.3618254  25.6752415  15.1831369
 125.1716297  37.4171940  22.3100775 125.0467437  36.6161680  21.8011720
 125.8295389  37.9118133  21.8214745 116.7924466  23.7720673  21.4877915
 116.0711051  24.3856640  21.3485388 117.5817721  24.3078437  21.4094561
 127.2351206  35.2180960  23.9380325 126.2881541  35.0986311  23.8658651
 127.5833979  34.3303458  24.0206586 119.5950779  21.1075099  27.7618567
 120.1185181  21.3537396  28.5244876 119.3763112  21.9395134  27.3421704
 124.2397639  35.0133676  20.1384677 124.0922602  34.0850384  20.3192247
 125.0651133  35.0353767  19.6541752 127.8431761  35.8362235  21.2249550
 128.7678308  35.6305096  21.0874001 127.6747064  35.5878636  22.1338891
 120.8003324  22.0488794  25.4468237 120.4600145  21.2496607  25.8488917
 120.0942331  22.3490505  24.8745070 118.9758375  25.8257227  21.7087539
 118.8302956  26.1397530  22.6011820 118.4983578  26.4442128  21.1558437
 122.6880888  23.2497115  23.8021556 122.4298666  24.1714186  23.8005886
 122.1565929  22.8527550  24.4922020 113.4504037  28.3662572  24.6475200
 112.9057505  29.1422380  24.7795474 114.3283387  28.7133376  24.4894321
 114.2370059  27.4932468  27.5405357 113.4951795  27.6415103  28.1269987
 113.9162803  27.7540733  26.6772106 122.1813721  37.0348446  27.3385747
 122.4900848  36.7897593  28.2108446 122.9789204  37.2395085  26.8504617
 122.2034334  39.1886356  19.5691123 121.7639324  38.6962734  20.2623980
 122.9542450  38.6459323  19.3283199 114.6826673  35.3797897  19.5715751
 115.5084692  35.0801668  19.1914395 114.3320725  34.6105519  20.0205540
 119.6508206  34.7324365  21.6413425 119.0288215  34.0695070  21.3415653
 120.3213073  34.7585497  20.9587073 112.8835278  33.2984223  20.5304685
 112.0467186  32.8706397  20.3488686 112.8558923  33.4916666  21.4675476
 119.7232733  23.2106153  31.2345931 119.7720889  24.0868276  30.8523701
 120.2655247  22.6683546  30.6617574 130.2087579  33.7547276  30.5147068
 129.4183123  33.7371415  29.9751567 129.9720933  34.2935570  31.2696105
 130.3285454  30.6039742  27.8279797 130.3783459  30.4389750  28.7695319
 130.2199377  29.7367001  27.4377677 119.2121713  33.2828288  15.1171886
 119.3609833  33.9663753  14.4638558 120.0188156  33.2633378  15.6321341
 127.6189216  26.5870670  29.1439103 128.5199079  26.4477135  28.8523101
 127.6937191  26.7525125  30.0837281 121.9532022  23.9637525  27.9892290
 121.0835331  24.2571091  27.7174878 122.1891502  24.5477970  28.7099553
 131.8303651  33.0236684  28.0721818 131.5388459  33.3866665  28.9085279
 131.2175782  32.3103692  27.8935150 116.9674346  29.3093466  16.1232954
 116.7220388  28.4055796  16.3213165 117.1370260  29.3110616  15.1812432
 122.9802609  31.1654977  31.3900342 123.9005619  31.3433576  31.5840389
 122.9452192  30.2211023  31.2380042 112.1984774  26.3593571  20.3153617
 111.8787558  25.5058879  20.0227991 111.6518202  26.5742149  21.0711584
 115.9764682  29.0756012  24.0323124 116.1950691  30.0073120  24.0511157
 116.3890456  28.7163987  24.8177927 120.8492547  24.6489218  33.4225873
 120.7489274  25.5983575  33.3537964 120.6314089  24.3207457  32.5501943
 112.0673034  29.9796483  22.2846739 111.3736506  29.5650435  21.7716693
 112.8146025  30.0217019  21.6880158 120.7123817  28.0786357  32.2390934
 120.2290899  28.8786717  32.4454823 120.7984756  28.0894302  31.2858378
 113.9809777  29.9114736  20.1612754 113.9580465  30.0102424  19.2094637
 114.2910413  30.7579887  20.4829920 116.6397155  31.9690891  24.2759368
 117.5940408  31.9374834  24.2089300 116.4409678  31.5081515  25.0909594
 117.2296537  30.5392007  26.8430166 118.0489426  31.0336086  26.8665003
 117.5033344  29.6223976  26.8147733 114.9947383  37.5110511  21.2929566
 114.8601851  36.7510912  20.7267564 114.5779446  38.2351411  20.8258355
 118.1516509  38.4079828  21.5048008 118.0348893  39.3525260  21.4026699
 117.3308955  38.1053390  21.8933808 112.4831451  24.8730141  27.5422363
 113.1290315  24.3629095  28.0309588 112.2748602  25.6098823  28.1165788
 125.0084843  31.9410989  33.0414503 125.8776003  32.1151641  32.6801138
 124.5291595  32.7605406  32.9190233 119.1771023  39.0608090  24.7203937
 120.0798270  39.0931700  25.0370432 118.9508393  38.1308541  24.7350273
 120.9324625  37.8139076  21.3814016 119.9820256  37.8140938  21.2678388
 121.2357112  37.0671811  20.8650050 116.8228942  22.0197758  31.6397377
 117.6860403  21.6634563  31.8500701 116.2494353  21.6811653  32.3272781
 133.4767025  43.6027043  22.3821303 133.1385537  43.4868108  21.4941837
 134.3456793  43.2018208  22.3622309 129.3353841  45.4562519  18.3718194
 128.7718706  45.3652456  17.6034481 129.2206236  44.6362424  18.8520686
 133.9586808  44.7561895  28.3407508 133.9475449  44.3614693  27.4688012
 134.1207448  44.0227967  28.9341280 126.8818273  46.9513711  21.2102414
 127.6739565  46.6104536  20.7948713 127.1214923  47.0608686  22.1304567
 130.6794069  47.5399006  27.2886692 130.3883935  48.4444637  27.1733358
 131.3151054  47.5815534  28.0030762 131.6050276  44.9175855  23.8788052
 132.2013848  44.6931877  23.1645015 131.6625248  44.1760600  24.4813500
 135.6383954  47.2260422  24.2836486 135.3384677  48.1285461  24.1752293
 135.2935014  46.9592605  25.1357639 129.0896436  43.6774219  20.3173190
 128.1646932  43.5450433  20.5250882 129.3380849  44.4568438  20.8143133
 126.4505247  43.3207492  21.1516979 126.5797628  43.5741971  22.0656391
 125.7702698  43.9135200  20.8321634 130.6204734  53.9904742  17.2507453
 130.5428764  54.9412567  17.3295934 130.0166378  53.6450615  17.9082380
 133.1121964  41.1632608  29.9068820 132.3355298  41.7226528  29.8971685
 133.7512527  41.6489391  30.4283690 131.3668336  43.9718061  29.4686787
 132.1083021  44.5103105  29.1921611 130.6605322  44.5984350  29.6258339
 136.8423676  46.1147202  28.0658949 137.2507032  45.6729612  27.3213581
 136.1200937  45.5399829  28.3193142 133.1954746  41.0519808  25.4392506
 134.0415941  41.4759222  25.5827155 133.1353384  40.3953433  26.1331069
 137.1652491  46.6748392  21.8211238 136.5361353  46.8394106  21.1187306
 136.7778153  47.0890002  22.5922202 136.3454191  38.7124177  27.0973679
 136.1015123  39.4666237  26.5607955 136.6214122  39.0909524  27.9320927
 138.2992654  45.2562789  25.7750945 138.5109549  45.8994549  25.0985326
 138.2522402  44.4225106  25.3072875 132.7180452  46.4122800  19.0861323
 133.1818798  46.6910503  18.2965945 132.4537250  45.5106245  18.9034414
 129.6104533  45.9594282  22.0241086 130.1805891  46.3881550  21.3858571
 130.2012645  45.6776866  22.7225272 130.1029700  41.1257709  30.2702097
 129.4728361  41.8073990  30.5037494 129.9965788  41.0140791  29.3255236
 125.3974672  40.7929505  21.1968022 124.6073726  41.0487034  20.7208132
 125.8885920  41.6077843  21.3020062 139.4138482  48.1334744  23.9473302
 140.2355926  47.7314932  23.6655984 139.4100885  48.0302979  24.8989418
 127.3489418  41.1574085  18.1551498 126.5520581  41.2692779  18.6734994
 127.1215010  41.4960737  17.2892389 133.1795085  47.6818788  26.1034013
 133.2439518  48.1439195  26.9392185 132.4706009  47.0516153  26.2316323
 123.6812375  41.0459996  23.6283012 123.9320414  41.9307006  23.8940588
 124.2171924  40.8664597  22.8558104 129.3810443  35.4278475  32.6327348
 128.9877388  34.8744674  33.3074993 130.1976583  35.7389054  33.0233866
 126.3472500  46.8662333  16.5440918 126.8597021  47.6605584  16.6946483
 126.9995213  46.1688624  16.4774520 128.1567385  49.9828090  18.6263671
 128.3334013  50.9046054  18.4384655 128.9524219  49.6686509  19.0558051
 132.2978404  36.8436354  30.2247605 133.0388117  37.4443507  30.1452067
 132.5296327  36.1013992  29.6665648 127.4419742  42.0292721  28.5025835
 127.3273257  41.1277979  28.8032934 126.5864259  42.2756418  28.1510651
 134.5211579  49.9710462  30.1013335 134.0775434  49.1846840  29.7834240
 135.1828793  50.1589612  29.4357226 129.2798701  51.5006263  24.6274014
 129.8306126  51.3723327  23.8551008 128.4410177  51.8001152  24.2768907
 136.6192818  50.2513262  28.1294737 136.6011293  51.0722143  27.6375006
 137.5412738  50.1267337  28.3544878 133.0765872  47.7657391  28.9718245
 133.6094208  47.0045679  28.7417553 132.5479953  47.4731043  29.7142399
 124.3121417  45.1950988  17.3200489 125.1496639  45.6047996  17.1034197
 124.4899685  44.2550430  17.2900683 124.3347588  42.5341703  17.9911222
 124.1371988  41.9411064  17.2662289 123.7794252  42.2293913  18.7087161
 132.4045250  51.0399626  19.8030459 132.3621429  51.2660472  18.8738991
 133.3207949  50.8063001  19.9516260 135.8510884  41.5083694  26.7011088
 136.2060271  41.7355167  27.5605554 136.4983015  41.8402070  26.0788343
 129.7450747  38.6160225  23.4857429 130.3850126  38.4748984  22.7880393
 128.9128277  38.3294738  23.1096031 130.5211051  47.9162655  19.5992422
 131.3151649  47.4212975  19.3974997 129.8102743  47.3880518  19.2360127
 135.3405895  50.2980751  23.9504789 135.3942917  50.8671687  24.7182505
 134.4720676  50.4682636  23.5858826 126.7479363  38.5860550  18.2630416
 127.0086180  39.5005883  18.1539577 127.5696535  38.1184992  18.4127029
 128.2204288  39.9998307  25.4329241 128.8927342  39.7915669  24.7841889
 127.3934075  39.8020393  24.9934473 134.1229860  36.6260248  27.4494901
 133.4757776  37.3250197  27.3559378 134.8930876  37.0596392  27.8171150
 137.5308658  46.8909100  30.5245455 137.3794165  46.6619652  29.6075538
 137.5213338  47.8479701  30.5376800 134.2993995  44.4641013  25.5091721
 135.2286055  44.6152172  25.3360688 133.8785025  44.5525033  24.6540368
 133.0982327  48.4891677  23.2790259 132.9593412  48.1210461  24.1516197
 132.3096923  49.0039316  23.1074217 133.6930479  53.5900774  14.6215795
 133.8682234  53.1188817  15.4361418 133.0063267  54.2166540  14.8497056
 134.6487542  47.8673280  20.6679097 134.3137374  47.8274050  21.5636746
 134.1491487  47.2017996  20.1949507 128.6231786  43.2740910  26.1931678
 128.4851584  42.5421149  26.7943217 129.5336709  43.1849810  25.9115865
 131.2514086  42.9860869  25.6815357 131.9613705  42.3454061  25.6401976
 131.2083395  43.2373764  26.6041538 139.2400865  49.9228222  28.6021937
 139.1813411  49.2387443  27.9352520 139.6420383  50.6647212  28.1502563
 129.9643020  39.9726087  27.5010997 129.4280377  39.5216825  28.1532593
 129.3759729  40.1071996  26.7581461 128.2591564  56.7390136  21.3955655
 128.4988162  57.3708660  22.0734674 127.4160760  56.3878176  21.6821015
 139.2418272  47.8867806  26.8335916 138.3545051  47.5493728  26.9562315
 139.8116823  47.1550838  27.0704682 120.8947419  44.2191898  20.1578968
 121.5818459  43.9053628  19.5699983 120.7395548  45.1233263  19.8846219
 125.6982142  39.1082095  24.5863991 125.6140330  38.5007764  23.8514401
 124.8764848  39.5991113  24.5873488 132.7719426  52.5469259  23.7997159
 132.6989597  53.3524230  24.3116464 132.3296819  52.7461225  22.9745181
 132.5609205  51.7841029  17.3099981 131.7776727  52.3262709  17.4038206
 133.2601951  52.3015008  17.7094222 135.2318109  52.4456093  25.9555318
 135.9446081  53.0803558  25.8831220 134.7408138  52.5419959  25.1395320
 130.2830023  50.1950536  26.7760889 130.9839482  50.8287019  26.9290283
 129.8125138  50.5365268  26.0156528 135.0438483  52.7854837  18.7041610
 135.2260877  51.9676493  19.1669362 135.8671469  53.0022529  18.2666500
 134.1318882  43.4914955  31.0879476 133.4559519  43.3909084  31.7581852
 134.9546516  43.3354168  31.5515474 125.8797741  49.7286891  23.7091992
 126.4651178  48.9830579  23.8419896 125.6822579  50.0390848  24.5928656
 128.7336396  52.7638139  18.7254434 128.0646771  53.2484266  18.2418474
 128.5949266  53.0107359  19.6397813 120.4715396  42.2992491  22.4296435
 120.5099495  41.7656082  23.2233553 119.9655688  41.7727697  21.8107412
 132.8741665  54.7981882  25.3237092 133.4259973  54.9613504  26.0886178
 133.2147858  55.3886320  24.6517117 127.8506158  37.1457032  25.9258977
 127.9147484  38.0071863  25.5136375 127.7873278  36.5331034  25.1931336
 127.3258430  39.2180165  29.5732011 127.9530469  38.8357242  30.1869536
 126.4686349  38.9994366  29.9387704 137.7252539  49.6243140  31.1785747
 138.2692443  50.2373098  30.6840702 137.1439384  50.1822718  31.6952760
 124.1023973  41.0256594  15.5050366 124.3977414  40.1167272  15.4517420
 123.2012009  41.0044333  15.1831369 136.0110052  52.7463858  22.3100775
 135.8861191  51.9453598  21.8011720 136.6689143  53.2410051  21.8214745
 127.6318220  39.1012590  21.4877915 126.9104806  39.7148558  21.3485388
 128.4211476  39.6370355  21.4094561 138.0744960  50.5472878  23.9380325
 137.1275296  50.4278229  23.8658651 138.4227733  49.6595376  24.0206586
 130.4344534  36.4367017  27.7618567 130.9578935  36.6829313  28.5244876
 130.2156867  37.2687052  27.3421704 135.0791394  50.3425594  20.1384677
 134.9316356  49.4142301  20.3192247 135.9044887  50.3645685  19.6541752
 138.6825515  51.1654153  21.2249550 139.6072063  50.9597014  21.0874001
 138.5140819  50.9170554  22.1338891 131.6397079  37.3780712  25.4468237
 131.2993899  36.5788525  25.8488917 130.9336085  37.6782423  24.8745070
 129.8152129  41.1549145  21.7087539 129.6696710  41.4689448  22.6011820
 129.3377333  41.7734045  21.1558437 133.5274643  38.5789033  23.8021556
 133.2692421  39.5006104  23.8005886 132.9959683  38.1819468  24.4922020
 124.2897791  43.6954489  24.6475200 123.7451260  44.4714297  24.7795474
 125.1677141  44.0425294  24.4894321 125.0763813  42.8224386  27.5405357
 124.3345549  42.9707021  28.1269987 124.7556558  43.0832651  26.6772106
 133.0207476  52.3640364  27.3385747 133.3294602  52.1189511  28.2108446
 133.8182958  52.5687002  26.8504617 133.0428088  54.5178273  19.5691123
 132.6033078  54.0254652  20.2623980 133.7936205  53.9751241  19.3283199
 125.5220427  50.7089814  19.5715751 126.3478447  50.4093586  19.1914395
 125.1714479  49.9397437  20.0205540 130.4901960  50.0616282  21.6413425
 129.8681969  49.3986987  21.3415653 131.1606827  50.0877414  20.9587073
 123.7229032  48.6276141  20.5304685 122.8860940  48.1998315  20.3488686
 123.6952677  48.8208584  21.4675476 130.5626488  38.5398070  31.2345931
 130.6114643  39.4160193  30.8523701 131.1049002  37.9975464  30.6617574
 141.0481333  49.0839194  30.5147068 140.2576877  49.0663333  29.9751567
 140.8114688  49.6227487  31.2696105 141.1679208  45.9331660  27.8279797
 141.2177213  45.7681668  28.7695319 141.0593132  45.0658919  27.4377677
 130.0515467  48.6120206  15.1171886 130.2003587  49.2955670  14.4638558
 130.8581911  48.5925296  15.6321341 138.4582971  41.9162588  29.1439103
 139.3592834  41.7769053  28.8523101 138.5330945  42.0817043  30.0837281
 132.7925776  39.2929443  27.9892290 131.9229086  39.5863009  27.7174878
 133.0285256  39.8769888  28.7099553 142.6697405  48.3528602  28.0721818
 142.3782214  48.7158582  28.9085279 142.0569537  47.6395610  27.8935150
 127.8068100  44.6385383  16.1232954 127.5614142  43.7347713  16.3213165
 127.9764015  44.6402534  15.1812432 133.8196364  46.4946895  31.3900342
 134.7399373  46.6725494  31.5840389 133.7845947  45.5502941  31.2380042
 123.0378529  41.6885489  20.3153617 122.7181313  40.8350797  20.0227991
 122.4911957  41.9034067  21.0711584 126.8158436  44.4047930  24.0323124
 127.0344446  45.3365038  24.0511157 127.2284210  44.0455904  24.8177927
 131.6886302  39.9781136  33.4225873 131.5883028  40.9275493  33.3537964
 131.4707844  39.6499374  32.5501943 122.9066789  45.3088400  22.2846739
 122.2130260  44.8942353  21.7716693 123.6539780  45.3508937  21.6880158
 131.5517572  43.4078274  32.2390934 131.0684653  44.2078635  32.4454823
 131.6378511  43.4186219  31.2858378 124.8203531  45.2406654  20.1612754
 124.7974219  45.3394341  19.2094637 125.1304168  46.0871805  20.4829920
 127.4790909  47.2982809  24.2759368 128.4334163  47.2666751  24.2089300
 127.2803433  46.8373433  25.0909594 128.0690291  45.8683925  26.8430166
 128.8883180  46.3628004  26.8665003 128.3427099  44.9515893  26.8147733
 125.8341138  52.8402429  21.2929566 125.6995606  52.0802829  20.7267564
 125.4173200  53.5643328  20.8258355 128.9910264  53.7371746  21.5048008
 128.8742648  54.6817178  21.4026699 128.1702710  53.4345307  21.8933808
 123.3225205  40.2022059  27.5422363 123.9684069  39.6921013  28.0309588
 123.1142357  40.9390741  28.1165788 135.8478598  47.2702907  33.0414503
 136.7169757  47.4443559  32.6801138 135.3685349  48.0897323  32.9190233
 130.0164778  54.3900008  24.7203937 130.9192025  54.4223618  25.0370432
 129.7902148  53.4600458  24.7350273 131.7718380  53.1430994  21.3814016
 130.8214011  53.1432856  21.2678388 132.0750866  52.3963729  20.8650050
 127.6622696  37.3489676  31.6397377 128.5254158  36.9926481  31.8500701
 127.0888107  37.0103571  32.3272781 144.3160780  58.9318961  22.3821303
 143.9779291  58.8160025  21.4941837 145.1850548  58.5310126  22.3622309
 140.1747595  60.7854437  18.3718194 139.6112460  60.6944374  17.6034481
 140.0599990  59.9654341  18.8520686 144.7980563  60.0853812  28.3407508
 144.7869203  59.6906611  27.4688012 144.9601202  59.3519885  28.9341280
 137.7212027  62.2805629  21.2102414 138.5133319  61.9396453  20.7948713
 137.9608677  62.3900604  22.1304567 141.5187824  62.8690924  27.2886692
 141.2277690  63.7736555  27.1733358 142.1544808  62.9107452  28.0030762
 142.4444031  60.2467773  23.8788052 143.0407603  60.0223795  23.1645015
 142.5019002  59.5052518  24.4813500 146.4777709  62.5552340  24.2836486
 146.1778432  63.4577378  24.1752293 146.1328768  62.2884523  25.1357639
 139.9290190  59.0066136  20.3173190 139.0040687  58.8742351  20.5250882
 140.1774604  59.7860356  20.8143133 137.2899001  58.6499410  21.1516979
 137.4191383  58.9033889  22.0656391 136.6096453  59.2427118  20.8321634
 141.4598489  69.3196660  17.2507453 141.3822518  70.2704485  17.3295934
 140.8560132  68.9742532  17.9082380 143.9515718  56.4924525  29.9068820
 143.1749052  57.0518446  29.8971685 144.5906281  56.9781308  30.4283690
 142.2062091  59.3009979  29.4686787 142.9476775  59.8395023  29.1921611
 141.4999076  59.9276267  29.6258339 144.0348500  56.3811726  25.4392506
 144.8809696  56.8051140  25.5827155 143.9747138  55.7245350  26.1331069
 147.1847946  54.0416094  27.0973679 146.9408878  54.7958155  26.5607955
 147.4607876  54.4201442  27.9320927 143.5574207  61.7414718  19.0861323
 144.0212552  62.0202421  18.2965945 143.2931005  60.8398162  18.9034414
 140.4498288  61.2886199  22.0241086 141.0199645  61.7173468  21.3858571
 141.0406400  61.0068784  22.7225272 140.9423454  56.4549627  30.2702097
 140.3122115  57.1365908  30.5037494 140.8359542  56.3432709  29.3255236
 136.2368427  56.1221423  21.1968022 135.4467481  56.3778951  20.7208132
 136.7279674  56.9369761  21.3020062 138.1883172  56.4866002  18.1551498
 137.3914336  56.5984696  18.6734994 137.9608764  56.8252654  17.2892389
 144.0188840  63.0110705  26.1034013 144.0833272  63.4731113  26.9392185
 143.3099764  62.3808070  26.2316323 134.5206130  56.3751913  23.6283012
 134.7714168  57.2598923  23.8940588 135.0565678  56.1956515  22.8558104
 140.2204197  50.7570393  32.6327348 139.8271143  50.2036591  33.3074993
 141.0370338  51.0680971  33.0233866 137.1866255  62.1954251  16.5440918
 137.6990776  62.9897501  16.6946483 137.8388968  61.4980541  16.4774520
 138.9961140  65.3120007  18.6263671 139.1727768  66.2337972  18.4384655
 139.7917973  64.9978426  19.0558051 143.1372158  52.1728272  30.2247605
 143.8781872  52.7735425  30.1452067 143.3690081  51.4305910  29.6665648
 138.2813496  57.3584639  28.5025835 138.1667011  56.4569896  28.8032934
 137.4258014  57.6048336  28.1510651 145.3605334  65.3002379  30.1013335
 144.9169188  64.5138758  29.7834240 146.0222548  65.4881530  29.4357226
 140.1192455  66.8298181  24.6274014 140.6699880  66.7015244  23.8551008
 139.2803931  67.1293070  24.2768907 143.9159626  63.0949309  28.9718245
 144.4487963  62.3337597  28.7417553 143.3873707  62.8022961  29.7142399
 135.1515172  60.5242905  17.3200489 135.9890394  60.9339914  17.1034197
 135.3293439  59.5842347  17.2900683 135.1741343  57.8633621  17.9911222
 134.9765743  57.2702981  17.2662289 134.6188007  57.5585831  18.7087161
 143.2439004  66.3691544  19.8030459 143.2015183  66.5952390  18.8738991
 144.1601703  66.1354918  19.9516260 146.6904638  56.8375611  26.7011088
 147.0454026  57.0647084  27.5605554 147.3376769  57.1693988  26.0788343
 140.5844501  53.9452142  23.4857429 141.2243881  53.8040901  22.7880393
 139.7522032  53.6586656  23.1096031 141.3604805  63.2454573  19.5992422
 142.1545404  62.7504893  19.3974997 140.6496497  62.7172436  19.2360127
 146.1799650  65.6272668  23.9504789 146.2336672  66.1963605  24.7182505
 145.3114431  65.7974553  23.5858826 137.5873118  53.9152467  18.2630416
 137.8479935  54.8297801  18.1539577 138.4090290  53.4476910  18.4127029
 139.0598043  55.3290224  25.4329241 139.7321096  55.1207587  24.7841889
 138.2327829  55.1312310  24.9934473 144.9623615  51.9552165  27.4494901
 144.3151530  52.6542115  27.3559378 145.7324630  52.3888309  27.8171150
 145.1387749  59.7932930  25.5091721 146.0679809  59.9444090  25.3360688
 144.7178779  59.8816951  24.6540368 143.9376081  63.8183595  23.2790259
 143.7987167  63.4502379  24.1516197 143.1490677  64.3331234  23.1074217
 144.5324233  68.9192691  14.6215795 144.7075989  68.4480734  15.4361418
 143.8457021  69.5458457  14.8497056 145.4881296  63.1965197  20.6679097
 145.1531129  63.1565967  21.5636746 144.9885242  62.5309913  20.1949507
 139.4625540  58.6032827  26.1931678 139.3245338  57.8713066  26.7943217
 140.3730464  58.5141728  25.9115865 142.0907841  58.3152787  25.6815357
 142.8007459  57.6745979  25.6401976 142.0477149  58.5665682  26.6041538
 140.8036775  55.3018005  27.5010997 140.2674132  54.8508743  28.1532593
 140.2153483  55.4363913  26.7581461 139.0985318  72.0682054  21.3955655
 139.3381917  72.7000578  22.0734674 138.2554515  71.7170094  21.6821015
 131.7341174  59.5483816  20.1578968 132.4212214  59.2345546  19.5699983
 131.5789303  60.4525180  19.8846219 136.5375896  54.4374012  24.5863991
 136.4534085  53.8299682  23.8514401 135.7158602  54.9283031  24.5873488
 143.6113180  67.8761176  23.7997159 143.5383352  68.6816148  24.3116464
 143.1690573  68.0753142  22.9745181 143.4002960  67.1132946  17.3099981
 142.6170482  67.6554627  17.4038206 144.0995705  67.6306926  17.7094222
 146.0711864  67.7748010  25.9555318 146.7839836  68.4095475  25.8831220
 145.5801892  67.8711876  25.1395320 141.1223777  65.5242454  26.7760889
 141.8233237  66.1578937  26.9290283 140.6518892  65.8657185  26.0156528
 145.8832237  68.1146755  18.7041610 146.0654632  67.2968410  19.1669362
 146.7065223  68.3314447  18.2666500 144.9712636  58.8206872  31.0879476
 144.2953273  58.7201002  31.7581852 145.7940270  58.6646086  31.5515474
 136.7191495  65.0578809  23.7091992 137.3044932  64.3122497  23.8419896
 136.5216334  65.3682766  24.5928656 139.5730151  68.0930056  18.7254434
 138.9040526  68.5776184  18.2418474 139.4343020  68.3399277  19.6397813
 131.3109150  57.6284409  22.4296435 131.3493250  57.0948000  23.2233553
 130.8049443  57.1019615  21.8107412 143.7135419  70.1273800  25.3237092
 144.2653727  70.2905421  26.0886178 144.0541613  70.7178238  24.6517117
 138.6899912  52.4748950  25.9258977 138.7541239  53.3363781  25.5136375
 138.6267033  51.8622951  25.1931336 138.1652185  54.5472082  29.5732011
 138.7924224  54.1649160  30.1869536 137.3080104  54.3286284  29.9387704
 134.9417728  56.3548511  15.5050366 135.2371169  55.4459190  15.4517420
 134.0405763  56.3336251  15.1831369 146.8503806  68.0755775  22.3100775
 146.7254946  67.2745515  21.8011720 147.5082898  68.5701969  21.8214745
 138.4711975  54.4304508  21.4877915 137.7498560  55.0440476  21.3485388
 139.2605230  54.9662273  21.4094561 141.2738288  51.7658934  27.7618567
 141.7972690  52.0121231  28.5244876 141.0550621  52.5978969  27.3421704
 145.9185148  65.6717512  20.1384677 145.7710111  64.7434219  20.3192247
 146.7438642  65.6937602  19.6541752 142.4790833  52.7072629  25.4468237
 142.1387654  51.9080443  25.8488917 141.7729839  53.0074340  24.8745070
 140.6545884  56.4841063  21.7087539 140.5090465  56.7981366  22.6011820
 140.1771087  57.1025963  21.1558437 144.3668397  53.9080951  23.8021556
 144.1086175  54.8298021  23.8005886 143.8353438  53.5111385  24.4922020
 135.1291546  59.0246407  24.6475200 134.5845014  59.8006215  24.7795474
 136.0070896  59.3717211  24.4894321 135.9157568  58.1516303  27.5405357
 135.1739304  58.2998939  28.1269987 135.5950312  58.4124569  26.6772106
 143.8601230  67.6932281  27.3385747 144.1688357  67.4481428  28.2108446
 144.6576712  67.8978920  26.8504617 143.8821843  69.8470191  19.5691123
 143.4426833  69.3546570  20.2623980 144.6329959  69.3043159  19.3283199
 136.3614181  66.0381732  19.5715751 137.1872201  65.7385504  19.1914395
 136.0108233  65.2689354  20.0205540 141.3295715  65.3908200  21.6413425
 140.7075724  64.7278905  21.3415653 142.0000582  65.4169332  20.9587073
 134.5622787  63.9568058  20.5304685 133.7254695  63.5290233  20.3488686
 134.5346432  64.1500502  21.4675476 141.4020242  53.8689988  31.2345931
 141.4508398  54.7452111  30.8523701 141.9442756  53.3267381  30.6617574
 140.8909222  63.9412123  15.1171886 141.0397342  64.6247588  14.4638558
 141.6975665  63.9217214  15.6321341 143.6319531  54.6221361  27.9892290
 142.7622840  54.9154927  27.7174878 143.8679011  55.2061806  28.7099553
 138.6461855  59.9677301  16.1232954 138.4007896  59.0639631  16.3213165
 138.8157769  59.9694452  15.1812432 144.6590118  61.8238813  31.3900342
 145.5793128  62.0017412  31.5840389 144.6239701  60.8794858  31.2380042
 133.8772283  57.0177406  20.3153617 133.5575067  56.1642715  20.0227991
 133.3305711  57.2325985  21.0711584 137.6552191  59.7339847  24.0323124
 137.8738200  60.6656955  24.0511157 138.0677965  59.3747822  24.8177927
 142.5280056  55.3073053  33.4225873 142.4276783  56.2567410  33.3537964
 142.3101598  54.9791292  32.5501943 133.7460543  60.6380318  22.2846739
 133.0524015  60.2234271  21.7716693 134.4933534  60.6800854  21.6880158
 142.3911326  58.7370192  32.2390934 141.9078408  59.5370552  32.4454823
 142.4772265  58.7478137  31.2858378 135.6597286  60.5698572  20.1612754
 135.6367974  60.6686259  19.2094637 135.9697922  61.4163723  20.4829920
 138.3184664  62.6274727  24.2759368 139.2727917  62.5958669  24.2089300
 138.1197187  62.1665351  25.0909594 138.9084046  61.1975843  26.8430166
 139.7276935  61.6919922  26.8665003 139.1820853  60.2807811  26.8147733
 136.6734892  68.1694346  21.2929566 136.5389360  67.4094747  20.7267564
 136.2566955  68.8935246  20.8258355 139.8304018  69.0663663  21.5048008
 139.7136402  70.0109096  21.4026699 139.0096464  68.7637225  21.8933808
 134.1618960  55.5313977  27.5422363 134.8077824  55.0212931  28.0309588
 133.9536111  56.2682658  28.1165788 146.6872352  62.5994824  33.0414503
 147.5563512  62.7735476  32.6801138 146.2079104  63.4189241  32.9190233
 140.8558532  69.7191925  24.7203937 141.7585779  69.7515535  25.0370432
 140.6295902  68.7892376  24.7350273 142.6112134  68.4722912  21.3814016
 141.6607765  68.4724773  21.2678388 142.9144620  67.7255646  20.8650050
 138.5016451  52.6781594  31.6397377 139.3647912  52.3218399  31.8500701
 137.9281862  52.3395489  32.3272781 147.0762181  71.4513341  21.1968022
 146.2861235  71.7070869  20.7208132 147.5673429  72.2661678  21.3020062
 145.3599884  71.7043831  23.6283012 145.6107923  72.5890841  23.8940588
 145.8959433  71.5248433  22.8558104 145.9908926  75.8534823  17.3200489
 146.8284148  76.2631831  17.1034197 146.1687194  74.9134265  17.2900683
 146.0135097  73.1925538  17.9911222 145.8159497  72.5994899  17.2662289
 145.4581761  72.8877748  18.7087161 142.5734928  74.8775733  20.1578968
 143.2605968  74.5637463  19.5699983 142.4183057  75.7817098  19.8846219
 147.3769651  69.7665930  24.5863991 147.2927839  69.1591600  23.8514401
 146.5552357  70.2574948  24.5873488 142.1502905  72.9576327  22.4296435
 142.1887004  72.4239918  23.2233553 141.6443197  72.4311532  21.8107412
 145.7811482  71.6840429  15.5050366 146.0764923  70.7751107  15.4517420
 144.8799518  71.6628168  15.1831369 145.9685300  74.3538325  24.6475200
 145.4238769  75.1298133  24.7795474 146.8464650  74.7009129  24.4894321
 146.7551322  73.4808221  27.5405357 146.0133058  73.6290856  28.1269987
 146.4344067  73.7416486  26.6772106 145.4016541  79.2859976  20.5304685
 144.5648449  78.8582150  20.3488686 145.3740186  79.4792419  21.4675476
 144.7166038  72.3469324  20.3153617 144.3968822  71.4934632  20.0227991
 144.1699466  72.5617902  21.0711584 144.5854298  75.9672236  22.2846739
 143.8917769  75.5526188  21.7716693 145.3327289  76.0092772  21.6880158
 146.4991040  75.8990489  20.1612754 146.4761728  75.9978177  19.2094637
 146.8091677  76.7455640  20.4829920 147.5128647  83.4986264  21.2929566
 147.3783115  82.7386665  20.7267564 147.0960709  84.2227164  20.8258355
 145.0012714  70.8605894  27.5422363 145.6471578  70.3504848  28.0309588
 144.7929866  71.5974576  28.1165788   6.5925657  75.1357335 126.4995818
   5.8389365  74.5664733 126.3439822   6.7273198  75.1020000 127.4466452
   0.6959182  77.3562499 128.6209233   1.1295688  77.2637788 129.4692287
   1.4090762  77.3319999 127.9829249   1.5574731  77.3986200 131.1542118
   1.7510621  78.3032010 131.4001393   1.4575349  76.9393619 131.9880703
   2.8116794  73.9559866 127.7990022   2.8006671  74.8384582 127.4283955
   1.9434174  73.6031417 127.6044559   3.4141404  75.1060086 124.4039485
   3.8572550  74.3567411 124.0058608   2.5367915  75.0970222 124.0213217
   0.4468609  79.1090133 121.4133414   0.9719933  79.4477405 120.6882734
   0.3590961  78.1737148 121.2296549   2.9574269  76.5765324 126.7961932
   3.7921160  77.0155128 126.9599493   3.0933398  76.1003977 125.9770178
   1.1855522  74.2316939 130.0910025   1.1531842  73.2932939 130.2769709
   1.7956145  74.3100975 129.3575850   1.3350010  71.0227982 130.1368308
   0.8189059  70.2386439 129.9498237   2.2189959  70.6946699 130.3014828
   7.0032072  75.2932945 129.2316062   7.7335460  75.0318233 129.7923765
   6.3939017  74.5561667 129.2718130   5.0847369  73.4340808 129.8290513
   4.3580532  73.2996773 129.2207005   4.6694656  73.7417637 130.6347231
   2.7025164  69.6552660 127.1823945   3.2969655  69.4148396 126.4717253
   2.7751747  68.9359791 127.8097481   5.0096236  72.9618861 125.9567366
   4.4495794  73.0312050 126.7298928   4.4039740  72.7859846 125.2366862
   6.5952255  89.6375375 128.6497322   7.2330665  89.5182122 127.9460662
   6.4773098  90.5856219 128.7085274   4.8428336  95.1109247 119.8870202
   4.1916315  95.6963328 119.5004216   5.6372698  95.6415442 119.9465240
   6.1493523  87.3626829 125.7250530   6.9356613  86.9446252 125.3740947
   6.4132228  88.2672921 125.8932178   6.3203601  92.7999679 120.4239187
   5.6849434  92.8734306 121.1360091   5.9901007  93.3893278 119.7458266
  11.5501951  87.3002062 126.6283508  12.2827122  86.7301279 126.8621338
  10.7941306  86.9123662 127.0690014   0.8246529  90.2619156 120.1200161
   0.7082787  89.5864060 120.7881246   0.9348789  89.7751530 119.3032315
   3.1678070  89.7229303 123.8246851   2.8036277  89.1959924 124.5359772
   4.0245186  89.3327773 123.6513336   9.0727371  81.0123636 131.0878117
   8.7410696  81.8819047 130.8639332   8.4772984  80.6959920 131.7672147
   2.8083557  84.7519203 118.8208199   2.9757960  85.6199440 119.1878670
   2.6180726  84.9146485 117.8969488   8.9656034  85.7318722 128.1671467
   8.0572912  85.6634131 127.8730228   8.9143630  86.2090667 128.9953292
   2.7872778  87.2076861 119.8054866   2.6672403  87.6533911 120.6440346
   2.0925366  87.5562178 119.2468404  10.8317681  83.9335161 129.9449341
  10.1892061  84.2267694 129.2989135  10.3272609  83.8188081 130.7502538
   8.4857844  87.6798334 120.6335200   9.3975700  87.9125721 120.4582898
   7.9767491  88.2635378 120.0710279   7.0927427  92.6624152 128.0248782
   6.4636289  92.8269866 127.3224849   6.7053089  93.0765762 128.7959746
  10.9716658  93.5978590 125.3793145  10.2867697  93.9777491 124.8290179
  11.0560508  94.2073917 126.1125093   5.8293819  83.8556370 128.8825061
   4.9678298  84.1537623 129.1741799   5.8556254  84.0726769 127.9506094
   2.6455388  92.3998560 125.2898867   3.1093734  92.6786263 124.5003489
   2.3812187  91.4982005 125.1071957   1.5824275  88.5221713 122.0988432
   2.2848318  88.9742756 122.5662358   1.2504903  87.8805532 122.7268325
  17.4319411  90.4649253 126.4995818  16.6783119  89.8956651 126.3439822
  17.5666952  90.4311918 127.4466452   2.8218039  95.3362655 122.1750537
   2.6863714  96.1814191 122.6035385   3.3627852  95.5381933 121.4116471
   6.1710503  78.8593217 130.7049430   5.8274772  79.7494859 130.6288541
   6.5389465  78.6694875 129.8419015   6.1360785  88.8501828 119.2121866
   5.6207409  89.6206433 119.4510253   5.8638094  88.1766965 119.8354927
   3.7207896  83.6951529 124.2707104   2.8649493  83.3058380 124.0912743
   4.1334848  83.7743490 123.4106890   5.2507043  81.2297872 128.6698664
   4.7471839  81.1928008 127.8566469   5.5437650  82.1390615 128.7295320
   1.4949929  81.3136602 127.6764845   2.3602926  81.1179411 127.3170735
   1.5627438  81.0846954 128.6034202  11.1095060  91.6034183 121.1475039
  10.3324502  91.2645342 120.7030201  11.7886541  91.6086806 120.4730004
   5.9247089  86.7228920 121.0381647   5.6197224  87.0375070 121.8891790
   6.8777531  86.8010340 121.0808980   4.3693520  92.8819144 122.6874601
   3.8414882  92.1471903 122.3747838   3.8681023  93.6593820 122.4414569
   9.3486366  91.0768164 127.8041647   8.6910041  91.7667426 127.8921776
  10.1526766  91.4664596 128.1475633   8.1591825  89.4312537 125.8545589
   8.6723707  90.0642529 126.3567299   8.8093049  88.8313732 125.4888949
   1.4034916  80.4180059 123.7756282   0.7499328  80.1029076 123.1512896
   1.3615390  79.7955799 124.5016105   2.5146121  90.6999354 115.6909574
   1.6073182  90.4688607 115.8900723   3.0117153  89.9036973 115.8783555
   5.4214199  99.4096861 118.6106260   4.7475898  99.7128558 119.2191218
   5.8080021 100.2125942 118.2611717   4.6372656  86.9061992 128.1003929
   3.7195217  87.1276940 127.9425617   5.0532800  86.9808303 127.2415637
   5.4207704  88.3053408 123.2306610   6.1679523  88.8174805 122.9213732
   5.6899293  87.9837461 124.0911003   3.6934354  90.8011949 120.2133564
   2.7845573  90.5170982 120.3106034   3.7229438  91.2211027 119.3536871
   8.9253621  94.4118538 123.9824731   8.4715949  93.5709448 124.0389922
   8.2947588  95.0479937 124.3199512   7.8686541  85.3410524 125.2125399
   7.1309298  84.8287911 125.5435641   8.1213315  84.9010906 124.4008676
   7.3686561  96.2495035 124.9174550   7.6609535  96.8100092 124.1986915
   7.8785181  96.5423596 125.6727709   7.9698168  78.1186776 125.8067168
   8.2757045  77.2584140 125.5193083   8.6950773  78.7104397 125.6066162
   2.2419248  88.4140570 126.3143359   2.2967858  87.4614406 126.2385836
   1.4310450  88.5700009 126.7984658   3.3910442  92.3420693 117.5521642
   2.9529872  91.6256551 117.0927280   4.1320883  92.5696807 116.9906734
  11.5083557  90.6177890 123.6097961  11.3701455  90.8079486 122.6819150
  11.1519775  91.3797272 124.0666012  11.5352936  92.6854417 128.6209233
  11.9689443  92.5929706 129.4692287  12.2484517  92.6611917 127.9829249
  12.3968486  92.7278117 131.1542118  12.5904376  93.6323928 131.4001393
  12.2969104  92.2685536 131.9880703   3.6205415  99.5776534 120.8253339
   3.7957170  99.1064577 121.6398962   2.9338203 100.2042300 121.0534600
   7.5121669  91.2005074 117.1453700   6.8950840  90.4751902 117.0486753
   7.0438158  91.9614434 116.8020774   5.7980792  83.5811418 126.1571730
   6.2949491  82.8281381 125.8372800   5.0267773  83.6175735 125.5914940
  13.6510549  89.2851784 127.7990022  13.6400425  90.1676499 127.4283955
  12.7827928  88.9323335 127.6044559   6.8810572  92.3383106 123.7310154
   5.9466851  92.4584568 123.5614858   7.0587241  91.4355572 123.4670163
   2.3815760  85.7228801 125.8843415   2.0113548  85.1699842 126.5724320
   2.8774853  85.1186935 125.3318415  10.2683124  88.1800425 124.2660188
  10.7343576  89.0128416 124.1920490  10.7190624  87.7145406 124.9705446
   8.3359355  94.5244246 121.2646340   8.6119199  94.4100841 122.1740214
   7.4663853  94.1261731 121.2258513   8.2399786  80.5481012 128.3051089
   7.3262866  80.7785239 128.4733296   8.6692888  80.6319456 129.1565121
   8.0106245  88.7370904 130.8050983   7.3577695  88.9846811 130.1503436
   8.3886625  87.9235042 130.4713460   5.3055584  97.6998782 122.1694202
   5.8343351  97.1891237 121.5564364   5.5683804  97.3841312 123.0339735
   2.2188487  80.4505784 130.1033104   3.0414556  79.9766263 129.9811994
   2.4626550  81.2296268 130.6031790   5.0027844  84.1839192 121.3354338
   5.2191458  85.0663830 121.0343166   4.5221911  83.7925405 120.6059980
   1.6023448  84.1327453 127.9605972   1.5885017  83.2368546 127.6238270
   2.3195876  84.1398117 128.5944258   3.4549579  84.5664793 130.0059099
   3.1967357  85.4881864 130.0043430   2.9234619  84.1695228 130.6959564
   8.3995768  97.6715580 122.7849185   8.5732645  97.1062003 122.0323037
   8.8924659  98.4716475 122.6028675   1.0060344  83.0141833 123.2293542
   1.1276255  82.0858479 123.4284430   0.7162387  83.0280519 122.3171858
   3.8751535  80.6996744 126.3660262   3.8973231  80.7636077 125.4112242
   4.2919594  79.8601252 126.5600768  14.2535159  90.4352003 124.4039485
  14.6966305  89.6859328 124.0058608  13.3761669  90.4262140 124.0213217
   9.3870940  96.9882345 119.8846083  10.0821845  97.6089037 120.1033398
   9.7294090  96.1377696 120.1598461  11.2862363  94.4382050 121.4133414
  11.8113687  94.7769323 120.6882734  11.1984716  93.5029066 121.2296549
  13.7968024  91.9057242 126.7961932  14.6314915  92.3447046 126.9599493
  13.9327152  91.4295895 125.9770178  10.8459530  89.4636976 132.7439420
  11.3213651  89.6564623 131.9358271   9.9225095  89.5196162 132.4982804
   5.4239746  81.4984820 131.7095254   5.9421690  82.2345847 131.3841742
   5.0694879  81.8048813 132.5442013   5.6752340  77.9185103 127.2296150
   5.9554094  77.2508292 127.8556577   6.4602947  78.1114198 126.7170814
   3.4785809  97.0944096 118.7921177   2.9059776  97.7134284 118.3391649
   4.0518602  97.6443458 119.3261099   9.5461199  86.3402736 130.9767726
  10.4978621  86.4400834 130.9979950   9.3764649  85.5481005 131.4865810
   7.5675578  83.4258320 131.1627126   6.9725510  83.7063332 130.4673615
   7.2825275  83.9152221 131.9343868   6.6983068  97.3781247 119.9229759
   7.6313742  97.3126808 120.1262635   6.6106281  98.2137513 119.4644292
   9.3271085  96.6947117 116.8833707   9.2484717  96.3606980 117.7769464
  10.1480752  97.1868885 116.8825179  12.0249276  89.5608856 130.0910025
  11.9925596  88.6224857 130.2769709  12.6349900  89.6392893 129.3575850
   3.8632607  88.4304909 116.1337229   4.8091712  88.3011117 116.2025647
   3.4846852  87.6919571 116.6106657  12.1743765  86.3519900 130.1368308
  11.6582813  85.5678356 129.9498237  13.0583713  86.0238616 130.3014828
   9.8354492  80.0960915 126.0964121   9.6379313  79.7876003 126.9807453
  10.4454197  80.8222554 126.2262051  17.8425826  90.6224863 129.2316062
  18.5729215  90.3610151 129.7923765  17.2332772  89.8853585 129.2718130
  15.9241123  88.7632726 129.8290513  15.1974287  88.6288691 129.2207005
  15.5088410  89.0709554 130.6347231   2.0475524  86.3554886 116.0692114
   1.1406980  86.0587998 116.1454828   2.3251505  86.0584704 115.2026401
   3.6637590  80.8991775 122.2236356   2.8538318  80.5538860 122.5991602
   4.3522007  80.5899319 122.8123967   5.5928138  79.9769822 123.8460652
   6.1459177  80.3965275 124.5050676   5.8298225  79.0505570 123.8883608
   0.8174309  83.2141821 116.2104094   1.6793473  83.5396719 116.4699911
   1.0024653  82.4273317 115.6977159   8.9706945  82.0870347 123.3539317
   8.3905614  82.7455151 122.9717369   8.7042878  81.2647692 122.9426734
   7.4210512  81.4875405 125.5560637   7.9210290  81.5991939 124.7474956
   8.0646120  81.1836458 126.1961445   7.7531823  84.2470438 122.4095665
   6.8657678  84.5320088 122.1915860   8.1685813  84.0864201 121.5622942
  11.1046360  84.2716959 126.1250004  11.8806750  84.7613411 126.3974621
  10.3794494  84.6975013 126.5821874  13.5418918  84.9844578 127.1823945
  14.1363409  84.7440314 126.4717253  13.6145502  84.2651708 127.8097481
   6.8975037  94.0115112 116.5043685   7.6010887  94.2165115 117.1201341
   6.1737686  94.5791874 116.7692768   7.7272847  89.7624974 122.6245955
   7.6708049  90.2193525 121.7853587   8.2801190  89.0015658 122.4468798
  11.5377653  85.5514705 123.4496075  11.2814587  85.1511341 124.2804282
  10.9130521  86.2658499 123.3246214  15.8489991  88.2910779 125.9567366
  15.2889549  88.3603968 126.7298928  15.2433494  88.1151763 125.2366862
   8.8061734  94.4497641 118.5542145   9.6407338  94.0178840 118.3719620
   8.6446077  94.2779655 119.4819039   8.4607626  90.9529755 119.9198484
   8.4056430  90.7874026 118.9786928   7.8353682  91.6605788 120.0760674
   1.7703752  80.4537864 119.4983803   1.7582422  81.3979704 119.6552074
   2.6627174  80.2708009 119.2043264   5.5855871  77.0480640 123.7529739
   4.8188267  76.4939127 123.8986422   5.9966576  77.1202509 124.6143891
  17.4346009 104.9667293 128.6497322  18.0724419 104.8474040 127.9460662
  17.3166852 105.9148137 128.7085274  15.6822090 110.4401165 119.8870202
  15.0310070 111.0255245 119.5004216  16.4766453 110.9707360 119.9465240
   9.6077717 107.5290302 120.2857337  10.3808593 106.9819289 120.1470212
   9.9603116 108.3934551 120.4971798  11.9443995 103.6882968 117.9175787
  12.1969516 103.1664489 117.1559250  11.0068554 103.5249114 118.0202470
  16.9887278 102.6918746 125.7250530  17.7750367 102.2738170 125.3740947
  17.2525982 103.5964839 125.8932178  17.1597355 108.1291597 120.4239187
  16.5243188 108.2026223 121.1360091  16.8294762 108.7185196 119.7458266
  22.3895705 102.6293980 126.6283508  23.1220877 102.0593196 126.8621338
  21.6335061 102.2415580 127.0690014  11.6640284 105.5911074 120.1200161
  11.5476542 104.9155977 120.7881246  11.7742544 105.1043448 119.3032315
  14.0071825 105.0521221 123.8246851  13.6430032 104.5251842 124.5359772
  14.8638941 104.6619690 123.6513336  19.9121125  96.3415554 131.0878117
  19.5804450  97.2110965 130.8639332  19.3166739  96.0251838 131.7672147
  13.6477312 100.0811121 118.8208199  13.8151714 100.9491357 119.1878670
  13.4574481 100.2438403 117.8969488  19.8049789 101.0610640 128.1671467
  18.8966666 100.9926048 127.8730228  19.7537384 101.5382585 128.9953292
  13.6266533 102.5368778 119.8054866  13.5066158 102.9825829 120.6440346
  12.9319121 102.8854096 119.2468404  21.6711435  99.2627078 129.9449341
  21.0285815  99.5559611 129.2989135  21.1666364  99.1479999 130.7502538
  19.3251599 103.0090252 120.6335200  20.2369455 103.2417638 120.4582898
  18.8161246 103.5927296 120.0710279  17.9321181 107.9916070 128.0248782
  17.3030044 108.1561784 127.3224849  17.5446843 108.4057680 128.7959746
  21.8110413 108.9270508 125.3793145  21.1261451 109.3069409 124.8290179
  21.8954262 109.5365834 126.1125093  16.6687574  99.1848287 128.8825061
  15.8072053  99.4829541 129.1741799  16.6950008  99.4018686 127.9506094
  13.4849143 107.7290478 125.2898867  13.9487488 108.0078181 124.5003489
  13.2205941 106.8273923 125.1071957  12.4218029 103.8513630 122.0988432
  13.1242072 104.3034674 122.5662358  12.0898657 103.2097449 122.7268325
  28.2713166 105.7941171 126.4995818  27.5176874 105.2248569 126.3439822
  28.4060707 105.7603835 127.4466452  13.6611794 110.6654573 122.1750537
  13.5257468 111.5106109 122.6035385  14.2021606 110.8673851 121.4116471
  17.0104257  94.1885135 130.7049430  16.6668527  95.0786777 130.6288541
  17.3783220  93.9986793 129.8419015  16.9754540 104.1793746 119.2121866
  16.4601163 104.9498351 119.4510253  16.7031848 103.5058882 119.8354927
  14.5601651  99.0243447 124.2707104  13.7043247  98.6350297 124.0912743
  14.9728603  99.1035408 123.4106890  16.0900798  96.5589790 128.6698664
  15.5865593  96.5219925 127.8566469  16.3831404  97.4682533 128.7295320
  12.3343683  96.6428520 127.6764845  13.1996680  96.4471328 127.3170735
  12.4021192  96.4138872 128.6034202  21.9488814 106.9326101 121.1475039
  21.1718257 106.5937260 120.7030201  22.6280295 106.9378724 120.4730004
  16.7640843 102.0520838 121.0381647  16.4590979 102.3666987 121.8891790
  17.7171285 102.1302258 121.0808980  15.2087275 108.2111061 122.6874601
  14.6808636 107.4763821 122.3747838  14.7074778 108.9885738 122.4414569
  20.1880121 106.4060082 127.8041647  19.5303795 107.0959343 127.8921776
  20.9920520 106.7956514 128.1475633   9.9406003  98.8730728 125.0481212
  10.5149754  98.6505909 124.3154405  10.5276985  98.9419422 125.8009814
  18.9985580 104.7604455 125.8545589  19.5117461 105.3934446 126.3567299
  19.6486804 104.1605650 125.4888949  10.2675590 100.9035189 119.0677098
   9.4312902 101.2409875 119.3886372  10.1280359 100.7684169 118.1304235
  12.2428670  95.7471977 123.7756282  11.5893083  95.4320994 123.1512896
  12.2009144  95.1247717 124.5016105  13.3539875 106.0291272 115.6909574
  12.4466937 105.7980525 115.8900723  13.8510907 105.2328891 115.8783555
  16.2607954 114.7388779 118.6106260  15.5869653 115.0420476 119.2191218
  16.6473776 115.5417859 118.2611717  15.4766411 102.2353910 128.1003929
  14.5588972 102.4568857 127.9425617  15.8926554 102.3100221 127.2415637
  16.2601458 103.6345326 123.2306610  17.0073277 104.1466723 122.9213732
  16.5293048 103.3129379 124.0911003  14.5328109 106.1303867 120.2133564
  13.6239328 105.8462899 120.3106034  14.5623192 106.5502945 119.3536871
  19.7647376 109.7410456 123.9824731  19.3109703 108.9001366 124.0389922
  19.1341343 110.3771854 124.3199512  18.7080296 100.6702442 125.2125399
  17.9703052 100.1579828 125.5435641  18.9607069 100.2302824 124.4008676
  18.2080315 111.5786953 124.9174550  18.5003290 112.1392010 124.1986915
  18.7178936 111.8715514 125.6727709  18.8091923  93.4478694 125.8067168
  19.1150800  92.5876058 125.5193083  19.5344528  94.0396314 125.6066162
  13.0813003 103.7432487 126.3143359  13.1361612 102.7906324 126.2385836
  12.2704205 103.8991926 126.7984658  14.2304196 107.6712610 117.5521642
  13.7923626 106.9548469 117.0927280  14.9714637 107.8988725 116.9906734
  11.0205363 102.3609547 124.0733738  10.2073228 102.6603717 124.4798930
  11.5164357 101.9665236 124.7908220  22.3477311 105.9469807 123.6097961
  22.2095210 106.1371403 122.6819150  21.9913530 106.7089190 124.0666012
  22.3746691 108.0146334 128.6209233  22.8083197 107.9221623 129.4692287
  23.0878271 107.9903835 127.9829249   7.5962505 103.3773415 121.8789718
   6.6660093 103.3157870 122.0959680   7.6919977 102.8549367 121.0826359
   7.5148054  99.9028227 124.4667960   7.7754871 100.8173561 124.3577120
   8.3365226  99.4352670 124.6164573  23.2362240 108.0570035 131.1542118
  23.4298130 108.9615845 131.4001393  23.1362858 107.5977454 131.9880703
  14.4599169 114.9068451 120.8253339  14.6350925 114.4356495 121.6398962
  13.7731957 115.5334218 121.0534600  18.3515424 106.5296992 117.1453700
  17.7344595 105.8043820 117.0486753  17.8831912 107.2906352 116.8020774
  10.1413970 100.7482416 116.2675004   9.2643436 100.6271217 115.9037251
  10.6171723  99.9568494 116.0153893  16.6374546  98.9103336 126.1571730
  17.1343246  98.1573298 125.8372800  15.8661528  98.9467653 125.5914940
  24.4904303 104.6143702 127.7990022  24.4794180 105.4968417 127.4283955
  23.6221683 104.2615252 127.6044559  17.7204327 107.6675023 123.7310154
  16.7860605 107.7876486 123.5614858  17.8980995 106.7647490 123.4670163
  13.2209515 101.0520719 125.8843415  12.8507302 100.4991759 126.5724320
  13.7168607 100.4478852 125.3318415  21.1076878 103.5092343 124.2660188
  21.5737330 104.3420334 124.1920490  21.5584379 103.0437324 124.9705446
  19.1753109 109.8536164 121.2646340  19.4512953 109.7392758 122.1740214
  18.3057608 109.4553649 121.2258513  19.0793541  95.8772930 128.3051089
  18.1656621  96.1077156 128.4733296  19.5086642  95.9611374 129.1565121
  18.8499999 104.0662821 130.8050983  18.1971450 104.3138729 130.1503436
  19.2280379 103.2526960 130.4713460  16.1449339 113.0290700 122.1694202
  16.6737105 112.5183154 121.5564364  16.4077558 112.7133230 123.0339735
   6.5980505 100.0238369 121.8327235   6.2693211  99.1435748 121.6502341
   6.9519876  99.9686038 122.7203624   9.7122328 100.3111339 122.2002713
  10.0518401 100.8397260 121.4781321  10.1594449 100.6491745 122.9761279
  13.0582241  95.7797702 130.1033104  13.8808310  95.3058180 129.9811994
  13.3020305  96.5588186 130.6031790  11.6990476  98.8085960 120.3996006
  12.4198838  99.1867213 119.8959722  11.0755780  99.5274837 120.5030984
  15.8421598  99.5131109 121.3354338  16.0585213 100.3955747 121.0343166
  15.3615666  99.1217323 120.6059980  12.4417203  99.4619371 127.9605972
  12.4278772  98.5660464 127.6238270  13.1589631  99.4690034 128.5944258
  14.2943333  99.8956711 130.0059099  14.0361111 100.8173782 130.0043430
  13.7628374  99.4987145 130.6959564  19.2389522 113.0007498 122.7849185
  19.4126400 112.4353920 122.0323037  19.7318413 113.8008393 122.6028675
  11.8454099  98.3433751 123.2293542  11.9670010  97.4150397 123.4284430
  11.5556141  98.3572437 122.3171858  14.7145289  96.0288661 126.3660262
  14.7366986  96.0927994 125.4112242  15.1313348  95.1893170 126.5600768
  25.0928913 105.7643921 124.4039485  25.5360059 105.0151246 124.0058608
  24.2155424 105.7554057 124.0213217  20.2264695 112.3174262 119.8846083
  20.9215599 112.9380955 120.1033398  20.5687845 111.4669614 120.1598461
  22.1256118 109.7673968 121.4133414  22.6507442 110.1061241 120.6882734
  22.0378470 108.8320983 121.2296549  10.8184158 109.9287884 121.3209429
  10.9672278 110.6123348 120.6676102  11.6250601 109.9092974 121.8358885
  24.6361778 107.2349159 126.7961932  25.4708669 107.6738963 126.9599493
  24.7720907 106.7587812 125.9770178  21.6853284 104.7928894 132.7439420
  22.1607406 104.9856540 131.9358271  20.7618849 104.8488080 132.4982804
   8.5736791 105.9553061 122.3270498   8.3282833 105.0515391 122.5250708
   8.7432705 105.9570212 121.3849976  16.2633500  96.8276738 131.7095254
  16.7815444  97.5637765 131.3841742  15.9088633  97.1340731 132.5442013
   7.8432438 101.6881419 119.8256660   7.1501683 101.7625774 119.1696696
   7.5984190 100.9241762 120.3478177  16.5146095  93.2477020 127.2296150
  16.7947848  92.5800209 127.8556577  17.2996702  93.4406116 126.7170814
  14.3179563 112.4236014 118.7921177  13.7453530 113.0426201 118.3391649
  14.8912357 112.9735376 119.3261099  20.3854953 101.6694654 130.9767726
  21.3372376 101.7692752 130.9979950  20.2158403 100.8772923 131.4865810
  18.4069332  98.7550237 131.1627126  17.8119265  99.0355250 130.4673615
  18.1219029  99.2444138 131.9343868  17.5376823 112.7073164 119.9229759
  18.4707496 112.6418726 120.1262635  17.4500036 113.5429431 119.4644292
  20.1664840 112.0239035 116.8833707  20.0878471 111.6898898 117.7769464
  20.9874506 112.5160802 116.8825179  22.8643031 104.8900774 130.0910025
  22.8319351 103.9516775 130.2769709  23.4743654 104.9684811 129.3575850
  14.7026362 103.7596827 116.1337229  15.6485466 103.6303035 116.2025647
  14.3240607 103.0211489 116.6106657  23.0137519 101.6811817 130.1368308
  22.4976568 100.8970274 129.9498237  23.8977468 101.3530534 130.3014828
  20.6748246  95.4252833 126.0964121  20.4773067  95.1167921 126.9807453
  21.2847952  96.1514472 126.2262051  28.6819581 105.9516781 129.2316062
  29.4122969 105.6902069 129.7923765  28.0726526 105.2145503 129.2718130
  26.7634878 104.0924643 129.8290513  26.0368041 103.9580608 129.2207005
  26.3482165 104.4001472 130.6347231  12.8869279 101.6846803 116.0692114
  11.9800734 101.3879916 116.1454828  13.1645260 101.3876621 115.2026401
  14.5031345  96.2283693 122.2236356  13.6932073  95.8830778 122.5991602
  15.1915761  95.9191237 122.8123967  16.4321893  95.3061740 123.8460652
  16.9852931  95.7257193 124.5050676  16.6691979  94.3797488 123.8883608
  11.6568063  98.5433738 116.2104094  12.5187227  98.8688637 116.4699911
  11.8418408  97.7565234 115.6977159  19.8100700  97.4162265 123.3539317
  19.2299369  98.0747069 122.9717369  19.5436633  96.5939609 122.9426734
  18.2604266  96.8167323 125.5560637  18.7604045  96.9283857 124.7474956
  18.9039874  96.5128375 126.1961445  18.5925578  99.5762355 122.4095665
  17.7051433  99.8612006 122.1915860  19.0079567  99.4156119 121.5622942
  21.9440114  99.6008876 126.1250004  22.7200504 100.0905329 126.3974621
  21.2188248 100.0266930 126.5821874  24.3812673 100.3136495 127.1823945
  24.9757163 100.0732231 126.4717253  24.4539256  99.5943626 127.8097481
  17.7368791 109.3407030 116.5043685  18.4404642 109.5457032 117.1201341
  17.0131440 109.9083792 116.7692768  18.5666602 105.0916891 122.6245955
  18.5101803 105.5485443 121.7853587  19.1194944 104.3307576 122.4468798
  22.3771408 100.8806623 123.4496075  22.1208342 100.4803259 124.2804282
  21.7524276 101.5950417 123.3246214  26.6883745 103.6202696 125.9567366
  26.1283303 103.6895886 126.7298928  26.0827249 103.4443681 125.2366862
  19.6455489 109.7789559 118.5542145  20.4801093 109.3470758 118.3719620
  19.4839832 109.6071573 119.4819039  19.3001381 106.2821672 119.9198484
  19.2450185 106.1165944 118.9786928  18.6747436 106.9897705 120.0760674
  12.6097506  95.7829781 119.4983803  12.5976176  96.7271621 119.6552074
  13.5020928  95.5999927 119.2043264  16.4249626  92.3772558 123.7529739
  15.6582022  91.8231045 123.8986422  16.8360331  92.4494427 124.6143891
  28.2739764 120.2959210 128.6497322  28.9118174 120.1765958 127.9460662
  28.1560607 121.2440054 128.7085274  26.5215845 125.7693082 119.8870202
  25.8703824 126.3547163 119.5004216  27.3160207 126.2999277 119.9465240
  20.4471472 122.8582220 120.2857337  21.2202348 122.3111207 120.1470212
  20.7996871 123.7226469 120.4971798  22.7837750 119.0174886 117.9175787
  23.0363270 118.4956407 117.1559250  21.8462309 118.8541031 118.0202470
  27.8281032 118.0210664 125.7250530  28.6144122 117.6030087 125.3740947
  28.0919737 118.9256756 125.8932178  27.9991110 123.4583514 120.4239187
  27.3636943 123.5318141 121.1360091  27.6688516 124.0477113 119.7458266
  33.2289460 117.9585897 126.6283508  33.9614631 117.3885114 126.8621338
  32.4728815 117.5707498 127.0690014  22.5034038 120.9202992 120.1200161
  22.3870296 120.2447895 120.7881246  22.6136298 120.4335366 119.3032315
  24.8465579 120.3813139 123.8246851  24.4823786 119.8543760 124.5359772
  25.7032695 119.9911608 123.6513336  30.7514880 111.6707471 131.0878117
  30.4198205 112.5402882 130.8639332  30.1560493 111.3543755 131.7672147
  24.4871066 115.4103039 118.8208199  24.6545469 116.2783275 119.1878670
  24.2968235 115.5730320 117.8969488  30.6443543 116.3902558 128.1671467
  29.7360421 116.3217966 127.8730228  30.5931139 116.8674503 128.9953292
  24.4660287 117.8660696 119.8054866  24.3459912 118.3117747 120.6440346
  23.7712875 118.2146014 119.2468404  32.5105190 114.5918996 129.9449341
  31.8679570 114.8851529 129.2989135  32.0060118 114.4771916 130.7502538
  30.1645353 118.3382169 120.6335200  31.0763209 118.5709556 120.4582898
  29.6555000 118.9219213 120.0710279  28.7714936 123.3207988 128.0248782
  28.1423798 123.4853702 127.3224849  28.3840598 123.7349597 128.7959746
  32.6504167 124.2562425 125.3793145  31.9655206 124.6361327 124.8290179
  32.7348017 124.8657752 126.1125093  27.5081328 114.5140205 128.8825061
  26.6465807 114.8121459 129.1741799  27.5343763 114.7310604 127.9506094
  24.3242897 123.0582396 125.2898867  24.7881243 123.3370099 124.5003489
  24.0599696 122.1565840 125.1071957  23.2611783 119.1805548 122.0988432
  23.9635827 119.6326592 122.5662358  22.9292412 118.5389367 122.7268325
  39.1106920 121.1233088 126.4995818  38.3570628 120.5540486 126.3439822
  39.2454461 121.0895753 127.4466452  24.5005548 125.9946491 122.1750537
  24.3651223 126.8398026 122.6035385  25.0415361 126.1965768 121.4116471
  27.8498012 109.5177053 130.7049430  27.5062281 110.4078694 130.6288541
  28.2176974 109.3278710 129.8419015  27.8148294 119.5085664 119.2121866
  27.2994918 120.2790268 119.4510253  27.5425603 118.8350800 119.8354927
  25.3995405 114.3535364 124.2707104  24.5437002 113.9642215 124.0912743
  25.8122357 114.4327325 123.4106890  26.9294552 111.8881708 128.6698664
  26.4259348 111.8511843 127.8566469  27.2225159 112.7974450 128.7295320
  23.1737438 111.9720437 127.6764845  24.0390435 111.7763246 127.3170735
  23.2414947 111.7430789 128.6034202  32.7882569 122.2618018 121.1475039
  32.0112011 121.9229178 120.7030201  33.4674050 122.2670642 120.4730004
  27.6034598 117.3812756 121.0381647  27.2984733 117.6958905 121.8891790
  28.5565040 117.4594176 121.0808980  26.0481029 123.5402979 122.6874601
  25.5202391 122.8055739 122.3747838  25.5468532 124.3177655 122.4414569
  31.0273875 121.7352000 127.8041647  30.3697550 122.4251261 127.8921776
  31.8314275 122.1248432 128.1475633  20.7799757 114.2022645 125.0481212
  21.3543509 113.9797827 124.3154405  21.3670739 114.2711340 125.8009814
  29.8379334 120.0896372 125.8545589  30.3511216 120.7226364 126.3567299
  30.4880558 119.4897568 125.4888949  21.1069344 116.2327106 119.0677098
  20.2706656 116.5701793 119.3886372  20.9674114 116.0976086 118.1304235
  23.0822425 111.0763894 123.7756282  22.4286837 110.7612911 123.1512896
  23.0402899 110.4539635 124.5016105  24.1933630 121.3583189 115.6909574
  23.2860691 121.1272443 115.8900723  24.6904662 120.5620809 115.8783555
  27.1001708 130.0680697 118.6106260  26.4263407 130.3712393 119.2191218
  27.4867530 130.8709777 118.2611717  26.3160165 117.5645828 128.1003929
  25.3982726 117.7860775 127.9425617  26.7320309 117.6392138 127.2415637
  27.0995213 118.9637244 123.2306610  27.8467032 119.4758641 122.9213732
  27.3686802 118.6421296 124.0911003  25.3721863 121.4595784 120.2133564
  24.4633082 121.1754817 120.3106034  25.4016947 121.8794863 119.3536871
  30.6041130 125.0702374 123.9824731  30.1503458 124.2293284 124.0389922
  29.9735097 125.7063772 124.3199512  29.5474050 115.9994360 125.2125399
  28.8096807 115.4871746 125.5435641  29.8000824 115.5594741 124.4008676
  29.0474070 126.9078870 124.9174550  29.3397044 127.4683928 124.1986915
  29.5572690 127.2007431 125.6727709  29.6485677 108.7770612 125.8067168
  29.9544554 107.9167975 125.5193083  30.3738282 109.3688232 125.6066162
  23.9206757 119.0724405 126.3143359  23.9755367 118.1198241 126.2385836
  23.1097959 119.2283844 126.7984658  25.0697951 123.0004528 117.5521642
  24.6317381 122.2840387 117.0927280  25.8108392 123.2280643 116.9906734
  21.8599117 117.6901465 124.0733738  21.0466983 117.9895635 124.4798930
  22.3558111 117.2957153 124.7908220  33.1871066 121.2761725 123.6097961
  33.0488964 121.4663321 122.6819150  32.8307284 122.0381108 124.0666012
  33.2140445 123.3438252 128.6209233  33.6476952 123.2513541 129.4692287
  33.9272026 123.3195752 127.9829249  18.4356259 118.7065332 121.8789718
  17.5053847 118.6449788 122.0959680  18.5313731 118.1841285 121.0826359
  18.3541808 115.2320145 124.4667960  18.6148625 116.1465478 124.3577120
  19.1758981 114.7644588 124.6164573  34.0755995 123.3861953 131.1542118
  34.2691885 124.2907763 131.4001393  33.9756613 122.9269372 131.9880703
  25.2992924 130.2360369 120.8253339  25.4744679 129.7648412 121.6398962
  24.6125712 130.8626135 121.0534600  29.1909178 121.8588910 117.1453700
  28.5738349 121.1335738 117.0486753  28.7225667 122.6198270 116.8020774
  20.9807724 116.0774334 116.2675004  20.1037191 115.9563135 115.9037251
  21.4565477 115.2860412 116.0153893  27.4768301 114.2395254 126.1571730
  27.9737000 113.4865216 125.8372800  26.7055282 114.2759570 125.5914940
  35.3298058 119.9435619 127.7990022  35.3187934 120.8260335 127.4283955
  34.4615437 119.5907170 127.6044559  28.5598081 122.9966941 123.7310154
  27.6254360 123.1168403 123.5614858  28.7374750 122.0939408 123.4670163
  24.0603269 116.3812637 125.8843415  23.6901057 115.8283677 126.5724320
  24.5562362 115.7770770 125.3318415  31.9470633 118.8384260 124.2660188
  32.4131085 119.6712252 124.1920490  32.3978133 118.3729242 124.9705446
  30.0146864 125.1828081 121.2646340  30.2906708 125.0684676 122.1740214
  29.1451362 124.7845566 121.2258513  29.9187295 111.2064847 128.3051089
  29.0050375 111.4369074 128.4733296  30.3480397 111.2903291 129.1565121
  29.6893754 119.3954739 130.8050983  29.0365204 119.6430647 130.1503436
  30.0674134 118.5818877 130.4713460  26.9843093 128.3582617 122.1694202
  27.5130860 127.8475072 121.5564364  27.2471313 128.0425148 123.0339735
  17.4374260 115.3530287 121.8327235  17.1086966 114.4727666 121.6502341
  17.7913630 115.2977955 122.7203624  20.5516083 115.6403257 122.2002713
  20.8912155 116.1689178 121.4781321  20.9988203 115.9783663 122.9761279
  23.8975996 111.1089620 130.1033104  24.7202065 110.6350098 129.9811994
  24.1414059 111.8880103 130.6031790  22.5384230 114.1377878 120.3996006
  23.2592593 114.5159131 119.8959722  21.9149534 114.8566755 120.5030984
  26.6815353 114.8423027 121.3354338  26.8978967 115.7247665 121.0343166
  26.2009420 114.4509241 120.6059980  23.2810957 114.7911288 127.9605972
  23.2672526 113.8952382 127.6238270  23.9983385 114.7981952 128.5944258
  25.1337088 115.2248629 130.0059099  24.8754866 116.1465699 130.0043430
  24.6022128 114.8279063 130.6959564  30.0783277 128.3299416 122.7849185
  30.2520154 127.7645838 122.0323037  30.5712168 129.1300311 122.6028675
  22.6847853 113.6725669 123.2293542  22.8063764 112.7442315 123.4284430
  22.3949896 113.6864355 122.3171858  25.5539044 111.3580579 126.3660262
  25.5760740 111.4219912 125.4112242  25.9707103 110.5185088 126.5600768
  35.9322668 121.0935839 124.4039485  36.3753814 120.3443164 124.0058608
  35.0549178 121.0845975 124.0213217  31.0658449 127.6466180 119.8846083
  31.7609354 128.2672873 120.1033398  31.4081599 126.7961531 120.1598461
  32.9649872 125.0965886 121.4133414  33.4901196 125.4353158 120.6882734
  32.8772225 124.1612901 121.2296549  21.6577912 125.2579801 121.3209429
  21.8066032 125.9415266 120.6676102  22.4644356 125.2384891 121.8358885
  35.4755533 122.5641077 126.7961932  36.3102424 123.0030881 126.9599493
  35.6114661 122.0879730 125.9770178  32.5247039 120.1220812 132.7439420
  33.0001160 120.3148458 131.9358271  31.6012604 120.1779998 132.4982804
  19.4130545 121.2844979 122.3270498  19.1676587 120.3807309 122.5250708
  19.5826460 121.2862129 121.3849976  27.1027255 112.1568655 131.7095254
  27.6209199 112.8929682 131.3841742  26.7482388 112.4632649 132.5442013
  18.6826193 117.0173337 119.8256660  17.9895438 117.0917692 119.1696696
  18.4377945 116.2533680 120.3478177  27.3539849 108.5768938 127.2296150
  27.6341603 107.9092127 127.8556577  28.1390456 108.7698033 126.7170814
  25.1573318 127.7527932 118.7921177  24.5847285 128.3718119 118.3391649
  25.7306111 128.3027293 119.3261099  31.2248708 116.9986572 130.9767726
  32.1766130 117.0984670 130.9979950  31.0552158 116.2064840 131.4865810
  29.2463087 114.0842155 131.1627126  28.6513019 114.3647168 130.4673615
  28.9612784 114.5736056 131.9343868  28.3770577 128.0365082 119.9229759
  29.3101251 127.9710644 120.1262635  28.2893790 128.8721349 119.4644292
  31.0058594 127.3530952 116.8833707  30.9272226 127.0190816 117.7769464
  31.8268261 127.8452720 116.8825179  33.7036785 120.2192692 130.0910025
  33.6713105 119.2808692 130.2769709  34.3137409 120.2976728 129.3575850
  25.5420116 119.0888745 116.1337229  26.4879221 118.9594953 116.2025647
  25.1634361 118.3503406 116.6106657  33.8531274 117.0103735 130.1368308
  33.3370322 116.2262192 129.9498237  34.7371222 116.6822452 130.3014828
  31.5142001 110.7544751 126.0964121  31.3166822 110.4459839 126.9807453
  32.1241706 111.4806389 126.2262051  39.5213335 121.2808698 129.2316062
  40.2516724 121.0193987 129.7923765  38.9120281 120.5437420 129.2718130
  37.6028632 119.4216561 129.8290513  36.8761796 119.2872526 129.2207005
  37.1875919 119.7293390 130.6347231  23.7263033 117.0138721 116.0692114
  22.8194489 116.7171834 116.1454828  24.0039014 116.7168539 115.2026401
  25.3425099 111.5575611 122.2236356  24.5325827 111.2122696 122.5991602
  26.0309516 111.2483154 122.8123967  27.2715647 110.6353657 123.8460652
  27.8246686 111.0549111 124.5050676  27.5085734 109.7089406 123.8883608
  22.4961818 113.8725656 116.2104094  23.3580982 114.1980554 116.4699911
  22.6812162 113.0857152 115.6977159  30.6494454 112.7454183 123.3539317
  30.0693123 113.4038987 122.9717369  30.3830387 111.9231527 122.9426734
  29.0998021 112.1459240 125.5560637  29.5997799 112.2575775 124.7474956
  29.7433629 111.8420293 126.1961445  29.4319332 114.9054273 122.4095665
  28.5445187 115.1903924 122.1915860  29.8473321 114.7448036 121.5622942
  32.7833869 114.9300794 126.1250004  33.5594259 115.4197246 126.3974621
  32.0582003 115.3558848 126.5821874  35.2206427 115.6428413 127.1823945
  35.8150918 115.4024149 126.4717253  35.2933011 114.9235544 127.8097481
  28.5762546 124.6698948 116.5043685  29.2798396 124.8748950 117.1201341
  27.8525195 125.2375710 116.7692768  29.4060356 120.4208809 122.6245955
  29.3495558 120.8777360 121.7853587  29.9588699 119.6599493 122.4468798
  33.2165162 116.2098541 123.4496075  32.9602096 115.8095176 124.2804282
  32.5918030 116.9242335 123.3246214  37.5277500 118.9494614 125.9567366
  36.9677058 119.0187803 126.7298928  36.9221003 118.7735599 125.2366862
  30.4849243 125.1081477 118.5542145  31.3194847 124.6762675 118.3719620
  30.3233586 124.9363491 119.4819039  30.1395135 121.6113590 119.9198484
  30.0843939 121.4457862 118.9786928  29.5141191 122.3189623 120.0760674
  23.4491261 111.1121699 119.4983803  23.4369931 112.0563539 119.6552074
  24.3414683 110.9291845 119.2043264  27.2643380 107.7064476 123.7529739
  26.4975776 107.1522962 123.8986422  27.6754085 107.7786345 124.6143891
  39.1133518 135.6251128 128.6497322  39.7511928 135.5057875 127.9460662
  38.9954361 136.5731972 128.7085274  33.6231504 134.3466803 117.9175787
  33.8757025 133.8248325 117.1559250  32.6856063 134.1832949 118.0202470
  38.6674787 133.3502582 125.7250530  39.4537876 132.9322005 125.3740947
  38.9313491 134.2548674 125.8932178  38.8384864 138.7875432 120.4239187
  38.2030697 138.8610059 121.1360091  38.5082271 139.3769031 119.7458266
  44.0683214 133.2877815 126.6283508  44.8008386 132.7177032 126.8621338
  43.3122570 132.8999415 127.0690014  33.3427793 136.2494909 120.1200161
  33.2264051 135.5739813 120.7881246  33.4530053 135.7627283 119.3032315
  35.6859334 135.7105056 123.8246851  35.3217541 135.1835677 124.5359772
  36.5426450 135.3203526 123.6513336  41.5908634 126.9999389 131.0878117
  41.2591959 127.8694800 130.8639332  40.9954248 126.6835673 131.7672147
  35.3264821 130.7394956 118.8208199  35.4939223 131.6075193 119.1878670
  35.1361990 130.9022238 117.8969488  41.4837298 131.7194475 128.1671467
  40.5754175 131.6509884 127.8730228  41.4324893 132.1966420 128.9953292
  35.3054042 133.1952614 119.8054866  35.1853667 133.6409664 120.6440346
  34.6106630 133.5437931 119.2468404  43.3498944 129.9210914 129.9449341
  42.7073324 130.2143447 129.2989135  42.8453873 129.8063834 130.7502538
  41.0039108 133.6674087 120.6335200  41.9156964 133.9001474 120.4582898
  40.4948755 134.2511131 120.0710279  39.6108690 138.6499905 128.0248782
  38.9817552 138.8145619 127.3224849  39.2234352 139.0641515 128.7959746
  43.4897922 139.5854343 125.3793145  42.8048960 139.9653245 124.8290179
  43.5741771 140.1949670 126.1125093  38.3475083 129.8432123 128.8825061
  37.4859562 130.1413376 129.1741799  38.3737517 130.0602522 127.9506094
  35.1636652 138.3874313 125.2898867  35.6274997 138.6662016 124.5003489
  34.8993450 137.4857758 125.1071957  34.1005538 134.5097466 122.0988432
  34.8029581 134.9618509 122.5662358  33.7686166 133.8681285 122.7268325
  49.9500675 136.4525006 126.4995818  49.1964383 135.8832404 126.3439822
  50.0848216 136.4187671 127.4466452  38.6891766 124.8468970 130.7049430
  38.3456036 125.7370612 130.6288541  39.0570729 124.6570628 129.8419015
  38.6542049 134.8377581 119.2121866  38.1388672 135.6082186 119.4510253
  38.3819357 134.1642718 119.8354927  36.2389160 129.6827282 124.2707104
  35.3830756 129.2934133 124.0912743  36.6516112 129.7619243 123.4106890
  37.7688307 127.2173625 128.6698664  37.2653102 127.1803761 127.8566469
  38.0618913 128.1266368 128.7295320  34.0131192 127.3012355 127.6764845
  34.8784189 127.1055164 127.3170735  34.0808701 127.0722707 128.6034202
  43.6276323 137.5909936 121.1475039  42.8505766 137.2521096 120.7030201
  44.3067804 137.5962559 120.4730004  38.4428352 132.7104673 121.0381647
  38.1378488 133.0250823 121.8891790  39.3958794 132.7886093 121.0808980
  41.8667630 137.0643917 127.8041647  41.2091304 137.7543179 127.8921776
  42.6708029 137.4540349 128.1475633  31.6193512 129.5314563 125.0481212
  32.1937263 129.3089745 124.3154405  32.2064494 129.6003258 125.8009814
  40.6773089 135.4188290 125.8545589  41.1904970 136.0518282 126.3567299
  41.3274313 134.8189485 125.4888949  31.9463099 131.5619024 119.0677098
  31.1100411 131.8993711 119.3886372  31.8067868 131.4268004 118.1304235
  33.9216179 126.4055812 123.7756282  33.2680592 126.0904829 123.1512896
  33.8796653 125.7831552 124.5016105  35.0327384 136.6875107 115.6909574
  34.1254446 136.4564361 115.8900723  35.5298416 135.8912726 115.8783555
  37.1553920 132.8937746 128.1003929  36.2376481 133.1152693 127.9425617
  37.5714063 132.9684056 127.2415637  37.9388967 134.2929161 123.2306610
  38.6860786 134.8050558 122.9213732  38.2080557 133.9713214 124.0911003
  36.2115618 136.7887702 120.2133564  35.3026837 136.5046735 120.3106034
  36.2410701 137.2086780 119.3536871  40.3867805 131.3286277 125.2125399
  39.6490561 130.8163664 125.5435641  40.6394578 130.8886659 124.4008676
  40.4879432 124.1062529 125.8067168  40.7938309 123.2459893 125.5193083
  41.2132037 124.6980150 125.6066162  34.7600512 134.4016323 126.3143359
  34.8149121 133.4490159 126.2385836  33.9491714 134.5575762 126.7984658
  35.9091705 138.3296446 117.5521642  35.4711135 137.6132305 117.0927280
  36.6502146 138.5572560 116.9906734  32.6992871 133.0193382 124.0733738
  31.8860737 133.3187553 124.4798930  33.1951866 132.6249071 124.7908220
  44.0264820 136.6053643 123.6097961  43.8882719 136.7955239 122.6819150
  43.6701039 137.3673025 124.0666012  44.0534200 138.6730170 128.6209233
  44.4870706 138.5805459 129.4692287  44.7665780 138.6487670 127.9829249
  29.2750014 134.0357250 121.8789718  28.3447602 133.9741705 122.0959680
  29.3707486 133.5133203 121.0826359  29.1935563 130.5612063 124.4667960
  29.4542380 131.4757396 124.3577120  30.0152735 130.0936505 124.6164573
  44.9149749 138.7153870 131.1542118  45.1085639 139.6199681 131.4001393
  44.8150367 138.2561289 131.9880703  40.0302933 137.1880827 117.1453700
  39.4132104 136.4627655 117.0486753  39.5619421 137.9490188 116.8020774
  31.8201479 131.4066252 116.2675004  30.9430945 131.2855052 115.9037251
  32.2959232 130.6152330 116.0153893  38.3162055 129.5687171 126.1571730
  38.8130755 128.8157134 125.8372800  37.5449037 129.6051488 125.5914940
  46.1691812 135.2727537 127.7990022  46.1581689 136.1552252 127.4283955
  45.3009192 134.9199088 127.6044559  39.3991836 138.3258859 123.7310154
  38.4648114 138.4460321 123.5614858  39.5768504 137.4231325 123.4670163
  34.8997024 131.7104554 125.8843415  34.5294811 131.1575595 126.5724320
  35.3956116 131.1062688 125.3318415  42.7864387 134.1676178 124.2660188
  43.2524839 135.0004169 124.1920490  43.2371888 133.7021159 124.9705446
  40.8540618 140.5119999 121.2646340  41.1300462 140.3976594 122.1740214
  39.9845117 140.1137484 121.2258513  40.7581050 126.5356765 128.3051089
  39.8444130 126.7660992 128.4733296  41.1874151 126.6195209 129.1565121
  40.5287508 134.7246657 130.8050983  39.8758959 134.9722564 130.1503436
  40.9067888 133.9110795 130.4713460  28.2768014 130.6822204 121.8327235
  27.9480720 129.8019583 121.6502341  28.6307385 130.6269873 122.7203624
  31.3909837 130.9695174 122.2002713  31.7305910 131.4981095 121.4781321
  31.8381958 131.3075580 122.9761279  34.7369750 126.4381537 130.1033104
  35.5595819 125.9642016 129.9811994  34.9807814 127.2172021 130.6031790
  33.3777985 129.4669796 120.3996006  34.0986347 129.8451049 119.8959722
  32.7543289 130.1858673 120.5030984  37.5209107 130.1714945 121.3354338
  37.7372722 131.0539583 121.0343166  37.0403175 129.7801158 120.6059980
  34.1204712 130.1203206 127.9605972  34.1066280 129.2244299 127.6238270
  34.8377140 130.1273870 128.5944258  35.9730842 130.5540546 130.0059099
  35.7148620 131.4757617 130.0043430  35.4415883 130.1570981 130.6959564
  33.5241608 129.0017586 123.2293542  33.6457519 128.0734232 123.4284430
  33.2343650 129.0156272 122.3171858  36.3932798 126.6872497 126.3660262
  36.4154495 126.7511830 125.4112242  36.8100857 125.8477005 126.5600768
  46.7716422 136.4227756 124.4039485  47.2147568 135.6735081 124.0058608
  45.8942933 136.4137893 124.0213217  43.8043627 140.4257803 121.4133414
  44.3294951 140.7645076 120.6882734  43.7165979 139.4904819 121.2296549
  46.3149287 137.8932995 126.7961932  47.1496178 138.3322799 126.9599493
  46.4508416 137.4171648 125.9770178  43.3640793 135.4512729 132.7439420
  43.8394915 135.6440376 131.9358271  42.4406358 135.5071915 132.4982804
  30.2524300 136.6136897 122.3270498  30.0070342 135.7099227 122.5250708
  30.4220214 136.6154047 121.3849976  37.9421009 127.4860573 131.7095254
  38.4602953 128.2221600 131.3841742  37.5876142 127.7924566 132.5442013
  29.5219947 132.3465254 119.8256660  28.8289192 132.4209609 119.1696696
  29.2771699 131.5825598 120.3478177  38.1933604 123.9060856 127.2296150
  38.4735357 123.2384045 127.8556577  38.9784211 124.0989951 126.7170814
  42.0642462 132.3278490 130.9767726  43.0159885 132.4276587 130.9979950
  41.8945912 131.5356758 131.4865810  40.0856841 129.4134073 131.1627126
  39.4906774 129.6939085 130.4673615  39.8006538 129.9027974 131.9343868
  44.5430540 135.5484609 130.0910025  44.5106860 134.6100610 130.2769709
  45.1531163 135.6268646 129.3575850  36.3813871 134.4180662 116.1337229
  37.3272975 134.2886870 116.2025647  36.0028116 133.6795324 116.6106657
  44.6925028 132.3395653 130.1368308  44.1764077 131.5554109 129.9498237
  45.5764977 132.0114369 130.3014828  42.3535755 126.0836668 126.0964121
  42.1560576 125.7751756 126.9807453  42.9635461 126.8098307 126.2262051
  50.3607090 136.6100616 129.2316062  51.0910478 136.3485904 129.7923765
  49.7514035 135.8729338 129.2718130  48.4422387 134.7508479 129.8290513
  47.7155550 134.6164444 129.2207005  48.0269674 135.0585307 130.6347231
  34.5656788 132.3430639 116.0692114  33.6588243 132.0463751 116.1454828
  34.8432769 132.0460457 115.2026401  36.1818854 126.8867528 122.2236356
  35.3719582 126.5414613 122.5991602  36.8703270 126.5775072 122.8123967
  38.1109402 125.9645575 123.8460652  38.6640440 126.3841029 124.5050676
  38.3479488 125.0381323 123.8883608  33.3355572 129.2017574 116.2104094
  34.1974736 129.5272472 116.4699911  33.5205917 128.4149070 115.6977159
  41.4888209 128.0746100 123.3539317  40.9086878 128.7330904 122.9717369
  41.2224142 127.2523445 122.9426734  39.9391775 127.4751158 125.5560637
  40.4391554 127.5867692 124.7474956  40.5827383 127.1712211 126.1961445
  40.2713087 130.2346191 122.4095665  39.3838942 130.5195841 122.1915860
  40.6867076 130.0739954 121.5622942  43.6227623 130.2592712 126.1250004
  44.3988013 130.7489164 126.3974621  42.8975757 130.6850766 126.5821874
  46.0600182 130.9720331 127.1823945  46.6544672 130.7316067 126.4717253
  46.1326765 130.2527461 127.8097481  40.2454111 135.7500727 122.6245955
  40.1889312 136.2069278 121.7853587  40.7982453 134.9891411 122.4468798
  44.0558917 131.5390458 123.4496075  43.7995851 131.1387094 124.2804282
  43.4311785 132.2534252 123.3246214  48.3671254 134.2786532 125.9567366
  47.8070812 134.3479721 126.7298928  47.7614758 134.1027516 125.2366862
  41.3242998 140.4373395 118.5542145  42.1588602 140.0054593 118.3719620
  41.1627341 140.2655408 119.4819039  40.9788890 136.9405508 119.9198484
  40.9237694 136.7749779 118.9786928  40.3534945 137.6481541 120.0760674
  34.2885015 126.4413617 119.4983803  34.2763685 127.3855457 119.6552074
  35.1808437 126.2583762 119.2043264  38.1037135 123.0356393 123.7529739
  37.3369531 122.4814880 123.8986422  38.5147840 123.1078262 124.6143891
  52.4302389 142.3291307 131.0878117  52.0985714 143.1986718 130.8639332
  51.8348002 142.0127591 131.7672147  49.5285521 140.1760888 130.7049430
  49.1849790 141.0662530 130.6288541  49.8964483 139.9862546 129.8419015
  48.6082061 142.5465543 128.6698664  48.1046857 142.5095678 127.8566469
  48.9012668 143.4558286 128.7295320  44.7609934 141.7347730 123.7756282
  44.1074346 141.4196747 123.1512896  44.7190408 141.1123470 124.5016105
  51.3273186 139.4354447 125.8067168  51.6332063 138.5751811 125.5193083
  52.0525791 140.0272067 125.6066162  51.5974804 141.8648683 128.3051089
  50.6837884 142.0952909 128.4733296  52.0267906 141.9487127 129.1565121
  45.5763505 141.7673455 130.1033104  46.3989574 141.2933933 129.9811994
  45.8201568 142.5463939 130.6031790  47.2326553 142.0164414 126.3660262
  47.2548249 142.0803748 125.4112242  47.6494612 141.1768923 126.5600768
  48.7814764 142.8152491 131.7095254  49.2996708 143.5513518 131.3841742
  48.4269897 143.1216484 132.5442013  49.0327358 139.2352773 127.2296150
  49.3129112 138.5675962 127.8556577  49.8177965 139.4281869 126.7170814
  53.1929510 141.4128586 126.0964121  52.9954331 141.1043674 126.9807453
  53.8029215 142.1390225 126.2262051  47.0212608 142.2159446 122.2236356
  46.2113336 141.8706531 122.5991602  47.7097025 141.9066990 122.8123967
  48.9503156 141.2937493 123.8460652  49.5034195 141.7132946 124.5050676
  49.1873243 140.3673241 123.8883608  52.3281963 143.4038018 123.3539317
  51.7480632 144.0622822 122.9717369  52.0617896 142.5815363 122.9426734
  50.7785530 142.8043076 125.5560637  51.2785308 142.9159610 124.7474956
  51.4221138 142.5004128 126.1961445  56.8993936 146.3012249 127.1823945
  57.4938427 146.0607984 126.4717253  56.9720520 145.5819379 127.8097481
  48.9430889 138.3648311 123.7529739  48.1763285 137.8106798 123.8986422
  49.3541594 138.4370180 124.6143891   6.5925658  52.1419458 113.2241124
   5.8389366  51.5726856 113.0685129   6.7273199  52.1082122 114.1711759
   0.6959183  54.3624622 115.3454539   1.1295690  54.2699911 116.1937593
   1.4090764  54.3382122 114.7074555   1.5574733  54.4048322 117.8787425
   1.7510623  55.3094133 118.1246699   1.4575351  53.9455741 118.7126010
   2.8116796  50.9621989 114.5235328   2.8006672  51.8446704 114.1529261
   1.9434175  50.6093540 114.3289865   3.4141406  52.1122208 111.1284791
   3.8572552  51.3629533 110.7303915   2.5367916  52.1032345 110.7458523
   0.4468610  56.1152255 108.1378721   0.9719934  56.4539528 107.4128041
   0.3590963  55.1799270 107.9541855   1.7578588  56.0174567 121.0004669
   1.4663396  56.3804547 121.8368130   1.1450719  55.3041575 120.8218001
   2.9574270  53.5827446 113.5207239   3.7921162  54.0217251 113.6844799
   3.0933399  53.1066100 112.7015485   1.1855523  51.2379061 116.8155332
   1.1531843  50.2995062 117.0015016   1.7956147  51.3163098 116.0821157
   1.3350012  48.0290105 116.8613615   0.8189060  47.2448561 116.6743544
   2.2189960  47.7008821 117.0260134   7.0032073  52.2995068 115.9561369
   7.7335461  52.0380356 116.5169072   6.3939018  51.5623790 115.9963437
   5.0847370  50.4402931 116.5535820   4.3580534  50.3058895 115.9452311
   4.6694657  50.7479759 117.3592538   2.7025165  46.6614783 113.9069251
   3.2969656  46.4210519 113.1962560   2.7751749  45.9421913 114.5342788
   5.0096238  49.9680984 112.6812673   4.4495796  50.0374173 113.4544235
   4.4039741  49.7921968 111.9612169   6.5952256  66.6437498 115.3742628
   7.2330666  66.5244245 114.6705968   6.4773099  67.5918341 115.4330580
   3.4041962  66.5964926 115.3104153   3.0660474  66.4805990 114.4224688
   4.2731731  66.1956091 115.2905159   3.8861745  67.7499777 121.2690359
   3.8750386  67.3552576 120.3970862   4.0482385  67.0165850 121.8624130
   4.8428337  72.1171370 106.6115509   4.1916317  72.7025450 106.2249523
   5.6372700  72.6477565 106.6710546   1.5325213  67.9113738 116.8070902
   2.1288786  67.6869760 116.0927865   1.5900185  67.1698483 117.4096350
   6.1493525  64.3688951 112.4495836   6.9356614  63.9508375 112.0986253
   6.4132229  65.2735044 112.6177485   6.3203602  69.8061802 107.1484493
   5.6849435  69.8796428 107.8605398   5.9901008  70.3955401 106.4703572
  11.5501952  64.3064185 113.3528815  12.2827124  63.7363401 113.5866644
  10.7941307  63.9185785 113.7935320   0.8246531  67.2681279 106.8445468
   0.7082789  66.5926182 107.5126552   0.9348790  66.7813653 106.0277621
   3.1678072  66.7291426 110.5492157   2.8036279  66.2022047 111.2605079
   4.0245187  66.3389895 110.3758643   9.0727372  58.0185759 117.8123423
   8.7410697  58.8881170 117.5884638   8.4772986  57.7022043 118.4917454
   2.8083558  61.7581326 105.5453506   2.9757961  62.6261562 105.9123977
   2.6180728  61.9208607 104.6214795   5.5658892  70.2198305 117.2119336
   5.2659615  71.1223343 117.1035143   5.2209951  69.9530488 118.0640489
   8.9656035  62.7380845 114.8916774   8.0572913  62.6696253 114.5975535
   8.9143631  63.2152790 115.7198599   2.7872779  64.2138983 106.5300173
   2.6672405  64.6596034 107.3685653   2.0925368  64.5624301 105.9713711
   3.0396901  64.1570490 122.8351671   2.2630235  64.7164411 122.8254535
   3.6787464  64.6427273 123.3566541  10.8317682  60.9397283 116.6694647
  10.1892062  61.2329816 116.0234442  10.3272610  60.8250204 117.4747844
   8.4857846  64.6860456 107.3580507   9.3975702  64.9187843 107.1828204
   7.9767493  65.2697501 106.7955585   1.2943274  66.9655944 122.3969638
   2.0357958  67.5040988 122.1204461   0.5880259  67.5922233 122.5541190
   6.7698613  69.1085084 120.9941799   7.1781969  68.6667495 120.2496432
   6.0475875  68.5337712 121.2475992   3.1229683  64.0457691 118.3675356
   3.9690878  64.4697105 118.5110005   3.0628321  63.3891315 119.0613919
   7.0927428  69.6686275 114.7494088   6.4636290  69.8331989 114.0470156
   6.7053090  70.0827884 115.5205052  10.9716660  70.6040713 112.1038452
  10.2867698  70.9839614 111.5535485  11.0560509  71.2136039 112.8370400
   6.2729129  61.7062059 120.0256530   6.0290060  62.4604120 119.4890806
   6.5489059  62.0847407 120.8603777   8.2267591  68.2500672 118.7033795
   8.4384487  68.8932432 118.0268177   8.1797340  67.4162988 118.2355726
   5.8293820  60.8618492 115.6070368   4.9678299  61.1599746 115.8987105
   5.8556255  61.0788891 114.6751400   2.6455390  69.4060683 112.0144173
   3.1093735  69.6848386 111.2248796   2.3812188  68.5044128 111.8317264
   1.5824276  65.5283835 108.8233738   2.2848319  65.9804879 109.2907665
   1.2504904  64.8867654 109.4513632   9.3413419  71.1272627 116.8756153
  10.1630863  70.7252814 116.5938834   9.3375822  71.0240861 117.8272269
   3.1070023  70.6756670 119.0316863   3.1714455  71.1377078 119.8675035
   2.3980947  70.0454035 119.1599173  17.4319412  67.4711376 113.2241124
  16.6783121  66.9018774 113.0685129  17.5666954  67.4374040 114.1711759
   2.8218040  72.3424778 108.8995844   2.6863715  73.1876314 109.3280691
   3.3627853  72.5444056 108.1361777   2.2253341  59.8374237 123.1530455
   2.9663054  60.4381390 123.0734918   2.4571264  59.0951875 122.5948498
   4.4486517  72.9648344 123.0296186   4.0050371  72.1784723 122.7117090
   5.1103730  73.1527495 122.3640077   6.5467755  73.2451144 121.0577587
   6.5286230  74.0660025 120.5657856   7.4687675  73.1205220 121.2827728
   3.0040809  70.7595274 121.9001095   3.5369146  69.9983562 121.6700403
   2.4754890  70.4668926 122.6425250   6.1710504  55.8655340 117.4294737
   5.8274773  56.7556982 117.3533848   6.5389467  55.6756997 116.5664322
   6.1360787  65.8563951 105.9367172   5.6207410  66.6268556 106.1755560
   5.8638095  65.1829087 106.5600234   3.7207898  60.7013652 110.9952411
   2.8649494  60.3120502 110.8158049   4.1334849  60.7805613 110.1352196
   5.2507044  58.2359995 115.3943970   4.7471840  58.1990130 114.5811776
   5.5437651  59.1452738 115.4540627   1.4949930  58.3198725 114.4010152
   2.3602927  58.1241533 114.0416042   1.5627439  58.0909076 115.3279509
  11.1095061  68.6096306 107.8720346  10.3324504  68.2707465 107.4275508
  11.7886542  68.6148929 107.1975311   5.9247090  63.7291043 107.7626953
   5.6197225  64.0437192 108.6137097   6.8777532  63.8072463 107.8054286
   4.3693522  69.8881266 109.4119907   3.8414883  69.1534026 109.0993145
   3.8681024  70.6655943 109.1659876   9.3486368  68.0830287 114.5286954
   8.6910042  68.7729548 114.6167082  10.1526767  68.4726719 114.8720940
   8.1591827  66.4374660 112.5790895   8.6723708  67.0704651 113.0812605
   8.8093050  65.8375855 112.2134255   1.4034917  57.4242182 110.5001588
   0.7499329  57.1091199 109.8758203   1.3615391  56.8017922 111.2261411
   2.5146122  67.7061477 102.4154880   1.6073184  67.4750730 102.6146029
   3.0117154  66.9099096 102.6028862   5.4214201  76.4158984 105.3351567
   4.7475900  76.7190681 105.9436524   5.8080023  77.2188064 104.9857024
   4.6372657  63.9124115 114.8249236   3.7195219  64.1339062 114.6670924
   5.0532801  63.9870426 113.9660943   5.4207705  65.3115531 109.9551916
   6.1679524  65.8236928 109.6459038   5.6899295  64.9899584 110.8156310
   3.6934355  67.8074072 106.9378871   2.7845575  67.5233104 107.0351340
   3.7229439  68.2273150 106.0782177   8.9253623  71.4180661 110.7070038
   8.4715950  70.5771571 110.7635229   8.2947589  72.0542059 111.0444818
   7.8686542  62.3472647 111.9370706   7.1309299  61.8350033 112.2680948
   8.1213316  61.9073029 111.1253982   7.3686562  73.2557158 111.6419856
   7.6609536  73.8162215 110.9232222   7.8785183  73.5485719 112.3973015
   7.9698170  55.1248899 112.5312475   8.2757046  54.2646262 112.2438390
   8.6950774  55.7166519 112.3311469   2.2419249  65.4202692 113.0388666
   2.2967859  64.4676529 112.9631142   1.4310451  65.5762131 113.5229964
   3.3910443  69.3482815 104.2766949   2.9529873  68.6318674 103.8172586
   4.1320884  69.5758930 103.7152040   2.3320187  74.0337509 112.7313309
   2.2896366  74.2598355 111.8021841   3.2482886  73.8000883 112.8799111
   5.7785821  64.5021576 119.6293939   6.1335209  64.7293049 120.4888404
   6.4257952  64.8339953 119.0071194  11.5083558  67.6240012 110.3343268
  11.3701456  67.8141608 109.4064457  11.1519777  68.3859395 110.7911319
  11.5352938  69.6916539 115.3454539  11.9689444  69.5991828 116.1937593
  12.2484518  69.6674040 114.7074555   5.2680832  73.2918633 116.8787640
   5.3217855  73.8609570 117.6465356   4.3995614  73.4620518 116.5141677
  12.3968487  69.7340240 117.8787425  12.5904377  70.6386050 118.1246699
  12.2969105  69.2747659 118.7126010   4.0504798  59.6198130 120.3777752
   3.4032713  60.3188080 120.2842228   4.8205813  60.0534274 120.7454000
   7.4583596  69.8846983 123.4528305   7.3069102  69.6557534 122.5358389
   7.4488275  70.8417584 123.4659650   4.2268932  67.4578895 118.4374572
   5.1560992  67.6090055 118.2643539   3.8059962  67.5462916 117.5823218
   3.0257264  71.4829560 116.2073109   2.8868350  71.1148344 117.0799047
   2.2371860  71.9977199 116.0357067   3.6205416  76.5838656 107.5498646
   3.7957172  76.1126699 108.3644268   2.9338204  77.2104422 107.7779906
   4.5762479  70.8611162 113.5961947   4.2412312  70.8211932 114.4919597
   4.0766425  70.1955878 113.1232357   7.5121671  68.2067197 103.8699007
   6.8950841  67.4814025 103.7732059   7.0438159  68.9676557 103.5266081
   1.1789024  65.9798752 118.6098208   1.8888642  65.3391944 118.5684826
   1.1358332  66.2311647 119.5324389   9.1675802  72.9166105 121.5304787
   9.1088349  72.2325325 120.8635370   9.5695321  73.6585095 121.0785413
   9.1693210  70.8805689 119.7618767   8.2819988  70.5431611 119.8845166
   9.7391761  70.1488720 119.9987532   2.6994363  75.5407141 116.7280010
   2.6264535  76.3462113 117.2399314   2.2571756  75.7399107 115.9028031
   2.4884143  74.7778911 110.2382831   1.7051665  75.3200592 110.3321056
   3.1876888  75.2952891 110.6377073   5.7980793  60.5873541 112.8817037
   6.2949492  59.8343503 112.5618107   5.0267774  60.6237858 112.3160246
  13.6510550  66.2913906 114.5235328  13.6400426  67.1738622 114.1529261
  12.7827930  65.9385457 114.3289865   5.1593047  75.4393975 118.8838169
   5.8721019  76.0741440 118.8114070   4.6683075  75.5357841 118.0678170
   6.8810573  69.3445228 110.4555460   5.9466852  69.4646691 110.2860165
   7.0587242  68.4417695 110.1915470   2.3815762  62.7290924 112.6088721
   2.0113549  62.1761964 113.2969627   2.8774854  62.1249057 112.0563721
  10.2683125  65.1862547 110.9905494  10.7343577  66.0190539 110.9165797
  10.7190625  64.7207529 111.6950753   8.3359356  71.5306369 107.9891646
   8.6119200  71.4162963 108.8985521   7.4663855  71.1323854 107.9503820
   8.2399788  57.5543134 115.0296396   7.3262867  57.7847361 115.1978603
   8.6692889  57.6381578 115.8810428   8.0106246  65.7433026 117.5296290
   7.3577696  65.9908934 116.8748743   8.3886626  64.9297165 117.1958767
   4.9713420  75.7792720 111.6324460   5.1535814  74.9614376 112.0952212
   5.7946406  75.9960412 111.1949350   5.3055585  74.7060905 108.8939509
   5.8343352  74.1953359 108.2809671   5.5683805  74.3903435 109.7585042
   4.0593819  66.4852837 124.0162327   3.3834456  66.3846967 124.6864702
   4.8821453  66.3292051 124.4798324   2.8016602  77.7919765 118.2519943
   3.3534910  77.9551386 119.0169028   3.1422795  78.3824203 117.5799968
   7.6527476  72.6181022 124.1068597   8.1967380  73.2310981 123.6123552
   7.0714321  73.1760601 124.6235610   5.9384989  75.7401740 115.2383625
   5.8136129  74.9391480 114.7294570   6.5964080  76.2347934 114.7497595
   8.0019898  73.5410761 116.8663175   7.0550233  73.4216112 116.7941502
   8.3502671  72.6533259 116.9489437   5.0066331  73.3363477 113.0667527
   4.8591293  72.4080184 113.2475097   5.8319824  73.3583567 112.5824603
   8.6100453  74.1592035 114.1532400   9.5347000  73.9534897 114.0156851
   8.4415756  73.9108437 115.0621742   1.5672016  60.3718595 118.3751088
   1.2268836  59.5726408 118.7771767   0.8611022  60.6720305 117.8027921
   2.2188488  57.4567907 116.8278411   3.0414557  56.9828385 116.7057301
   2.4626551  58.2358391 117.3277097   5.0027845  61.1901314 108.0599645
   5.2191460  62.0725952 107.7588473   4.5221912  60.7987528 107.3305287
   1.6023450  61.1389576 114.6851279   1.5885018  60.2430669 114.3483577
   2.3195878  61.1460239 115.3189565   3.4549580  61.5726916 116.7304406
   3.1967358  62.4943986 116.7288737   2.9234621  61.1757350 117.4204870
   8.3995769  74.6777703 109.5094492   8.5732647  74.1124125 108.7568344
   8.8924660  75.4778598 109.3273981   1.0060345  60.0203956 109.9538849
   1.1276257  59.0920602 110.1529736   0.7162388  60.0342642 109.0417164
   3.8751536  57.7058866 113.0905569   3.8973233  57.7698199 112.1357548
   4.2919595  56.8663375 113.2846075  14.2535160  67.4414126 111.1284791
  14.6966306  66.6921451 110.7303915  13.3761670  67.4324262 110.7458523
   9.3870941  73.9944467 106.6091390  10.0821846  74.6151160 106.8278704
   9.7294092  73.1439819 106.8843768  11.2862365  71.4444173 108.1378721
  11.8113689  71.7831446 107.4128041  11.1984717  70.5091188 107.9541855
   2.9482413  75.3578246 120.2668597   3.2569540  75.1127393 121.1391297
   3.7457895  75.5624885 119.7787467   2.9703025  77.5116156 112.4973974
   2.5308016  77.0192535 113.1906830   3.7211142  76.9689124 112.2566049
   0.4901425  61.5335953 124.1628781   0.5389580  62.4098076 123.7806551
   1.0323939  60.9913346 123.5900425  10.9756271  72.0777076 123.4429919
  10.1851814  72.0601215 122.9034418  10.7389625  72.6165370 124.1978955
  11.0954146  68.9269543 120.7562647  11.1452151  68.7619550 121.6978170
  10.9868069  68.0596802 120.3660528   8.3857908  64.9100471 122.0721954
   9.2867771  64.7706936 121.7805952   8.4605883  65.0754926 123.0120131
   2.7200713  62.2867326 120.9175140   1.8504023  62.5800892 120.6457729
   2.9560194  62.8707771 121.6382404  12.5972343  71.3466484 121.0004669
  12.3057151  71.7096465 121.8368130  11.9844474  70.6333493 120.8218001
  13.7968025  68.9119364 113.5207239  14.6314916  69.3509168 113.6844799
  13.9327154  68.4358017 112.7015485  10.8459531  66.4699099 119.4684727
  11.3213652  66.6626745 118.6603578   9.9225096  66.5258285 119.2228110
   5.4239747  58.5046943 118.4340560   5.9421691  59.2407969 118.1087049
   5.0694880  58.8110936 119.2687320   5.6752341  54.9247225 113.9541457
   5.9554095  54.2570414 114.5801884   6.4602948  55.1176321 113.4416121
   3.4785810  74.1006219 105.5166483   2.9059777  74.7196406 105.0636955
   4.0518604  74.6505581 106.0506405   9.5461200  63.3464859 117.7013032
  10.4978623  63.4462957 117.7225256   9.3764650  62.5543128 118.2111117
   7.5675579  60.4320442 117.8872433   6.9725511  60.7125455 117.1918922
   7.2825276  60.9214343 118.6589174   6.6983070  74.3843369 106.6475066
   7.6313743  74.3188931 106.8507941   6.6106283  75.2199636 106.1889598
   9.3271086  73.7009239 103.6079013   9.2484718  73.3669103 104.5014771
  10.1480753  74.1931007 103.6070486  12.0249278  66.5670979 116.8155332
  11.9925598  65.6286980 117.0015016  12.6349901  66.6455015 116.0821157
   3.8632608  65.4367032 102.8582536   4.8091713  65.3073240 102.9270954
   3.4846853  64.6981694 103.3351964  12.1743766  63.3582022 116.8613615
  11.6582815  62.5740479 116.6743544  13.0583715  63.0300739 117.0260134
   9.8354493  57.1023038 112.8209428   9.6379314  56.7938126 113.7052760
  10.4454199  57.8284677 112.9507358  17.8425827  67.6286986 115.9561369
  18.5729216  67.3672274 116.5169072  17.2332773  66.8915708 115.9963437
  15.9241125  65.7694848 116.5535820  15.1974288  65.6350813 115.9452311
  15.5088411  66.0771677 117.3592538   3.7471301  69.4884778 124.3183193
   4.6674310  69.6663377 124.5123239   3.7120884  68.5440823 124.1662892
   2.0475526  63.3617008 102.7937421   1.1406981  63.0650121 102.8700135
   2.3251507  63.0646826 101.9271707   3.6637591  57.9053898 108.9481662
   2.8538320  57.5600983 109.3236908   4.3522008  57.5961442 109.5369274
   5.5928140  56.9831945 110.5705959   6.1459178  57.4027398 111.2295982
   5.8298226  56.0567693 110.6128915   1.6161239  62.9719018 126.3508723
   1.5157966  63.9213375 126.2820814   1.3982781  62.6437257 125.4784793
   0.8174310  60.2203943 102.9349400   1.6793474  60.5458842 103.1945218
   1.0024654  59.4335439 102.4222466   8.9706947  59.0932470 110.0784623
   8.3905616  59.7517274 109.6962676   8.7042879  58.2709814 109.6672041
   7.4210513  58.4937528 112.2805944   7.9210291  58.6054062 111.4720262
   8.0646121  58.1898580 112.9206752   1.4792509  66.4016157 125.1673785
   0.9959591  67.2016517 125.3737674   1.5653448  66.4124102 124.2141229
   7.7531825  61.2532560 109.1340972   6.8657680  61.5382211 108.9161166
   8.1685814  61.0926324 108.2868248  11.1046361  61.2779081 112.8495311
  11.8806751  61.7675534 113.1219928  10.3794495  61.7037135 113.3067180
  13.5418919  61.9906700 113.9069251  14.1363410  61.7502436 113.1962560
  13.6145503  61.2713831 114.5342788   6.8975038  71.0177235 103.2288992
   7.6010888  71.2227237 103.8446647   6.1737687  71.5853997 103.4938075
   7.7272848  66.7687096 109.3491262   7.6708050  67.2255648 108.5098894
   8.2801191  66.0077781 109.1714104  11.5377654  62.5576828 110.1741381
  11.2814589  62.1573464 111.0049589  10.9130522  63.2720622 110.0491520
  15.8489992  65.2972901 112.6812673  15.2889550  65.3666091 113.4544235
  15.2433496  65.1213886 111.9612169   8.8061736  71.4559764 105.2787452
   9.6407340  71.0240963 105.0964926   8.6446078  71.2841778 106.2064346
   8.4607628  67.9591877 106.6443791   8.4056432  67.7936149 105.7032235
   7.8353683  68.6667910 106.8005981   5.7753535  70.2640789 125.9697354
   6.6444695  70.4381442 125.6083989   5.2960286  71.0835206 125.8473083
   1.7703753  57.4599986 106.2229109   1.7582423  58.4041826 106.3797380
   2.6627175  57.2770132 105.9288570   1.6993317  76.1368877 114.3096866
   0.7488948  76.1370738 114.1961238   2.0025803  75.3901611 113.7932901
   5.5855873  54.0542763 110.4775046   4.8188268  53.5001250 110.6231728
   5.9966578  54.1264632 111.3389198  17.4346011  81.9729415 115.3742628
  18.0724421  81.8536163 114.6705968  17.3166854  82.9210259 115.4330580
  14.2435717  81.9256843 115.3104153  13.9054228  81.8097908 114.4224688
  15.1125485  81.5248008 115.2905159  10.1022533  83.7792320 111.3001044
   9.5387398  83.6882257 110.5317332   9.9874928  82.9592224 111.7803537
  14.7255500  83.0791695 121.2690359  14.7144141  82.6844493 120.3970862
  14.8876139  82.3457768 121.8624130   7.6486965  85.2743511 114.1385264
   8.4408256  84.9334336 113.7231564   7.8883615  85.3838486 115.0587418
  15.6822091  87.4463287 106.6115509  15.0310071  88.0317368 106.2249523
  16.4766454  87.9769482 106.6710546   9.6077719  84.5352425 107.0102643
  10.3808595  83.9881412 106.8715519   9.9603117  85.3996674 107.2217105
  11.4462761  85.8628807 120.2169543  11.1552627  86.7674438 120.1016209
  12.0819745  85.9045334 120.9313612  12.3718968  83.2405655 116.8070902
  12.9682540  83.0161678 116.0927865  12.4293939  82.4990401 117.4096350
  11.9443996  80.6945091 104.6421093  12.1969517  80.1726612 103.8804556
  11.0068555  80.5311236 104.7447777  16.9887279  79.6980869 112.4495836
  17.7750368  79.2800292 112.0986253  17.2525983  80.6026961 112.6177485
  17.1597356  85.1353719 107.1484493  16.5243189  85.2088346 107.8605398
  16.8294763  85.7247318 106.4703572  22.3895706  79.6356102 113.3528815
  23.1220878  79.0655319 113.5866644  21.6335062  79.2477703 113.7935320
  11.6640285  82.5973197 106.8445468  11.5476543  81.9218100 107.5126552
  11.7742545  82.1105571 106.0277621  14.0071826  82.0583344 110.5492157
  13.6430033  81.5313965 111.2605079  14.8638942  81.6681813 110.3758643
  19.9121127  73.3477676 117.8123423  19.5804451  74.2173087 117.5884638
  19.3166740  73.0313960 118.4917454  13.6477313  77.0873243 105.5453506
  13.8151715  77.9553480 105.9123977  13.4574482  77.2500525 104.6214795
  16.4052646  85.5490222 117.2119336  16.1053369  86.4515261 117.1035143
  16.0603706  85.2822406 118.0640489   9.8565128  82.0004019 113.2456041
   8.9315624  81.8680233 113.4533732  10.1049541  82.7798238 113.7425983
  19.8049790  78.0672763 114.8916774  18.8966667  77.9988171 114.5975535
  19.7537386  78.5444707 115.7198599  13.6266534  79.5430901 106.5300173
  13.5066159  79.9887952 107.3685653  12.9319122  79.8916219 105.9713711
   7.2173939  81.6437293 114.0799830   7.3466320  81.8971772 114.9939241
   6.5371390  82.2365001 113.7604485  11.3873426  92.3134543 110.1790304
  11.3097456  93.2642368 110.2578784  10.7835070  91.9680415 110.8365230
  13.8790656  79.4862408 122.8351671  13.1023990  80.0456328 122.8254535
  14.5181219  79.9719191 123.3566541  21.6711436  76.2689201 116.6694647
  21.0285817  76.5621734 116.0234442  21.1666365  76.1542121 117.4747844
  19.3251600  80.0152374 107.3580507  20.2369456  80.2479761 107.1828204
  18.8161247  80.5989418 106.7955585  12.1337028  82.2947861 122.3969638
  12.8751712  82.8332905 122.1204461  11.4274014  82.9214150 122.5541190
  17.6092368  84.4377002 120.9941799  18.0175724  83.9959412 120.2496432
  16.8869629  83.8629629 121.2475992  13.9623438  79.3749609 118.3675356
  14.8084633  79.7989022 118.5110005  13.9022075  78.7183233 119.0613919
  17.9321182  84.9978193 114.7494088  17.3030045  85.1623907 114.0470156
  17.5446844  85.4119802 115.5205052  21.8110414  85.9332630 112.1038452
  21.1261452  86.3131532 111.5535485  21.8954264  86.5427957 112.8370400
  17.1122883  77.0353977 120.0256530  16.8683815  77.7896038 119.4890806
  17.3882814  77.4139325 120.8603777  19.0661346  83.5792589 118.7033795
  19.2778241  84.2224349 118.0268177  19.0191094  82.7454906 118.2355726
  16.6687575  76.1910410 115.6070368  15.8072054  76.4891664 115.8987105
  16.6950009  76.4080809 114.6751400  13.4849144  84.7352601 112.0144173
  13.9487490  85.0140304 111.2248796  13.2205942  83.8336045 111.8317264
  10.3773225  84.2824082 114.9523937  10.9474582  84.7111351 114.3141421
  10.9681337  84.0006667 115.6508122  12.4218030  80.8575753 108.8233738
  13.1242074  81.3096797 109.2907665  12.0898659  80.2159572 109.4513632
  10.8698392  79.4487510 123.1984948  10.2397052  80.1303791 123.4320345
  10.7634480  79.3370591 122.2538086   6.1643364  79.1159306 114.1250872
   5.3742418  79.3716834 113.6490983   6.6554612  79.9307644 114.2302913
  20.1807174  86.4564545 116.8756153  21.0024618  86.0544732 116.5938834
  20.1769577  86.3532779 117.8272269   8.1158110  79.4803885 111.0834349
   7.3189273  79.5922579 111.6017844   7.8883702  79.8190537 110.2175239
  13.9463777  86.0048588 119.0316863  14.0108210  86.4668995 119.8675035
  13.2374701  85.3745953 119.1599173   4.4481067  79.3689796 116.5565863
   4.6989106  80.2536806 116.8223439   4.9840616  79.1894398 115.7840955
  28.2713167  82.8003293 113.2241124  27.5176875  82.2310691 113.0685129
  28.4060708  82.7665958 114.1711759  13.6611795  87.6716696 108.8995844
  13.5257470  88.5168231 109.3280691  14.2021607  87.8735973 108.1361777
  10.1479135  73.7508275 125.5610199   9.7546080  73.1974474 126.2357843
  10.9645275  74.0618854 125.9516716   7.1141192  85.1892134 109.4723769
   7.6265713  85.9835384 109.6229333   7.7663905  84.4918424 109.4057370
   8.9236077  88.3057890 111.5546522   9.1002705  89.2275855 111.3667506
   9.7192910  87.9916309 111.9840902  13.0647096  75.1666155 123.1530455
  13.8056809  75.7673308 123.0734918  13.2965018  74.4243792 122.5948498
   8.2088434  80.3522522 121.4308685   8.0941949  79.4507779 121.7315784
   7.3532951  80.5986219 121.0793502  15.2880271  88.2940262 123.0296186
  14.8444125  87.5076641 122.7117090  15.9497485  88.4819413 122.3640077
  10.0467392  89.8236064 117.5556864  10.5974818  89.6953127 116.7833858
   9.2078868  90.1230953 117.2051757  17.3861509  88.5743062 121.0577587
  17.3679985  89.3951943 120.5657856  18.3081429  88.4497137 121.2827728
  13.8434563  86.0887192 121.9001095  14.3762900  85.3275480 121.6700403
  13.3148645  85.7960843 122.6425250  17.0104258  71.1947258 117.4294737
  16.6668528  72.0848899 117.3533848  17.3783221  71.0048915 116.5664322
   5.0790109  83.5180788 110.2483339   5.9165331  83.9277796 110.0317047
   5.2568377  82.5780230 110.2183533  16.9754541  81.1855869 105.9367172
  16.4601165  81.9560473 106.1755560  16.7031850  80.5121005 106.5600234
  14.5601652  76.0305569 110.9952411  13.7043249  75.6412420 110.8158049
  14.9728604  76.1097530 110.1352196  16.0900799  73.5651913 115.3943970
  15.5865594  73.5282048 114.5811776  16.3831406  74.4744655 115.4540627
  12.3343685  73.6490642 114.4010152  13.1996681  73.4533451 114.0416042
  12.4021194  73.4200994 115.3279509  21.9488815  83.9388223 107.8720346
  21.1718258  83.5999383 107.4275508  22.6280296  83.9440846 107.1975311
  16.7640844  79.0582961 107.7626953  16.4590980  79.3729110 108.6137097
  17.7171286  79.1364381 107.8054286  15.2087276  85.2173184 109.4119907
  14.6808638  84.4825944 109.0993145  14.7074779  85.9947860 109.1659876
  20.1880122  83.4122205 114.5286954  19.5303797  84.1021466 114.6167082
  20.9920521  83.8018636 114.8720940   9.9406004  75.8792850 111.7726519
  10.5149756  75.6568032 111.0399712  10.5276986  75.9481545 112.5255120
  18.9985581  81.7666577 112.5790895  19.5117463  82.3996569 113.0812605
  19.6486805  81.1667773 112.2134255  10.2675591  77.9097311 105.7922404
   9.4312903  78.2471998 106.1131679  10.1280361  77.7746291 104.8549541
  12.2428672  72.7534099 110.5001588  11.5893084  72.4383116 109.8758203
  12.2009146  72.1309840 111.2261411  13.3539876  83.0353394 102.4154880
  12.4466938  82.8042648 102.6146029  13.8510908  82.2391014 102.6028862
  16.2607955  91.7450901 105.3351567  15.5869654  92.0482598 105.9436524
  16.6473777  92.5479982 104.9857024  15.4766412  79.2416033 114.8249236
  14.5588973  79.4630980 114.6670924  15.8926555  79.3162343 113.9660943
  16.2601460  80.6407448 109.9551916  17.0073279  81.1528846 109.6459038
  16.5293049  80.3191501 110.8156310  14.5328110  83.1365989 106.9378871
  13.6239329  82.8525022 107.0351340  14.5623194  83.5565068 106.0782177
  19.7647377  86.7472579 110.7070038  19.3109704  85.9063489 110.7635229
  19.1341344  87.3833977 111.0444818  18.7080297  77.6764565 111.9370706
  17.9703054  77.1641951 112.2680948  18.9607070  77.2364946 111.1253982
  18.2080316  88.5849075 111.6419856  18.5003291  89.1454132 110.9232222
  18.7178937  88.8777636 112.3973015  18.8091924  70.4540817 112.5312475
  19.1150801  69.5938180 112.2438390  19.5344529  71.0458437 112.3311469
   5.1016280  80.8571503 110.9194073   4.9040680  80.2640864 110.1945139
   4.5462944  80.5523713 111.6370012  13.0813004  80.7494610 113.0388666
  13.1361614  79.7968446 112.9631142  12.2704206  80.9054049 113.5229964
  14.2304198  84.6774733 104.2766949  13.7923628  83.9610592 103.8172586
  14.9714638  84.9050848 103.7152040  11.0205364  79.3671670 110.7979045
  10.2073229  79.6665840 111.2044237  11.5164358  78.9727358 111.5153527
  13.1713942  89.3629426 112.7313309  13.1290120  89.5890273 111.8021841
  14.0876641  89.1292801 112.8799111  16.6179575  79.8313494 119.6293939
  16.9728963  80.0584967 120.4888404  17.2651707  80.1631871 119.0071194
  22.3477312  82.9531930 110.3343268  22.2095211  83.1433526 109.4064457
  21.9913531  83.7151313 110.7911319  10.5119439  76.9390025 116.4140280
  11.1518818  76.7978784 115.7163243   9.6796969  76.6524538 116.0378882
  22.3746692  85.0208457 115.3454539  22.8083199  84.9283746 116.1937593
  23.0878273  84.9965957 114.7074555  11.2879742  86.2392455 112.5275272
  12.0820341  85.7442776 112.3257847  10.5771435  85.7110319 112.1642978
  16.1074587  88.6210551 116.8787640  16.1611609  89.1901487 117.6465356
  15.2389368  88.7912436 116.5141677   7.5962506  80.3835537 108.6035025
   6.6660094  80.3219993 108.8204987   7.6919978  79.8611490 107.8071666
   7.5148055  76.9090350 111.1913266   7.7754872  77.8235683 111.0822427
   8.3365227  76.4414793 111.3409879   8.9872980  78.3228107 118.3612091
   9.6596034  78.1145469 117.7124740   8.1602767  78.1250193 117.9217323
  23.2362242  85.0632158 117.8787425  23.4298132  85.9677968 118.1246699
  23.1362860  84.6039577 118.7126010  14.8898552  74.9490048 120.3777752
  14.2426467  75.6479998 120.2842228  15.6599568  75.3826192 120.7454000
  18.2977350  85.2138900 123.4528305  18.1462857  84.9849452 122.5358389
  18.2882030  86.1709502 123.4659650  15.0662687  82.7870813 118.4374572
  15.9954747  82.9381973 118.2643539  14.6453717  82.8754834 117.5823218
  13.8651018  86.8121477 116.2073109  13.7262104  86.4440262 117.0799047
  13.0765615  87.3269117 116.0357067  14.4599170  91.9130574 107.5498646
  14.6350926  91.4418617 108.3644268  13.7731958  92.5396340 107.7779906
  15.4156234  86.1903080 113.5961947  15.0806066  86.1503850 114.4919597
  14.9160179  85.5247796 113.1232357   9.3900478  81.5970710 119.1214528
   9.2520275  80.8650949 119.7226067  10.3005401  81.5079610 118.8398716
  18.3515425  83.5359114 103.8699007  17.7344596  82.8105943 103.7732059
  17.8831914  84.2968475 103.5266081  12.0182778  81.3090670 118.6098208
  12.7282397  80.6683862 118.5684826  11.9752086  81.5603564 119.5324389
  20.0069557  88.2458023 121.5304787  19.9482103  87.5617243 120.8635370
  20.4089075  88.9877013 121.0785413  10.7311712  78.2955887 120.4293847
  10.1949069  77.8446626 121.0815444  10.1428421  78.4301796 119.6864312
   9.0260256  95.0619937 114.3238506   9.2656854  95.6938461 115.0017524
   8.1829452  94.7107977 114.6103865  10.1413971  77.7544539 102.9920311
   9.2643437  77.6333340 102.6282558  10.6171724  76.9630617 102.7399200
  20.0086964  86.2097607 119.7618767  19.1213743  85.8723529 119.8845166
  20.5785515  85.4780638 119.9987532   1.6616111  82.5421699 113.0861818
   2.3487151  82.2283429 112.4982833   1.5064240  83.4463063 112.8129070
   6.4650833  77.4311895 117.5146842   6.3809022  76.8237565 116.7797252
   5.6433540  77.9220913 117.5156338  13.5388118  90.8699059 116.7280010
  13.4658289  91.6754031 117.2399314  13.0965511  91.0691025 115.9028031
  13.3277897  90.1070829 110.2382831  12.5445419  90.6492509 110.3321056
  14.0270642  90.6244809 110.6377073  16.6374547  75.9165459 112.8817037
  17.1343247  75.1635421 112.5618107  15.8661529  75.9529775 112.3160246
  24.4904305  81.6205824 114.5235328  24.4794181  82.5030540 114.1529261
  23.6221684  81.2677375 114.3289865  15.9986801  90.7685893 118.8838169
  16.7114773  91.4033358 118.8114070  15.5076830  90.8649759 118.0678170
  17.7204328  84.6737146 110.4555460  16.7860607  84.7938608 110.2860165
  17.8980996  83.7709613 110.1915470  13.2209516  78.0582842 112.6088721
  12.8507304  77.5053882 113.2969627  13.7168608  77.4540975 112.0563721
  21.1076879  80.5154465 110.9905494  21.5737332  81.3482457 110.9165797
  21.5584380  80.0499447 111.6950753  11.0498715  88.5180337 119.7043739
  11.7508174  89.1516820 119.8573134  10.5793830  88.8595068 118.9439379
  19.1753110  86.8598286 107.9891646  19.4512954  86.7454881 108.8985521
  18.3057609  86.4615771 107.9503820  19.0793542  72.8835052 115.0296396
  18.1656622  73.1139279 115.1978603  19.5086644  72.9673496 115.8810428
  18.8500001  81.0724944 117.5296290  18.1971451  81.3200852 116.8748743
  19.2280380  80.2589082 117.1958767  15.8107174  91.1084637 111.6324460
  15.9929569  90.2906293 112.0952212  16.6340160  91.3252330 111.1949350
  16.1449340  90.0352822 108.8939509  16.6737106  89.5245277 108.2809671
  16.4077560  89.7195353 109.7585042  14.8987574  81.8144755 124.0162327
  14.2228211  81.7138884 124.6864702  15.7215207  81.6583969 124.4798324
   6.6466433  88.0516692 116.6374842   7.2319869  87.3060380 116.7702746
   6.4491271  88.3620648 117.5211506   9.5005088  91.0867939 111.6537284
   8.8315463  91.5714067 111.1701325   9.3617958  91.3337160 112.5680663
   1.2384087  80.6222292 115.3579285   1.2768187  80.0885883 116.1516403
   0.7324380  80.0957497 114.7390262  13.6410356  93.1211683 118.2519943
  14.1928664  93.2843304 119.0169028  13.9816550  93.7116120 117.5799968
   8.6174850  75.4686832 118.8541828   8.6816176  76.3301663 118.4419225
   8.5541970  74.8560834 118.1214186   8.0927122  77.5409965 122.5014862
   8.7199161  77.1587042 123.1152386   7.2355041  77.3224167 122.8670554
  18.4921231  87.9472940 124.1068597  19.0361135  88.5602898 123.6123552
  17.9108076  88.5052519 124.6235610   4.8692665  79.3486394 108.4333217
   5.1646106  78.4397072 108.3800270   3.9680701  79.3274133 108.1114219
  16.7778744  91.0693658 115.2383625  16.6529883  90.2683398 114.7294570
  17.4357835  91.5639851 114.7497595   8.3986912  77.4242391 114.4160765
   7.6773498  78.0378358 114.2768239   9.1880168  77.9600155 114.3377411
  18.8413652  88.8702678 116.8663175  17.8943988  88.7508029 116.7941502
  19.1896425  87.9825176 116.9489437  11.2013225  74.7596817 120.6901417
  11.7247627  75.0059114 121.4527726  10.9825559  75.5916852 120.2704554
   6.5980507  77.0300492 108.5572542   6.2693213  76.1497871 108.3747648
   6.9519877  76.9748160 109.4448931  15.8460085  88.6655394 113.0667527
  15.6985048  87.7372102 113.2475097  16.6713579  88.6875485 112.5824603
   9.7122330  77.3173461 108.9248019  10.0518402  77.8459383 108.2026628
  10.1594450  77.6553868 109.7006586  19.4494207  89.4883953 114.1532400
  20.3740755  89.2826814 114.0156851  19.2809511  89.2400354 115.0621742
  12.4065771  75.7010512 118.3751088  12.0662591  74.9018325 118.7771767
  11.7004777  76.0012223 117.8027921  13.0582242  72.7859825 116.8278411
  13.8808312  72.3120303 116.7057301  13.3020306  73.5650308 117.3277097
  11.6990477  75.8148083 107.1241312  12.4198839  76.1929336 106.6205029
  11.0755781  76.5336960 107.2276290  15.8421600  76.5193232 108.0599645
  16.0585214  77.4017870 107.7588473  15.3615667  76.1279445 107.3305287
  10.5820821  79.4778945 114.6370389  10.4365402  79.7919248 115.5294671
  10.1046025  80.0963846 114.0841288  12.4417204  76.4681493 114.6851279
  12.4278773  75.5722587 114.3483577  13.1589632  76.4752157 115.3189565
  14.2943335  76.9018833 116.7304406  14.0361113  77.8235904 116.7288737
  13.7628375  76.5049268 117.4204870  19.2389523  90.0069621 109.5094492
  19.4126401  89.4416043 108.7568344  19.7318415  90.8070515 109.3273981
   5.0566483  82.0184290 117.5758050   4.5119951  82.7944098 117.7078325
   5.9345833  82.3655094 117.4177172  11.8454100  75.3495874 109.9538849
  11.9670011  74.4212520 110.1529736  11.5556142  75.3634560 109.0417164
  14.7145290  73.0350784 113.0905569  14.7366987  73.0990117 112.1357548
  15.1313349  72.1955293 113.2846075  25.0928915  82.7706044 111.1284791
  25.5360061  82.0213369 110.7303915  24.2155425  82.7616180 110.7458523
  20.2264696  89.3236385 106.6091390  20.9215601  89.9443078 106.8278704
  20.5687846  88.4731736 106.8843768   5.8432505  81.1454186 120.4688207
   5.1014241  81.2936821 121.0552838   5.5225249  81.4062452 119.6054957
  22.1256119  86.7736091 108.1378721  22.6507443  87.1123363 107.4128041
  22.0378472  85.8383106 107.9541855  13.7876168  90.6870164 120.2668597
  14.0963294  90.4419311 121.1391297  14.5851650  90.8916803 119.7787467
  13.8096780  92.8408074 112.4973974  13.3701770  92.3484452 113.1906830
  14.5604897  92.2981041 112.2566049   6.2889119  89.0319615 112.4998602
   7.1147139  88.7323387 112.1197245   5.9383171  88.2627237 112.9488390
  11.2570652  88.3846083 114.5696275  10.6350661  87.7216788 114.2698503
  11.9275519  88.4107215 113.8869923   4.4897724  86.9505941 113.4587535
   3.6529632  86.5228115 113.2771537   4.4621369  87.1438384 114.3958327
  11.3295179  76.8627871 124.1628781  11.3783335  77.7389994 123.7806551
  11.8717694  76.3205264 123.5900425  21.8150025  87.4068994 123.4429919
  21.0245569  87.3893133 122.9034418  21.5783380  87.9457288 124.1978955
  21.9347900  84.2561461 120.7562647  21.9845905  84.0911468 121.6978170
  21.8261824  83.3888720 120.3660528  10.8184159  86.9350006 108.0454736
  10.9672279  87.6185471 107.3921409  11.6250602  86.9155096 108.5604192
  19.2251663  80.2392389 122.0721954  20.1261525  80.0998853 121.7805952
  19.2999637  80.4046843 123.0120131  13.5594468  77.6159243 120.9175140
  12.6897777  77.9092809 120.6457729  13.7953948  78.1999688 121.6382404
  23.4366097  86.6758402 121.0004669  23.1450905  87.0388383 121.8368130
  22.8238228  85.9625410 120.8218001  24.6361779  84.2411282 113.5207239
  25.4708671  84.6801086 113.6844799  24.7720908  83.7649935 112.7015485
  21.6853285  81.7991017 119.4684727  22.1607407  81.9918663 118.6603578
  20.7618851  81.8550203 119.2228110   8.5736792  82.9615184 109.0515805
   8.3282834  82.0577514 109.2496015   8.7432706  82.9632334 108.1095283
  16.2633502  73.8338860 118.4340560  16.7815446  74.5699887 118.1087049
  15.9088635  74.1402854 119.2687320   7.8432439  78.6943541 106.5501966
   7.1501684  78.7687896 105.8942002   7.5984191  77.9303885 107.0723483
  16.5146096  70.2539143 113.9541457  16.7947850  69.5862332 114.5801884
  17.2996703  70.4468238 113.4416121  14.3179564  89.4298137 105.5166483
  13.7453532  90.0488324 105.0636955  14.8912358  89.9797498 106.0506405
  20.3854954  78.6756777 117.7013032  21.3372377  78.7754874 117.7225256
  20.2158405  77.8835045 118.2111117  18.4069334  75.7612360 117.8872433
  17.8119266  76.0417373 117.1918922  18.1219030  76.2506261 118.6589174
  17.5376824  89.7135287 106.6475066  18.4707497  89.6480848 106.8507941
  17.4500037  90.5491554 106.1889598  20.1664841  89.0301157 103.6079013
  20.0878472  88.6961021 104.5014771  20.9874508  89.5222925 103.6070486
  22.8643032  81.8962896 116.8155332  22.8319352  80.9578897 117.0015016
  23.4743656  81.9746933 116.0821157  14.7026363  80.7658949 102.8582536
  15.6485468  80.6365158 102.9270954  14.3240608  80.0273611 103.3351964
  23.0137521  78.6873940 116.8613615  22.4976569  77.9032397 116.6743544
  23.8977469  78.3592657 117.0260134  20.6748247  72.4314955 112.8209428
  20.4773069  72.1230044 113.7052760  21.2847953  73.1576594 112.9507358
  28.6819582  82.9578903 115.9561369  29.4122970  82.6964191 116.5169072
  28.0726527  82.2207625 115.9963437  26.7634879  81.0986766 116.5535820
  26.0368043  80.9642731 115.9452311  26.3482166  81.4063594 117.3592538
  14.5865055  84.8176696 124.3183193  15.5068065  84.9955295 124.5123239
  14.5514638  83.8732741 124.1662892  12.8869280  78.6908926 102.7937421
  11.9800735  78.3942039 102.8700135  13.1645261  78.3938744 101.9271707
   3.8047220  80.0115289 113.2436467   3.4850005  79.1580597 112.9510842
   3.2580649  80.2263867 113.9994435   7.5827128  82.7277730 116.9605974
   7.8013138  83.6594838 116.9794008   7.9952902  82.3685705 117.7460778
  14.5031346  73.2345816 108.9481662  13.6932074  72.8892901 109.3236908
  15.1915763  72.9253359 109.5369274  16.4321894  72.3123862 110.5705959
  16.9852933  72.7319316 111.2295982  16.6691980  71.3859610 110.6128915
  12.4554993  78.3010936 126.3508723  12.3551720  79.2505293 126.2820814
  12.2376535  77.9729175 125.4784793  11.6568065  75.5495861 102.9349400
  12.5187229  75.8750759 103.1945218  11.8418409  74.7627357 102.4222466
   3.6735480  83.6318201 115.2129589   2.9798952  83.2172154 114.6999543
   4.4208471  83.6738737 114.6163008  19.8100701  74.4224387 110.0784623
  19.2299370  75.0809192 109.6962676  19.5436634  73.6001732 109.6672041
  18.2604268  73.8229445 112.2805944  18.7604046  73.9345980 111.4720262
  18.9039875  73.5190498 112.9206752  12.3186263  81.7308075 125.1673785
  11.8353345  82.5308435 125.3737674  12.4047202  81.7416020 124.2141229
   5.5872223  83.5636455 113.0895604   5.5642911  83.6624142 112.1377487
   5.8972859  84.4101605 113.4112770   8.2459601  85.6212610 117.2042218
   9.2002854  85.5896552 117.1372150   8.0472124  85.1603233 118.0192444
   8.8358983  84.1913726 119.7713016   9.6551872  84.6857804 119.7947853
   9.1095791  83.2745694 119.7430584  18.5925579  76.5824478 109.1340972
  17.7051434  76.8674129 108.9161166  19.0079568  76.4218241 108.2868248
  21.9440115  76.6070999 112.8495311  22.7200505  77.0967451 113.1219928
  21.2188249  77.0329053 113.3067180  24.3812674  77.3198618 113.9069251
  24.9757165  77.0794354 113.1962560  24.4539258  76.6005749 114.5342788
   6.6009830  91.1632229 114.2212416   6.4664298  90.4032630 113.6550414
   6.1841892  91.8873129 113.7541205  17.7368793  86.3469153 103.2288992
  18.4404643  86.5519155 103.8446647  17.0131441  86.9145914 103.4938075
  18.5666603  82.0979014 109.3491262  18.5101804  82.5547565 108.5098894
  19.1194945  81.3369698 109.1714104  22.3771409  77.8868746 110.1741381
  22.1208343  77.4865381 111.0049589  21.7524277  78.6012540 110.0491520
  26.6883747  80.6264819 112.6812673  26.1283305  80.6958008 113.4544235
  26.0827250  80.4505804 111.9612169   9.7578956  92.0601546 114.4330859
   9.6411340  93.0046979 114.3309549   8.9371402  91.7575108 114.8216658
  19.6455490  86.7851682 105.2787452  20.4801094  86.3532880 105.0964926
  19.4839833  86.6133695 106.2064346  19.3001382  83.2883795 106.6443791
  19.2450186  83.1228066 105.7032235  18.6747438  83.9959828 106.8005981
   4.0893897  78.5251859 120.4705213   4.7352761  78.0150813 120.9592438
   3.8811048  79.2620541 121.0448638  16.6147289  85.5932707 125.9697354
  17.4838449  85.7673359 125.6083989  16.1354041  86.4127124 125.8473083
  12.6097508  72.7891904 106.2229109  12.5976178  73.7333744 106.3797380
  13.5020930  72.6062049 105.9288570  10.7833470  92.7129808 117.6486787
  11.6860716  92.7453418 117.9653282  10.5570840  91.7830259 117.6633123
  12.5387072  91.4660794 114.3096866  11.5882703  91.4662656 114.1961238
  12.8419558  90.7193529 113.7932901  16.4249627  69.3834681 110.4775046
  15.6582023  68.8293167 110.6231728  16.8360332  69.4556549 111.3389198
   8.4291388  75.6719477 124.5680227   9.2922850  75.3156281 124.7783552
   7.8556799  75.3333371 125.2555632  28.2739765  97.3021333 115.3742628
  28.9118175  97.1828080 114.6705968  28.1560608  98.2502177 115.4330580
  25.0829471  97.2548761 115.3104153  24.7447983  97.1389826 114.4224688
  25.9519240  96.8539926 115.2905159  20.9416287  99.1084237 111.3001044
  20.3781152  99.0174174 110.5317332  20.8268682  98.2884142 111.7803537
  25.5649254  98.4083613 121.2690359  25.5537895  98.0136411 120.3970862
  25.7269894  97.6749685 121.8624130  18.4880719 100.6035429 114.1385264
  19.2802011 100.2626254 113.7231564  18.7277369 100.7130404 115.0587418
  26.5215846 102.7755205 106.6115509  25.8703826 103.3609285 106.2249523
  27.3160209 103.3061400 106.6710546  20.4471473  99.8644342 107.0102643
  21.2202349  99.3173329 106.8715519  20.7996872 100.7288592 107.2217105
  22.2856516 101.1920724 120.2169543  21.9946382 102.0966355 120.1016209
  22.9213500 101.2337252 120.9313612  23.2112722  98.5697573 116.8070902
  23.8076295  98.3453595 116.0927865  23.2687694  97.8282318 117.4096350
  22.7837751  96.0237008 104.6421093  23.0363272  95.5018530 103.8804556
  21.8462310  95.8603154 104.7447777  27.8281034  95.0272787 112.4495836
  28.6144123  94.6092210 112.0986253  28.0919738  95.9318879 112.6177485
  27.9991111 100.4645637 107.1484493  27.3636944 100.5380264 107.8605398
  27.6688517 101.0539236 106.4703572  33.2289461  94.9648020 113.3528815
  33.9614633  94.3947237 113.5866644  32.4728816  94.5769620 113.7935320
  22.5034040  97.9265114 106.8445468  22.3870298  97.2510018 107.5126552
  22.6136299  97.4397488 106.0277621  24.8465580  97.3875261 110.5492157
  24.4823788  96.8605882 111.2605079  25.7032696  96.9973730 110.3758643
  30.7514881  88.6769594 117.8123423  30.4198206  89.5465005 117.5884638
  30.1560495  88.3605878 118.4917454  24.4871067  92.4165161 105.5453506
  24.6545470  93.2845398 105.9123977  24.2968237  92.5792443 104.6214795
  27.2446401 100.8782140 117.2119336  26.9447124 101.7807179 117.1035143
  26.8997460 100.6114323 118.0640489  20.6958882  97.3295937 113.2456041
  19.7709379  97.1972151 113.4533732  20.9443295  98.1090156 113.7425983
  30.6443544  93.3964680 114.8916774  29.7360422  93.3280089 114.5975535
  30.5931140  93.8736625 115.7198599  24.4660288  94.8722819 106.5300173
  24.3459914  95.3179869 107.3685653  23.7712877  95.2208136 105.9713711
  18.0567693  96.9729210 114.0799830  18.1860074  97.2263689 114.9939241
  17.3765144  97.5656918 113.7604485  22.2267180 107.6426460 110.1790304
  22.1491210 108.5934285 110.2578784  21.6228824 107.2972333 110.8365230
  24.7184410  94.8154326 122.8351671  23.9417744  95.3748246 122.8254535
  25.3574973  95.3011109 123.3566541  32.5105191  91.5981119 116.6694647
  31.8679571  91.8913652 116.0234442  32.0060119  91.4834039 117.4747844
  30.1645355  95.3444292 107.3580507  31.0763211  95.5771679 107.1828204
  29.6555002  95.9281336 106.7955585  22.9730783  97.6239779 122.3969638
  23.7145467  98.1624823 122.1204461  22.2667768  98.2506068 122.5541190
  28.4486122  99.7668920 120.9941799  28.8569478  99.3251330 120.2496432
  27.7263384  99.1921547 121.2475992  24.8017192  94.7041526 118.3675356
  25.6478387  95.1280940 118.5110005  24.7415830  94.0475151 119.0613919
  28.7714937 100.3270110 114.7494088  28.1423799 100.4915824 114.0470156
  28.3840599 100.7411720 115.5205052  32.6504169 101.2624548 112.1038452
  31.9655207 101.6423449 111.5535485  32.7348018 101.8719875 112.8370400
  27.9516638  92.3645895 120.0256530  27.7077569  93.1187955 119.4890806
  28.2276568  92.7431242 120.8603777  29.9055100  98.9084507 118.7033795
  30.1171996  99.5516267 118.0268177  29.8584849  98.0746824 118.2355726
  27.5081329  91.5202328 115.6070368  26.6465808  91.8183581 115.8987105
  27.5343764  91.7372727 114.6751400  24.3242899 100.0644518 112.0144173
  24.7881244 100.3432221 111.2248796  24.0599697  99.1627963 111.8317264
  21.2166980  99.6116000 114.9523937  21.7868337 100.0403268 114.3141421
  21.8075092  99.3298585 115.6508122  23.2611785  96.1867671 108.8233738
  23.9635828  96.6388714 109.2907665  22.9292413  95.5451490 109.4513632
  21.7092146  94.7779427 123.1984948  21.0790807  95.4595708 123.4320345
  21.6028234  94.6662509 122.2538086  17.0037119  94.4451223 114.1250872
  16.2136173  94.7008752 113.6490983  17.4948366  95.2599561 114.2302913
  31.0200928 101.7856463 116.8756153  31.8418372 101.3836650 116.5938834
  31.0163331 101.6824697 117.8272269  18.9551864  94.8095803 111.0834349
  18.1583027  94.9214497 111.6017844  18.7277456  95.1482455 110.2175239
  24.7857532 101.3340506 119.0316863  24.8501964 101.7960913 119.8675035
  24.0768456 100.7037871 119.1599173  15.2874822  94.6981714 116.5565863
  15.5382860  95.5828724 116.8223439  15.8234370  94.5186315 115.7840955
  39.1106921  98.1295211 113.2241124  38.3570630  97.5602609 113.0685129
  39.2454463  98.0957876 114.1711759  24.5005549 103.0008613 108.8995844
  24.3651224 103.8460149 109.3280691  25.0415362 103.2027891 108.1361777
  20.9872889  89.0800193 125.5610199  20.5939835  88.5266392 126.2357843
  21.8039029  89.3910772 125.9516716  17.9534947 100.5184051 109.4723769
  18.4659467 101.3127302 109.6229333  18.6057660  99.8210342 109.4057370
  19.7629831 103.6349808 111.5546522  19.9396460 104.5567772 111.3667506
  20.5586665 103.3208227 111.9840902  23.9040850  90.4958072 123.1530455
  24.6450563  91.0965225 123.0734918  24.1358773  89.7535710 122.5948498
  19.0482188  95.6814440 121.4308685  18.9335703  94.7799697 121.7315784
  18.1926706  95.9278136 121.0793502  26.1274026 103.6232180 123.0296186
  25.6837880 102.8368558 122.7117090  26.7891239 103.8111330 122.3640077
  20.8861147 105.1527981 117.5556864  21.4368572 105.0245045 116.7833858
  20.0472623 105.4522870 117.2051757  28.2255264 103.9034980 121.0577587
  28.2073739 104.7243861 120.5657856  29.1475184 103.7789055 121.2827728
  24.6828318 101.4179109 121.9001095  25.2156655 100.6567397 121.6700403
  24.1542399 101.1252761 122.6425250  27.8498013  86.5239175 117.4294737
  27.5062282  87.4140817 117.3533848  28.2176976  86.3340833 116.5664322
  15.9183864  98.8472706 110.2483339  16.7559086  99.2569714 110.0317047
  16.0962131  97.9072148 110.2183533  27.8148296  96.5147786 105.9367172
  27.2994919  97.2852391 106.1755560  27.5425604  95.8412922 106.5600234
  25.3995407  91.3597487 110.9952411  24.5437003  90.9704337 110.8158049
  25.8122358  91.4389448 110.1352196  26.9294553  88.8943830 115.3943970
  26.4259349  88.8573966 114.5811776  27.2225160  89.8036573 115.4540627
  23.1737439  88.9782560 114.4010152  24.0390436  88.7825369 114.0416042
  23.2414948  88.7492912 115.3279509  32.7882570  99.2680141 107.8720346
  32.0112013  98.9291300 107.4275508  33.4674051  99.2732764 107.1975311
  27.6034599  94.3874878 107.7626953  27.2984734  94.7021028 108.6137097
  28.5565041  94.4656298 107.8054286  26.0481031 100.5465102 109.4119907
  25.5202392  99.8117861 109.0993145  25.5468533 101.3239778 109.1659876
  31.0273877  98.7414122 114.5286954  30.3697551  99.4313384 114.6167082
  31.8314276  99.1310554 114.8720940  20.7799758  91.2084768 111.7726519
  21.3543510  90.9859949 111.0399712  21.3670741  91.2773463 112.5255120
  29.8379335  97.0958495 112.5790895  30.3511217  97.7288487 113.0812605
  30.4880559  96.4959690 112.2134255  21.1069345  93.2389229 105.7922404
  20.2706658  93.5763916 106.1131679  20.9674115  93.1038209 104.8549541
  23.0822426  88.0826017 110.5001588  22.4286838  87.7675034 109.8758203
  23.0402900  87.4601757 111.2261411  24.1933631  98.3645312 102.4154880
  23.2860693  98.1334565 102.6146029  24.6904663  97.5682931 102.6028862
  27.1001710 107.0742819 105.3351567  26.4263408 107.3774516 105.9436524
  27.4867532 107.8771900 104.9857024  26.3160166  94.5707950 114.8249236
  25.3982728  94.7922897 114.6670924  26.7320310  94.6454261 113.9660943
  27.0995214  95.9699366 109.9551916  27.8467033  96.4820763 109.6459038
  27.3686804  95.6483419 110.8156310  25.3721864  98.4657907 106.9378871
  24.4633084  98.1816940 107.0351340  25.4016948  98.8856985 106.0782177
  30.6041132 102.0764496 110.7070038  30.1503459 101.2355406 110.7635229
  29.9735098 102.7125895 111.0444818  29.5474051  93.0056482 111.9370706
  28.8096808  92.4933869 112.2680948  29.8000825  92.5656864 111.1253982
  29.0474071 103.9140993 111.6419856  29.3397045 104.4746050 110.9232222
  29.5572692 104.2069554 112.3973015  29.6485679  85.7832734 112.5312475
  29.9544555  84.9230098 112.2438390  30.3738283  86.3750355 112.3311469
  15.9410035  96.1863421 110.9194073  15.7434434  95.5932782 110.1945139
  15.3856699  95.8815631 111.6370012  23.9206758  96.0786527 113.0388666
  23.9755368  95.1260364 112.9631142  23.1097960  96.2345967 113.5229964
  25.0697952 100.0066651 104.2766949  24.6317382  99.2902509 103.8172586
  25.8108393 100.2342765 103.7152040  21.8599118  94.6963587 110.7979045
  21.0466984  94.9957758 111.2044237  22.3558112  94.3019276 111.5153527
  24.0107696 104.6921344 112.7313309  23.9683875 104.9182190 111.8021841
  24.9270395 104.4584719 112.8799111  27.4573330  95.1605412 119.6293939
  27.8122718  95.3876885 120.4888404  28.1045461  95.4923788 119.0071194
  33.1871067  98.2823848 110.3343268  33.0488965  98.4725444 109.4064457
  32.8307286  99.0443230 110.7911319  21.3513193  92.2681943 116.4140280
  21.9912572  92.1270702 115.7163243  20.5190724  91.9816456 116.0378882
  33.2140446 100.3500375 115.3454539  33.6476953 100.2575664 116.1937593
  33.9272027 100.3257875 114.7074555  22.1273497 101.5684373 112.5275272
  22.9214095 101.0734693 112.3257847  21.4165189 101.0402236 112.1642978
  26.9468341 103.9502469 116.8787640  27.0005364 104.5193405 117.6465356
  26.0783123 104.1204354 116.5141677  18.4356260  95.7127455 108.6035025
  17.5053848  95.6511910 108.8204987  18.5313732  95.1903408 107.8071666
  18.3541809  92.2382268 111.1913266  18.6148627  93.1527601 111.0822427
  19.1758982  91.7706710 111.3409879  19.8266735  93.6520025 118.3612091
  20.4989788  93.4437387 117.7124740  18.9996521  93.4542111 117.9217323
  34.0755996 100.3924075 117.8787425  34.2691886 101.2969886 118.1246699
  33.9756614  99.9331494 118.7126010  25.7292307  90.2781966 120.3777752
  25.0820222  90.9771915 120.2842228  26.4993322  90.7118110 120.7454000
  29.1371105 100.5430818 123.4528305  28.9856611 100.3141370 122.5358389
  29.1275784 101.5001419 123.4659650  25.9056441  98.1162731 118.4374572
  26.8348501  98.2673890 118.2643539  25.4847471  98.2046752 117.5823218
  24.7044773 102.1413395 116.2073109  24.5655859 101.7732180 117.0799047
  23.9159369 102.6561035 116.0357067  25.2992925 107.2422492 107.5498646
  25.4744681 106.7710535 108.3644268  24.6125713 107.8688258 107.7779906
  26.2549988 101.5194998 113.5961947  25.9199821 101.4795768 114.4919597
  25.7553934 100.8539714 113.1232357  20.2294232  96.9262628 119.1214528
  20.0914030  96.1942867 119.7226067  21.1399155  96.8371528 118.8398716
  29.1909180  98.8651032 103.8699007  28.5738350  98.1397860 103.7732059
  28.7225668  99.6260392 103.5266081  22.8576533  96.6382587 118.6098208
  23.5676151  95.9975779 118.5684826  22.8145841  96.8895482 119.5324389
  30.8463311 103.5749941 121.5304787  30.7875858 102.8909161 120.8635370
  31.2482830 104.3168931 121.0785413  21.5705467  93.6247805 120.4293847
  21.0342824  93.1738544 121.0815444  20.9822175  93.7593714 119.6864312
  19.8654010 110.3911854 114.3238506  20.1050608 111.0230379 115.0017524
  19.0223207 110.0399894 114.6103865  20.9807726  93.0836456 102.9920311
  20.1037192  92.9625257 102.6282558  21.4565479  92.2922535 102.7399200
  30.8480719 101.5389524 119.7618767  29.9607497 101.2015446 119.8845166
  31.4179270 100.8072556 119.9987532  12.5009866  97.8713616 113.0861818
  13.1880906  97.5575346 112.4982833  12.3457994  98.7754981 112.8129070
  17.3044588  92.7603813 117.5146842  17.2202777  92.1529482 116.7797252
  16.4827294  93.2512831 117.5156338  24.3781872 106.1990977 116.7280010
  24.3052044 107.0045948 117.2399314  23.9359265 106.3982943 115.9028031
  24.1671652 105.4362747 110.2382831  23.3839174 105.9784427 110.3321056
  24.8664397 105.9536726 110.6377073  27.4768302  91.2457376 112.8817037
  27.9737001  90.4927339 112.5618107  26.7055283  91.2821693 112.3160246
  35.3298059  96.9497742 114.5235328  35.3187935  97.8322457 114.1529261
  34.4615439  96.5969293 114.3289865  26.8380556 106.0977811 118.8838169
  27.5508528 106.7325276 118.8114070  26.3470584 106.1941677 118.0678170
  28.5598082 100.0029064 110.4555460  27.6254361 100.1230526 110.2860165
  28.7374751  99.1001530 110.1915470  24.0603271  93.3874759 112.6088721
  23.6901058  92.8345800 113.2969627  24.5562363  92.7832893 112.0563721
  31.9470634  95.8446383 110.9905494  32.4131086  96.6774374 110.9165797
  32.3978134  95.3791364 111.6950753  21.8892469 103.8472254 119.7043739
  22.5901929 104.4808737 119.8573134  21.4187584 104.1886986 118.9439379
  30.0146865 102.1890204 107.9891646  30.2906709 102.0746799 108.8985521
  29.1451364 101.7907689 107.9503820  29.9187297  88.2126970 115.0296396
  29.0050376  88.4431197 115.1978603  30.3480398  88.2965414 115.8810428
  29.6893755  96.4016862 117.5296290  29.0365205  96.6492769 116.8748743
  30.0674135  95.5881000 117.1958767  26.6500929 106.4376555 111.6324460
  26.8323323 105.6198211 112.0952212  27.4733915 106.6544247 111.1949350
  26.9843094 105.3644740 108.8939509  27.5130861 104.8537195 108.2809671
  27.2471314 105.0487270 109.7585042  25.7381328  97.1436673 124.0162327
  25.0621965  97.0430802 124.6864702  26.5608962  96.9875887 124.4798324
  17.4860187 103.3808609 116.6374842  18.0713624 102.6352297 116.7702746
  17.2885026 103.6912566 117.5211506  20.3398842 106.4159857 111.6537284
  19.6709218 106.9005984 111.1701325  20.2011712 106.6629077 112.5680663
  12.0777842  95.9514210 115.3579285  12.1161941  95.4177800 116.1516403
  11.5718135  95.4249415 114.7390262  24.4804111 108.4503600 118.2519943
  25.0322419 108.6135222 119.0169028  24.8210304 109.0408038 117.5799968
  19.4568604  90.7978750 118.8541828  19.5209931  91.6593581 118.4419225
  19.3935724  90.1852752 118.1214186  18.9320877  92.8701883 122.5014862
  19.5592916  92.4878960 123.1152386  18.0748796  92.6516085 122.8670554
  29.3314985 103.2764858 124.1068597  29.8754889 103.8894816 123.6123552
  28.7501830 103.8344436 124.6235610  15.7086419  94.6778312 108.4333217
  16.0039861  93.7688990 108.3800270  14.8074455  94.6566051 108.1114219
  27.6172498 106.3985576 115.2383625  27.4923638 105.5975316 114.7294570
  28.2751589 106.8931769 114.7497595  19.2380666  92.7534308 114.4160765
  18.5167252  93.3670276 114.2768239  20.0273922  93.2892073 114.3377411
  29.6807407 104.1994596 116.8663175  28.7337742 104.0799947 116.7941502
  30.0290180 103.3117094 116.9489437  22.0406980  90.0888735 120.6901417
  22.5641382  90.3351031 121.4527726  21.8219313  90.9208770 120.2704554
  17.4374261  92.3592409 108.5572542  17.1086967  91.4789788 108.3747648
  17.7913632  92.3040078 109.4448931  26.6853840 103.9947312 113.0667527
  26.5378802 103.0664020 113.2475097  27.5107333 104.0167403 112.5824603
  20.5516084  92.6465379 108.9248019  20.8912157  93.1751300 108.2026628
  20.9988205  92.9845785 109.7006586  30.2887962 104.8175871 114.1532400
  31.2134509 104.6118732 114.0156851  30.1203265 104.5692272 115.0621742
  23.2459525  91.0302430 118.3751088  22.9056345  90.2310243 118.7771767
  22.5398531  91.3304141 117.8027921  23.8975997  88.1151742 116.8278411
  24.7202066  87.6412221 116.7057301  24.1414060  88.8942226 117.3277097
  22.5384231  91.1440001 107.1241312  23.2592594  91.5221254 106.6205029
  21.9149535  91.8628878 107.2276290  26.6815354  91.8485150 108.0599645
  26.8978969  92.7309788 107.7588473  26.2009421  91.4571363 107.3305287
  21.4214576  94.8070863 114.6370389  21.2759156  95.1211166 115.5294671
  20.9439779  95.4255763 114.0841288  23.2810958  91.7973411 114.6851279
  23.2672527  90.9014504 114.3483577  23.9983387  91.8044075 115.3189565
  25.1337089  92.2310751 116.7304406  24.8754867  93.1527822 116.7288737
  24.6022130  91.8341186 117.4204870  30.0783278 105.3361538 109.5094492
  30.2520155 104.7707961 108.7568344  30.5712169 106.1362433 109.3273981
  15.8960238  97.3476207 117.5758050  15.3513706  98.1236015 117.7078325
  16.7739588  97.6947012 117.4177172  22.6847854  90.6787791 109.9538849
  22.8063766  89.7504437 110.1529736  22.3949897  90.6926477 109.0417164
  25.5539045  88.3642702 113.0905569  25.5760742  88.4282035 112.1357548
  25.9707104  87.5247210 113.2846075  35.9322669  98.0997961 111.1284791
  36.3753815  97.3505286 110.7303915  35.0549179  98.0908098 110.7458523
  31.0658450 104.6528303 106.6091390  31.7609355 105.2734995 106.8278704
  31.4081601 103.8023654 106.8843768  16.6826260  96.4746104 120.4688207
  15.9407996  96.6228739 121.0552838  16.3619004  96.7354369 119.6054957
  32.9649874 102.1028008 108.1378721  33.4901198 102.4415281 107.4128041
  32.8772226 101.1675024 107.9541855  24.6269922 106.0162082 120.2668597
  24.9357049 105.7711229 121.1391297  25.4245404 106.2208720 119.7787467
  24.6490534 108.1699991 112.4973974  24.2095525 107.6776370 113.1906830
  25.3998651 107.6272959 112.2566049  17.1282873 104.3611532 112.4998602
  17.9540893 104.0615304 112.1197245  16.7776925 103.5919155 112.9488390
  22.0964406 103.7138001 114.5696275  21.4744416 103.0508706 114.2698503
  22.7669273 103.7399132 113.8869923  15.3291478 102.2797859 113.4587535
  14.4923387 101.8520033 113.2771537  15.3015124 102.4730302 114.3958327
  22.1688934  92.1919789 124.1628781  22.2177089  93.0681911 123.7806551
  22.7111448  91.6497182 123.5900425  32.6543780 102.7360912 123.4429919
  31.8639323 102.7185051 122.9034418  32.4177134 103.2749206 124.1978955
  32.7741655  99.5853378 120.7562647  32.8239660  99.4203386 121.6978170
  32.6655578  98.7180637 120.3660528  21.6577913 102.2641924 108.0454736
  21.8066034 102.9477388 107.3921409  22.4644357 102.2447014 108.5604192
  30.0645417  95.5684306 122.0721954  30.9655280  95.4290771 121.7805952
  30.1393392  95.7338761 123.0120131  24.3988222  92.9451161 120.9175140
  23.5291532  93.2384727 120.6457729  24.6347703  93.5291606 121.6382404
  34.2759852 102.0050320 121.0004669  33.9844660 102.3680300 121.8368130
  33.6631983 101.2917328 120.8218001  35.4755534  99.5703200 113.5207239
  36.3102425 100.0093004 113.6844799  35.6114663  99.0941853 112.7015485
  32.5247040  97.1282934 119.4684727  33.0001161  97.3210581 118.6603578
  31.6012605  97.1842120 119.2228110  19.4130546  98.2907102 109.0515805
  19.1676588  97.3869432 109.2496015  19.5826461  98.2924252 108.1095283
  27.1027256  89.1630778 118.4340560  27.6209200  89.8991805 118.1087049
  26.7482389  89.4694771 119.2687320  18.6826194  94.0235459 106.5501966
  17.9895439  94.0979814 105.8942002  18.4377946  93.2595803 107.0723483
  27.3539850  85.5831060 113.9541457  27.6341604  84.9154250 114.5801884
  28.1390457  85.7760156 113.4416121  25.1573319 104.7590054 105.5166483
  24.5847286 105.3780241 105.0636955  25.7306113 105.3089416 106.0506405
  31.2248709  94.0048694 117.7013032  32.1766132  94.1046792 117.7225256
  31.0552159  93.2126963 118.2111117  29.2463088  91.0904278 117.8872433
  28.6513020  91.3709290 117.1918922  28.9612785  91.5798179 118.6589174
  28.3770579 105.0427204 106.6475066  29.3101252 104.9772766 106.8507941
  28.2893792 105.8783471 106.1889598  31.0058595 104.3593075 103.6079013
  30.9272227 104.0252938 104.5014771  31.8268262 104.8514843 103.6070486
  33.7036787  97.2254814 116.8155332  33.6713107  96.2870815 117.0015016
  34.3137410  97.3038851 116.0821157  25.5420117  96.0950867 102.8582536
  26.4879222  95.9657075 102.9270954  25.1634362  95.3565529 103.3351964
  33.8531275  94.0165858 116.8613615  33.3370324  93.2324314 116.6743544
  34.7371224  93.6884574 117.0260134  31.5142002  87.7606873 112.8209428
  31.3166823  87.4521961 113.7052760  32.1241708  88.4868512 112.9507358
  39.5213336  98.2870821 115.9561369  40.2516725  98.0256109 116.5169072
  38.9120282  97.5499543 115.9963437  37.6028634  96.4278684 116.5535820
  36.8761797  96.2934648 115.9452311  37.1875920  96.7355512 117.3592538
  25.4258810 100.1468613 124.3183193  26.3461819 100.3247212 124.5123239
  25.3908393  99.2024659 124.1662892  23.7263035  94.0200844 102.7937421
  22.8194490  93.7233956 102.8700135  24.0039016  93.7230662 101.9271707
  14.6440975  95.3407207 113.2436467  14.3243759  94.4872515 112.9510842
  14.0974403  95.5555785 113.9994435  18.4220882  98.0569648 116.9605974
  18.6406892  98.9886756 116.9794008  18.8346656  97.6977622 117.7460778
  25.3425100  88.5637733 108.9481662  24.5325829  88.2184818 109.3236908
  26.0309517  88.2545277 109.5369274  27.2715649  87.6415780 110.5705959
  27.8246687  88.0611233 111.2295982  27.5085735  86.7151528 110.6128915
  23.2948748  93.6302854 126.3508723  23.1945475  94.5797211 126.2820814
  23.0770290  93.3021093 125.4784793  22.4961819  90.8787779 102.9349400
  23.3580983  91.2042677 103.1945218  22.6812163  90.0919275 102.4222466
  14.5129235  98.9610118 115.2129589  13.8192706  98.5464071 114.6999543
  15.2602226  99.0030655 114.6163008  30.6494456  89.7516305 110.0784623
  30.0693125  90.4101109 109.6962676  30.3830388  88.9293650 109.6672041
  29.0998022  89.1521363 112.2805944  29.5997800  89.2637897 111.4720262
  29.7433630  88.8482416 112.9206752  23.1580018  97.0599993 125.1673785
  22.6747100  97.8600353 125.3737674  23.2440957  97.0707937 124.2141229
  16.4265977  98.8928372 113.0895604  16.4036666  98.9916059 112.1377487
  16.7366614  99.7393523 113.4112770  19.0853355 100.9504527 117.2042218
  20.0396609 100.9188470 117.1372150  18.8865879 100.4895151 118.0192444
  19.6752737  99.5205643 119.7713016  20.4945626 100.0149722 119.7947853
  19.9489545  98.6037611 119.7430584  29.4319334  91.9116396 109.1340972
  28.5445189  92.1966046 108.9161166  29.8473323  91.7510159 108.2868248
  32.7833870  91.9362917 112.8495311  33.5594260  92.4259369 113.1219928
  32.0582004  92.3620971 113.3067180  35.2206428  92.6490536 113.9069251
  35.8150919  92.4086272 113.1962560  35.2933012  91.9297666 114.5342788
  17.4403584 106.4924147 114.2212416  17.3058052 105.7324548 113.6550414
  17.0235646 107.2165047 113.7541205  28.5762547 101.6761070 103.2288992
  29.2798397 101.8811073 103.8446647  27.8525196 102.2437832 103.4938075
  29.4060357  97.4270931 109.3491262  29.3495559  97.8839483 108.5098894
  29.9588700  96.6661616 109.1714104  33.2165163  93.2160663 110.1741381
  32.9602098  92.8157299 111.0049589  32.5918031  93.9304457 110.0491520
  37.5277501  95.9556737 112.6812673  36.9677059  96.0249926 113.4544235
  36.9221005  95.7797721 111.9612169  20.5972710 107.3893464 114.4330859
  20.4805094 108.3338896 114.3309549  19.7765156 107.0867025 114.8216658
  30.4849245 102.1143599 105.2787452  31.3194848 101.6824798 105.0964926
  30.3233587 101.9425613 106.2064346  30.1395137  98.6175713 106.6443791
  30.0843941  98.4519984 105.7032235  29.5141192  99.3251746 106.8005981
  14.9287652  93.8543777 120.4705213  15.5746515  93.3442731 120.9592438
  14.7204803  94.5912459 121.0448638  27.4541044 100.9224625 125.9697354
  28.3232204 101.0965277 125.6083989  26.9747795 101.7419041 125.8473083
  23.4491262  88.1183822 106.2229109  23.4369932  89.0625662 106.3797380
  24.3414684  87.9353967 105.9288570  21.6227224 108.0421726 117.6486787
  22.5254471 108.0745336 117.9653282  21.3964594 107.1122177 117.6633123
  23.3780826 106.7952712 114.3096866  22.4276457 106.7954574 114.1961238
  23.6813312 106.0485447 113.7932901  27.2643382  84.7126598 110.4775046
  26.4975777  84.1585085 110.6231728  27.6754087  84.7848467 111.3389198
  19.2685143  91.0011394 124.5680227  20.1316604  90.6448199 124.7783552
  18.6950553  90.6625289 125.2555632  39.1133520 112.6313251 115.3742628
  39.7511930 112.5119998 114.6705968  38.9954363 113.5794094 115.4330580
  35.9223226 112.5840679 115.3104153  35.5841737 112.4681743 114.4224688
  36.7912994 112.1831844 115.2905159  31.7810042 114.4376155 111.3001044
  31.2174907 114.3466092 110.5317332  31.6662437 113.6176060 111.7803537
  36.4043009 113.7375530 121.2690359  36.3931650 113.3428329 120.3970862
  36.5663648 113.0041603 121.8624130  29.3274474 115.9327347 114.1385264
  30.1195765 115.5918171 113.7231564  29.5671124 116.0422322 115.0587418
  37.3609600 118.1047123 106.6115509  36.7097580 118.6901203 106.2249523
  38.1553963 118.6353318 106.6710546  31.2865227 115.1936260 107.0102643
  32.0596103 114.6465247 106.8715519  31.6390626 116.0580509 107.2217105
  33.1250270 116.5212642 120.2169543  32.8340136 117.4258273 120.1016209
  33.7607254 116.5629170 120.9313612  34.0506477 113.8989491 116.8070902
  34.6470049 113.6745513 116.0927865  34.1081448 113.1574236 117.4096350
  33.6231505 111.3528926 104.6421093  33.8757026 110.8310447 103.8804556
  32.6856064 111.1895071 104.7447777  38.6674788 110.3564704 112.4495836
  39.4537877 109.9384128 112.0986253  38.9313492 111.2610797 112.6177485
  38.8384865 115.7937555 107.1484493  38.2030698 115.8672181 107.8605398
  38.5082272 116.3831154 106.4703572  44.0683215 110.2939938 113.3528815
  44.8008387 109.7239154 113.5866644  43.3122571 109.9061538 113.7935320
  33.3427794 113.2557032 106.8445468  33.2264052 112.5801935 107.5126552
  33.4530054 112.7689406 106.0277621  35.6859335 112.7167179 110.5492157
  35.3217542 112.1897800 111.2605079  36.5426451 112.3265648 110.3758643
  41.5908636 104.0061512 117.8123423  41.2591960 104.8756923 117.5884638
  40.9954249 103.6897796 118.4917454  35.3264822 107.7457079 105.5453506
  35.4939224 108.6137315 105.9123977  35.1361991 107.9084360 104.6214795
  38.0840155 116.2074058 117.2119336  37.7840878 117.1099096 117.1035143
  37.7391215 115.9406241 118.0640489  31.5352637 112.6587855 113.2456041
  30.6103133 112.5264069 113.4533732  31.7837050 113.4382074 113.7425983
  41.4837299 108.7256598 114.8916774  40.5754176 108.6572006 114.5975535
  41.4324895 109.2028543 115.7198599  35.3054043 110.2014736 106.5300173
  35.1853668 110.6471787 107.3685653  34.6106631 110.5500054 105.9713711
  28.8961448 112.3021128 114.0799830  29.0253829 112.5555607 114.9939241
  28.2158899 112.8948836 113.7604485  33.0660935 122.9718378 110.1790304
  32.9884965 123.9226203 110.2578784  32.4622579 122.6264251 110.8365230
  35.5578165 110.1446243 122.8351671  34.7811499 110.7040164 122.8254535
  36.1968728 110.6303026 123.3566541  43.3498945 106.9273036 116.6694647
  42.7073326 107.2205569 116.0234442  42.8453874 106.8125957 117.4747844
  41.0039109 110.6736209 107.3580507  41.9156965 110.9063596 107.1828204
  40.4948756 111.2573254 106.7955585  33.8124537 112.9531697 122.3969638
  34.5539221 113.4916741 122.1204461  33.1061522 113.5797986 122.5541190
  39.2879877 115.0960837 120.9941799  39.6963233 114.6543248 120.2496432
  38.5657138 114.5213465 121.2475992  35.6410947 110.0333444 118.3675356
  36.4872142 110.4572858 118.5110005  35.5809584 109.3767068 119.0613919
  39.6108691 115.6562028 114.7494088  38.9817554 115.8207742 114.0470156
  39.2234353 116.0703637 115.5205052  43.4897923 116.5916466 112.1038452
  42.8048961 116.9715367 111.5535485  43.5741773 117.2011792 112.8370400
  38.7910392 107.6937812 120.0256530  38.5471324 108.4479873 119.4890806
  39.0670323 108.0723160 120.8603777  40.7448855 114.2376425 118.7033795
  40.9565750 114.8808185 118.0268177  40.6978603 113.4038741 118.2355726
  38.3475084 106.8494245 115.6070368  37.4859563 107.1475499 115.8987105
  38.3737518 107.0664644 114.6751400  35.1636653 115.3936436 112.0144173
  35.6274999 115.6724139 111.2248796  34.8993451 114.4919881 111.8317264
  32.0560734 114.9407918 114.9523937  32.6262091 115.3695186 114.3141421
  32.6468846 114.6590502 115.6508122  34.1005539 111.5159588 108.8233738
  34.8029583 111.9680632 109.2907665  33.7686168 110.8743407 109.4513632
  32.5485901 110.1071345 123.1984948  31.9184561 110.7887626 123.4320345
  32.4421989 109.9954427 122.2538086  27.8430873 109.7743141 114.1250872
  27.0529927 110.0300670 113.6490983  28.3342121 110.5891479 114.2302913
  41.8594683 117.1148380 116.8756153  42.6812126 116.7128567 116.5938834
  41.8557086 117.0116614 117.8272269  29.7945619 110.1387720 111.0834349
  28.9976782 110.2506415 111.6017844  29.5671211 110.4774373 110.2175239
  35.6251286 116.6632424 119.0316863  35.6895719 117.1252831 119.8675035
  34.9162210 116.0329788 119.1599173  26.1268576 110.0273631 116.5565863
  26.3776615 110.9120641 116.8223439  26.6628125 109.8478233 115.7840955
  49.9500676 113.4587129 113.2241124  49.1964384 112.8894527 113.0685129
  50.0848217 113.4249793 114.1711759  35.3399304 118.3300531 108.8995844
  35.2044979 119.1752067 109.3280691  35.8809116 118.5319809 108.1361777
  31.8266643 104.4092111 125.5610199  31.4333589 103.8558309 126.2357843
  32.6432784 104.7202689 125.9516716  28.7928701 115.8475969 109.4723769
  29.3053222 116.6419219 109.6229333  29.4451414 115.1502259 109.4057370
  30.6023586 118.9641725 111.5546522  30.7790214 119.8859690 111.3667506
  31.3980419 118.6500145 111.9840902  34.7434604 105.8249990 123.1530455
  35.4844318 106.4257143 123.0734918  34.9752527 105.0827628 122.5948498
  29.8875942 111.0106357 121.4308685  29.7729458 110.1091614 121.7315784
  29.0320460 111.2570054 121.0793502  36.9667780 118.9524098 123.0296186
  36.5231634 118.1660476 122.7117090  37.6284994 119.1403248 122.3640077
  31.7254901 120.4819899 117.5556864  32.2762327 120.3536962 116.7833858
  30.8866377 120.7814788 117.2051757  39.0649018 119.2326897 121.0577587
  39.0467494 120.0535778 120.5657856  39.9868938 119.1080973 121.2827728
  35.5222072 116.7471027 121.9001095  36.0550409 115.9859315 121.6700403
  34.9936154 116.4544679 122.6425250  38.6891767 101.8531093 117.4294737
  38.3456037 102.7432735 117.3533848  39.0570730 101.6632751 116.5664322
  26.7577618 114.1764623 110.2483339  27.5952840 114.5861632 110.0317047
  26.9355886 113.2364065 110.2183533  38.6542050 111.8439704 105.9367172
  38.1388674 112.6144309 106.1755560  38.3819359 111.1704840 106.5600234
  36.2389161 106.6889405 110.9952411  35.3830758 106.2996255 110.8158049
  36.6516113 106.7681366 110.1352196  37.7688308 104.2235748 115.3943970
  37.2653103 104.1865883 114.5811776  38.0618915 105.1328491 115.4540627
  34.0131194 104.3074478 114.4010152  34.8784190 104.1117286 114.0416042
  34.0808703 104.0784830 115.3279509  43.6276324 114.5972059 107.8720346
  42.8505767 114.2583218 107.4275508  44.3067805 114.6024682 107.1975311
  38.4428353 109.7166796 107.7626953  38.1378489 110.0312945 108.6137097
  39.3958795 109.7948216 107.8054286  36.8874785 115.8757019 109.4119907
  36.3596147 115.1409779 109.0993145  36.3862288 116.6531696 109.1659876
  41.8667631 114.0706040 114.5286954  41.2091306 114.7605301 114.6167082
  42.6708030 114.4602472 114.8720940  31.6193513 106.5376686 111.7726519
  32.1937265 106.3151867 111.0399712  32.2064495 106.6065380 112.5255120
  40.6773090 112.4250413 112.5790895  41.1904972 113.0580404 113.0812605
  41.3274314 111.8251608 112.2134255  31.9463100 108.5681147 105.7922404
  31.1100412 108.9055833 106.1131679  31.8067870 108.4330126 104.8549541
  33.9216180 103.4117935 110.5001588  33.2680593 103.0966952 109.8758203
  33.8796655 102.7893675 111.2261411  35.0327385 113.6937230 102.4154880
  34.1254447 113.4626483 102.6146029  35.5298417 112.8974849 102.6028862
  37.9395464 122.4034737 105.3351567  37.2657163 122.7066434 105.9436524
  38.3261286 123.2063817 104.9857024  37.1553921 109.8999868 114.8249236
  36.2376482 110.1214815 114.6670924  37.5714064 109.9746179 113.9660943
  37.9388969 111.2991284 109.9551916  38.6860788 111.8112681 109.6459038
  38.2080558 110.9775337 110.8156310  36.2115619 113.7949825 106.9378871
  35.3026838 113.5108857 107.0351340  36.2410703 114.2148903 106.0782177
  41.4434886 117.4056414 110.7070038  40.9897213 116.5647324 110.7635229
  40.8128853 118.0417812 111.0444818  40.3867806 108.3348400 111.9370706
  39.6490563 107.8225786 112.2680948  40.6394579 107.8948782 111.1253982
  39.8867825 119.2432911 111.6419856  40.1790800 119.8037968 110.9232222
  40.3966446 119.5361472 112.3973015  40.4879433 101.1124652 112.5312475
  40.7938310 100.2522015 112.2438390  41.2132038 101.7042272 112.3311469
  26.7803789 111.5155339 110.9194073  26.5828189 110.9224699 110.1945139
  26.2250453 111.2107549 111.6370012  34.7600513 111.4078445 113.0388666
  34.8149123 110.4552282 112.9631142  33.9491715 111.5637884 113.5229964
  35.9091707 115.3358568 104.2766949  35.4711137 114.6194427 103.8172586
  36.6502147 115.5634683 103.7152040  32.6992873 110.0255505 110.7979045
  31.8860738 110.3249675 111.2044237  33.1951867 109.6311194 111.5153527
  34.8501451 120.0213262 112.7313309  34.8077629 120.2474108 111.8021841
  35.7664149 119.7876636 112.8799111  38.2967084 110.4897329 119.6293939
  38.6516472 110.7168802 120.4888404  38.9439216 110.8215706 119.0071194
  44.0264821 113.6115765 110.3343268  43.8882720 113.8017361 109.4064457
  43.6701040 114.3735148 110.7911319  32.1906948 107.5973860 116.4140280
  32.8306327 107.4562619 115.7163243  31.3584478 107.3108374 116.0378882
  44.0534201 115.6792292 115.3454539  44.4870708 115.5867581 116.1937593
  44.7665782 115.6549793 114.7074555  32.9667251 116.8976291 112.5275272
  33.7607850 116.4026611 112.3257847  32.2558944 116.3694154 112.1642978
  37.7862096 119.2794386 116.8787640  37.8399118 119.8485323 117.6465356
  36.9176877 119.4496271 116.5141677  29.2750015 111.0419373 108.6035025
  28.3447603 110.9803828 108.8204987  29.3707487 110.5195325 107.8071666
  29.1935564 107.5674185 111.1913266  29.4542381 108.4819519 111.0822427
  30.0152736 107.0998628 111.3409879  30.6660489 108.9811943 118.3612091
  31.3383543 108.7729305 117.7124740  29.8390276 108.7834029 117.9217323
  44.9149751 115.7215993 117.8787425  45.1085641 116.6261803 118.1246699
  44.8150369 115.2623412 118.7126010  36.5686061 105.6073883 120.3777752
  35.9213976 106.3063833 120.2842228  37.3387077 106.0410027 120.7454000
  39.9764859 115.8722736 123.4528305  39.8250366 115.6433287 122.5358389
  39.9669539 116.8293337 123.4659650  36.7450196 113.4454648 118.4374572
  37.6742256 113.5965808 118.2643539  36.3241226 113.5338669 117.5823218
  35.5438527 117.4705313 116.2073109  35.4049613 117.1024097 117.0799047
  34.7553124 117.9852952 116.0357067  36.1386679 122.5714409 107.5498646
  36.3138435 122.1002452 108.3644268  35.4519467 123.1980175 107.7779906
  37.0943743 116.8486915 113.5961947  36.7593575 116.8087685 114.4919597
  36.5947688 116.1831631 113.1232357  31.0687987 112.2554546 119.1214528
  30.9307784 111.5234784 119.7226067  31.9792910 112.1663446 118.8398716
  40.0302934 114.1942950 103.8699007  39.4132105 113.4689778 103.7732059
  39.5619423 114.9552310 103.5266081  33.6970287 111.9674505 118.6098208
  34.4069906 111.3267697 118.5684826  33.6539595 112.2187400 119.5324389
  41.6857066 118.9041858 121.5304787  41.6269612 118.2201078 120.8635370
  42.0876584 119.6460848 121.0785413  32.4099221 108.9539723 120.4293847
  31.8736578 108.5030461 121.0815444  31.8215930 109.0885632 119.6864312
  30.7047765 125.7203772 114.3238506  30.9444363 126.3522296 115.0017524
  29.8616961 125.3691812 114.6103865  31.8201480 108.4128374 102.9920311
  30.9430946 108.2917175 102.6282558  32.2959233 107.6214452 102.7399200
  41.6874473 116.8681442 119.7618767  40.8001252 116.5307364 119.8845166
  42.2573024 116.1364473 119.9987532  23.3403620 113.2005534 113.0861818
  24.0274660 112.8867264 112.4982833  23.1851749 114.1046899 112.8129070
  28.1438342 108.0895730 117.5146842  28.0596531 107.4821400 116.7797252
  27.3221049 108.5804749 117.5156338  35.2175627 121.5282894 116.7280010
  35.1445798 122.3337866 117.2399314  34.7753020 121.7274860 115.9028031
  35.0065406 120.7654665 110.2382831  34.2232928 121.3076345 110.3321056
  35.7058151 121.2828644 110.6377073  38.3162056 106.5749294 112.8817037
  38.8130756 105.8219256 112.5618107  37.5449038 106.6113611 112.3160246
  46.1691814 112.2789659 114.5235328  46.1581690 113.1614375 114.1529261
  45.3009193 111.9261210 114.3289865  37.6774310 121.4269729 118.8838169
  38.3902282 122.0617193 118.8114070  37.1864339 121.5233595 118.0678170
  39.3991837 115.3320981 110.4555460  38.4648116 115.4522444 110.2860165
  39.5768505 114.4293448 110.1915470  34.8997025 108.7166677 112.6088721
  34.5294813 108.1637717 113.2969627  35.3956117 108.1124810 112.0563721
  42.7864388 111.1738300 110.9905494  43.2524841 112.0066292 110.9165797
  43.2371889 110.7083282 111.6950753  32.7286224 119.1764172 119.7043739
  33.4295683 119.8100655 119.8573134  32.2581339 119.5178904 118.9439379
  40.8540619 117.5182122 107.9891646  41.1300463 117.4038716 108.8985521
  39.9845118 117.1199607 107.9503820  40.7581051 103.5418887 115.0296396
  39.8444131 103.7723114 115.1978603  41.1874153 103.6257332 115.8810428
  40.5287510 111.7308779 117.5296290  39.8758960 111.9784687 116.8748743
  40.9067889 110.9172918 117.1958767  37.4894683 121.7668473 111.6324460
  37.6717078 120.9490129 112.0952212  38.3127669 121.9836165 111.1949350
  37.8236849 120.6936658 108.8939509  38.3524615 120.1829112 108.2809671
  38.0865069 120.3779188 109.7585042  36.5775083 112.4728590 124.0162327
  35.9015720 112.3722720 124.6864702  37.4002716 112.3167804 124.4798324
  28.3253942 118.7100527 116.6374842  28.9107378 117.9644215 116.7702746
  28.1278780 119.0204484 117.5211506  31.1792597 121.7451774 111.6537284
  30.5102972 122.2297902 111.1701325  31.0405467 121.9920995 112.5680663
  22.9171596 111.2806127 115.3579285  22.9555696 110.7469718 116.1516403
  22.4111889 110.7541333 114.7390262  35.3197865 123.7795518 118.2519943
  35.8716173 123.9427139 119.0169028  35.6604059 124.3699956 117.5799968
  30.2962359 106.1270668 118.8541828  30.3603685 106.9885499 118.4419225
  30.2329479 105.5144669 118.1214186  29.7714631 108.1993800 122.5014862
  30.3986670 107.8170878 123.1152386  28.9142550 107.9808002 122.8670554
  40.1708740 118.6056775 124.1068597  40.7148644 119.2186734 123.6123552
  39.5895585 119.1636354 124.6235610  26.5480174 110.0070229 108.4333217
  26.8433615 109.0980908 108.3800270  25.6468210 109.9857969 108.1114219
  38.4566253 121.7277493 115.2383625  38.3317392 120.9267233 114.7294570
  39.1145344 122.2223687 114.7497595  30.0774421 108.0826226 114.4160765
  29.3561007 108.6962194 114.2768239  30.8667677 108.6183991 114.3377411
  40.5201161 119.5286514 116.8663175  39.5731497 119.4091865 116.7941502
  40.8683934 118.6409012 116.9489437  32.8800734 105.4180652 120.6901417
  33.4035136 105.6642949 121.4527726  32.6613068 106.2500687 120.2704554
  28.2768016 107.6884327 108.5572542  27.9480722 106.8081706 108.3747648
  28.6307386 107.6331996 109.4448931  37.5247594 119.3239230 113.0667527
  37.3772557 118.3955937 113.2475097  38.3501088 119.3459320 112.5824603
  31.3909839 107.9757297 108.9248019  31.7305911 108.5043218 108.2026628
  31.8381959 108.3137703 109.7006586  41.1281716 120.1467788 114.1532400
  42.0528264 119.9410650 114.0156851  40.9597020 119.8984190 115.0621742
  34.0853280 106.3594348 118.3751088  33.7450100 105.5602161 118.7771767
  33.3792286 106.6596058 117.8027921  34.7369751 103.4443660 116.8278411
  35.5595821 102.9704138 116.7057301  34.9807815 104.2234144 117.3277097
  33.3777986 106.4731918 107.1241312  34.0986348 106.8513171 106.6205029
  32.7543290 107.1920795 107.2276290  37.5209109 107.1777067 108.0599645
  37.7372723 108.0601705 107.7588473  37.0403176 106.7863281 107.3305287
  32.2608330 110.1362781 114.6370389  32.1152911 110.4503084 115.5294671
  31.7833534 110.7547681 114.0841288  34.1204713 107.1265329 114.6851279
  34.1066282 106.2306422 114.3483577  34.8377141 107.1335992 115.3189565
  35.9730844 107.5602669 116.7304406  35.7148622 108.4819739 116.7288737
  35.4415884 107.1633103 117.4204870  40.9177032 120.6653456 109.5094492
  41.0913910 120.0999878 108.7568344  41.4105924 121.4654351 109.3273981
  26.7353992 112.6768125 117.5758050  26.1907460 113.4527933 117.7078325
  27.6133342 113.0238930 117.4177172  33.5241609 106.0079709 109.9538849
  33.6457520 105.0796355 110.1529736  33.2343651 106.0218395 109.0417164
  36.3932799 103.6934619 113.0905569  36.4154496 103.7573952 112.1357548
  36.8100858 102.8539128 113.2846075  46.7716424 113.4289879 111.1284791
  47.2147570 112.6797204 110.7303915  45.8942934 113.4200015 110.7458523
  41.9052205 119.9820220 106.6091390  42.6003110 120.6026913 106.8278704
  42.2475355 119.1315572 106.8843768  27.5220014 111.8038021 120.4688207
  26.7801750 111.9520657 121.0552838  27.2012758 112.0646287 119.6054957
  43.8043628 117.4319926 108.1378721  44.3294952 117.7707199 107.4128041
  43.7165981 116.4966941 107.9541855  35.4663677 121.3454000 120.2668597
  35.7750803 121.1003146 121.1391297  36.2639159 121.5500638 119.7787467
  35.4884289 123.4991909 112.4973974  35.0489279 123.0068288 113.1906830
  36.2392406 122.9564877 112.2566049  27.9676628 119.6903450 112.4998602
  28.7934648 119.3907222 112.1197245  27.6170680 118.9211072 112.9488390
  32.9358161 119.0429918 114.5696275  32.3138170 118.3800623 114.2698503
  33.6063028 119.0691050 113.8869923  26.1685233 117.6089776 113.4587535
  25.3317141 117.1811951 113.2771537  26.1408878 117.8022220 114.3958327
  33.0082688 107.5211706 124.1628781  33.0570844 108.3973829 123.7806551
  33.5505203 106.9789099 123.5900425  43.4937534 118.0652830 123.4429919
  42.7033078 118.0476968 122.9034418  43.2570889 118.6041123 124.1978955
  43.6135409 114.9145296 120.7562647  43.6633414 114.7495303 121.6978170
  43.5049333 114.0472555 120.3660528  32.4971668 117.5933842 108.0454736
  32.6459788 118.2769306 107.3921409  33.3038111 117.5738932 108.5604192
  40.9039172 110.8976224 122.0721954  41.8049034 110.7582689 121.7805952
  40.9787146 111.0630679 123.0120131  35.2381977 108.2743079 120.9175140
  34.3685286 108.5676645 120.6457729  35.4741457 108.8583524 121.6382404
  45.1153606 117.3342237 121.0004669  44.8238414 117.6972218 121.8368130
  44.5025737 116.6209246 120.8218001  46.3149288 114.8995117 113.5207239
  47.1496180 115.3384921 113.6844799  46.4508417 114.4233770 112.7015485
  43.3640794 112.4574852 119.4684727  43.8394916 112.6502498 118.6603578
  42.4406360 112.5134038 119.2228110  30.2524301 113.6199019 109.0515805
  30.0070343 112.7161349 109.2496015  30.4220215 113.6216170 108.1095283
  37.9421011 104.4922696 118.4340560  38.4602955 105.2283723 118.1087049
  37.5876144 104.7986689 119.2687320  29.5219948 109.3527377 106.5501966
  28.8289193 109.4271732 105.8942002  29.2771700 108.5887720 107.0723483
  38.1933605 100.9122978 113.9541457  38.4735359 100.2446167 114.5801884
  38.9784212 101.1052074 113.4416121  35.9967073 120.0881972 105.5166483
  35.4241040 120.7072159 105.0636955  36.5699867 120.6381334 106.0506405
  42.0642463 109.3340612 117.7013032  43.0159886 109.4338710 117.7225256
  41.8945914 108.5418881 118.2111117  40.0856843 106.4196195 117.8872433
  39.4906775 106.7001208 117.1918922  39.8006539 106.9090096 118.6589174
  39.2164333 120.3719122 106.6475066  40.1495006 120.3064684 106.8507941
  39.1287546 121.2075389 106.1889598  41.8452350 119.6884993 103.6079013
  41.7665981 119.3544856 104.5014771  42.6662017 120.1806760 103.6070486
  44.5430541 112.5546732 116.8155332  44.5106861 111.6162733 117.0015016
  45.1531165 112.6330769 116.0821157  36.3813872 111.4242785 102.8582536
  37.3272977 111.2948993 102.9270954  36.0028117 110.6857447 103.3351964
  44.6925030 109.3457775 116.8613615  44.1764078 108.5616232 116.6743544
  45.5764978 109.0176492 117.0260134  42.3535756 103.0898791 112.8209428
  42.1560578 102.7813879 113.7052760  42.9635462 103.8160430 112.9507358
  50.3607091 113.6162739 115.9561369  51.0910479 113.3548027 116.5169072
  49.7514036 112.8791461 115.9963437  48.4422388 111.7570601 116.5535820
  47.7155552 111.6226566 115.9452311  48.0269675 112.0647430 117.3592538
  36.2652564 115.4760531 124.3183193  37.1855574 115.6539130 124.5123239
  36.2302147 114.5316576 124.1662892  34.5656789 109.3492761 102.7937421
  33.6588244 109.0525874 102.8700135  34.8432770 109.0522579 101.9271707
  25.4834729 110.6699125 113.2436467  25.1637514 109.8164433 112.9510842
  24.9368158 110.8847703 113.9994435  29.2614637 113.3861566 116.9605974
  29.4800647 114.3178673 116.9794008  29.6740411 113.0269540 117.7460778
  36.1818855 103.8929651 108.9481662  35.3719583 103.5476736 109.3236908
  36.8703272 103.5837195 109.5369274  38.1109403 102.9707698 110.5705959
  38.6640442 103.3903151 111.2295982  38.3479489 102.0443446 110.6128915
  34.1342502 108.9594771 126.3508723  34.0339229 109.9089128 126.2820814
  33.9164044 108.6313010 125.4784793  33.3355574 106.2079696 102.9349400
  34.1974738 106.5334595 103.1945218  33.5205918 105.4211192 102.4222466
  25.3522989 114.2902036 115.2129589  24.6586461 113.8755989 114.6999543
  26.0995980 114.3322573 114.6163008  41.4888210 105.0808223 110.0784623
  40.9086879 105.7393027 109.6962676  41.2224143 104.2585567 109.6672041
  39.9391777 104.4813281 112.2805944  40.4391555 104.5929815 111.4720262
  40.5827384 104.1774333 112.9206752  33.9973772 112.3891910 125.1673785
  33.5140854 113.1892270 125.3737674  34.0834711 112.3999855 124.2141229
  27.2659732 114.2220290 113.0895604  27.2430420 114.3207977 112.1377487
  27.5760368 115.0685441 113.4112770  29.9247110 116.2796445 117.2042218
  30.8790363 116.2480387 117.1372150  29.7259633 115.8187069 118.0192444
  30.5146492 114.8497561 119.7713016  31.3339381 115.3441640 119.7947853
  30.7883300 113.9329529 119.7430584  40.2713088 107.2408313 109.1340972
  39.3838943 107.5257964 108.9161166  40.6867077 107.0802077 108.2868248
  43.6227624 107.2654834 112.8495311  44.3988014 107.7551287 113.1219928
  42.8975758 107.6912888 113.3067180  46.0600183 107.9782453 113.9069251
  46.6544674 107.7378189 113.1962560  46.1326767 107.2589584 114.5342788
  28.2797339 121.8216064 114.2212416  28.1451807 121.0616465 113.6550414
  27.8629401 122.5456964 113.7541205  39.4156302 117.0052988 103.2288992
  40.1192152 117.2102990 103.8446647  38.6918950 117.5729750 103.4938075
  40.2454112 112.7562849 109.3491262  40.1889313 113.2131401 108.5098894
  40.7982454 111.9953534 109.1714104  44.0558918 108.5452581 110.1741381
  43.7995852 108.1449217 111.0049589  43.4311786 109.2596375 110.0491520
  48.3671256 111.2848654 112.6812673  47.8070814 111.3541844 113.4544235
  47.7614759 111.1089639 111.9612169  31.4366464 122.7185381 114.4330859
  31.3198849 123.6630814 114.3309549  30.6158911 122.4158943 114.8216658
  41.3242999 117.4435517 105.2787452  42.1588603 117.0116716 105.0964926
  41.1627342 117.2717531 106.2064346  40.9788891 113.9467630 106.6443791
  40.9237695 113.7811902 105.7032235  40.3534946 114.6543663 106.8005981
  25.7681406 109.1835695 120.4705213  26.4140270 108.6734649 120.9592438
  25.5598557 109.9204376 121.0448638  38.2934798 116.2516542 125.9697354
  39.1625958 116.4257195 125.6083989  37.8141550 117.0710959 125.8473083
  34.2885017 103.4475739 106.2229109  34.2763687 104.3917579 106.3797380
  35.1808439 103.2645885 105.9288570  32.4620979 123.3713643 117.6486787
  33.3648225 123.4037254 117.9653282  32.2358349 122.4414094 117.6633123
  34.2174581 122.1244630 114.3096866  33.2670212 122.1246491 114.1961238
  34.5207067 121.3777364 113.7932901  38.1037136 100.0418516 110.4775046
  37.3369532  99.4877003 110.6231728  38.5147841 100.1140385 111.3389198
  30.1078897 106.3303312 124.5680227  30.9710359 105.9740117 124.7783552
  29.5344308 105.9917207 125.2555632  49.9527274 127.9605168 115.3742628
  50.5905684 127.8411916 114.6705968  49.8348117 128.9086012 115.4330580
  46.7616980 127.9132596 115.3104153  46.4235492 127.7973661 114.4224688
  47.6306749 127.5123761 115.2905159  42.6203796 129.7668073 111.3001044
  42.0568661 129.6758010 110.5317332  42.5056191 128.9467977 111.7803537
  47.2436763 129.0667448 121.2690359  47.2325404 128.6720246 120.3970862
  47.4057403 128.3333521 121.8624130  40.1668228 131.2619264 114.1385264
  40.9589520 130.9210089 113.7231564  40.4064878 131.3714239 115.0587418
  48.2003355 133.4339040 106.6115509  47.5491335 134.0193121 106.2249523
  48.9947718 133.9645235 106.6710546  42.1258982 130.5228178 107.0102643
  42.8989858 129.9757165 106.8715519  42.4784381 131.3872427 107.2217105
  43.9644025 131.8504560 120.2169543  43.6733891 132.7550191 120.1016209
  44.6001009 131.8921087 120.9313612  44.8900231 129.2281408 116.8070902
  45.4863804 129.0037431 116.0927865  44.9475203 128.4866154 117.4096350
  44.4625260 126.6820844 104.6421093  44.7150780 126.1602365 103.8804556
  43.5249819 126.5186989 104.7447777  49.5068543 125.6856622 112.4495836
  50.2931632 125.2676045 112.0986253  49.7707247 126.5902714 112.6177485
  49.6778620 131.1229472 107.1484493  49.0424453 131.1964099 107.8605398
  49.3476026 131.7123071 106.4703572  54.9076970 125.6231855 113.3528815
  55.6402142 125.0531072 113.5866644  54.1516325 125.2353456 113.7935320
  44.1821549 128.5848950 106.8445468  44.0657807 127.9093853 107.5126552
  44.2923808 128.0981324 106.0277621  46.5253089 128.0459097 110.5492157
  46.1611297 127.5189718 111.2605079  47.3820205 127.6557566 110.3758643
  52.4302390 119.3353429 117.8123423  52.0985715 120.2048840 117.5884638
  51.8348003 119.0189713 118.4917454  46.1658576 123.0748996 105.5453506
  46.3332979 123.9429233 105.9123977  45.9755746 123.2376278 104.6214795
  48.9233910 131.5365975 117.2119336  48.6234633 132.4391014 117.1035143
  48.5784969 131.2698159 118.0640489  42.3746391 127.9879772 113.2456041
  41.4496888 127.8555986 113.4533732  42.6230804 128.7673991 113.7425983
  52.3231053 124.0548516 114.8916774  51.4147931 123.9863924 114.5975535
  52.2718649 124.5320460 115.7198599  46.1447797 125.5306654 106.5300173
  46.0247423 125.9763705 107.3685653  45.4500386 125.8791972 105.9713711
  39.7355202 127.6313046 114.0799830  39.8647583 127.8847525 114.9939241
  39.0552653 128.2240754 113.7604485  43.9054689 138.3010296 110.1790304
  43.8278719 139.2518121 110.2578784  43.3016333 137.9556168 110.8365230
  46.3971919 125.4738161 122.8351671  45.6205253 126.0332081 122.8254535
  47.0362482 125.9594944 123.3566541  54.1892700 122.2564954 116.6694647
  53.5467080 122.5497487 116.0234442  53.6847628 122.1417874 117.4747844
  51.8432863 126.0028127 107.3580507  52.7550720 126.2355514 107.1828204
  51.3342511 126.5865171 106.7955585  44.6518292 128.2823615 122.3969638
  45.3932976 128.8208658 122.1204461  43.9455277 128.9089903 122.5541190
  50.1273631 130.4252755 120.9941799  50.5356987 129.9835165 120.2496432
  49.4050893 129.8505382 121.2475992  46.4804701 125.3625362 118.3675356
  47.3265896 125.7864775 118.5110005  46.4203339 124.7058986 119.0613919
  50.4502446 130.9853946 114.7494088  49.8211308 131.1499660 114.0470156
  50.0628108 131.3995555 115.5205052  54.3291678 131.9208383 112.1038452
  53.6442716 132.3007285 111.5535485  54.4135527 132.5303710 112.8370400
  49.6304147 123.0229730 120.0256530  49.3865078 123.7771791 119.4890806
  49.9064077 123.4015078 120.8603777  51.5842609 129.5668342 118.7033795
  51.7959505 130.2100102 118.0268177  51.5372358 128.7330659 118.2355726
  49.1868838 122.1786163 115.6070368  48.3253317 122.4767417 115.8987105
  49.2131273 122.3956562 114.6751400  46.0030408 130.7228354 112.0144173
  46.4668753 131.0016057 111.2248796  45.7387206 129.8211798 111.8317264
  42.8954489 130.2699835 114.9523937  43.4655846 130.6987104 114.3141421
  43.4862601 129.9882420 115.6508122  44.9399294 126.8451506 108.8233738
  45.6423337 127.2972550 109.2907665  44.6079922 126.2035325 109.4513632
  43.3879655 125.4363263 123.1984948  42.7578316 126.1179544 123.4320345
  43.2815743 125.3246344 122.2538086  38.6824628 125.1035059 114.1250872
  37.8923682 125.3592587 113.6490983  39.1735875 125.9183397 114.2302913
  52.6988437 132.4440298 116.8756153  53.5205881 132.0420485 116.5938834
  52.6950840 132.3408532 117.8272269  40.6339373 125.4679638 111.0834349
  39.8370536 125.5798332 111.6017844  40.4064965 125.8066290 110.2175239
  46.4645041 131.9924341 119.0316863  46.5289473 132.4544748 119.8675035
  45.7555965 131.3621706 119.1599173  36.9662331 125.3565549 116.5565863
  37.2170369 126.2412559 116.8223439  37.5021879 125.1770151 115.7840955
  60.7894430 128.7879046 113.2241124  60.0358139 128.2186444 113.0685129
  60.9241972 128.7541711 114.1711759  46.1793058 133.6592449 108.8995844
  46.0438733 134.5043984 109.3280691  46.7202871 133.8611726 108.1361777
  42.6660398 119.7384029 125.5610199  42.2727344 119.1850227 126.2357843
  43.4826538 120.0494607 125.9516716  39.6322456 131.1767887 109.4723769
  40.1446976 131.9711137 109.6229333  40.2845169 130.4794177 109.4057370
  41.4417340 134.2933643 111.5546522  41.6183969 135.2151608 111.3667506
  42.2374174 133.9792062 111.9840902  45.5828359 121.1541908 123.1530455
  46.3238072 121.7549061 123.0734918  45.8146282 120.4119545 122.5948498
  40.7269697 126.3398275 121.4308685  40.6123212 125.4383532 121.7315784
  39.8714215 126.5861972 121.0793502  47.8061535 134.2816015 123.0296186
  47.3625389 133.4952394 122.7117090  48.4678748 134.4695166 122.3640077
  42.5648656 135.8111817 117.5556864  43.1156081 135.6828880 116.7833858
  41.7260132 136.1106706 117.2051757  49.9042773 134.5618815 121.0577587
  49.8861248 135.3827696 120.5657856  50.8262693 134.4372890 121.2827728
  46.3615827 132.0762945 121.9001095  46.8944164 131.3151233 121.6700403
  45.8329908 131.7836596 122.6425250  49.5285522 117.1823011 117.4294737
  49.1849791 118.0724652 117.3533848  49.8964485 116.9924668 116.5664322
  37.5971373 129.5056541 110.2483339  38.4346595 129.9153549 110.0317047
  37.7749640 128.5655983 110.2183533  49.4935805 127.1731622 105.9367172
  48.9782428 127.9436226 106.1755560  49.2213113 126.4996758 106.5600234
  47.0782916 122.0181322 110.9952411  46.2224512 121.6288173 110.8158049
  47.4909867 122.0973283 110.1352196  48.6082062 119.5527666 115.3943970
  48.1046858 119.5157801 114.5811776  48.9012669 120.4620408 115.4540627
  44.8524948 119.6366395 114.4010152  45.7177945 119.4409204 114.0416042
  44.9202457 119.4076747 115.3279509  54.4670079 129.9263976 107.8720346
  53.6899522 129.5875136 107.4275508  55.1461560 129.9316599 107.1975311
  49.2822108 125.0458714 107.7626953  48.9772243 125.3604863 108.6137097
  50.2352550 125.1240134 107.8054286  47.7268540 131.2048937 109.4119907
  47.1989901 130.4701697 109.0993145  47.2256042 131.9823613 109.1659876
  52.7061386 129.3997958 114.5286954  52.0485060 130.0897219 114.6167082
  53.5101785 129.7894389 114.8720940  42.4587267 121.8668603 111.7726519
  43.0331019 121.6443785 111.0399712  43.0458250 121.9357298 112.5255120
  51.5166844 127.7542330 112.5790895  52.0298726 128.3872322 113.0812605
  52.1668068 127.1543526 112.2134255  42.7856854 123.8973064 105.7922404
  41.9494167 124.2347751 106.1131679  42.6461624 123.7622044 104.8549541
  44.7609935 118.7409852 110.5001588  44.1074347 118.4258869 109.8758203
  44.7190409 118.1185593 111.2261411  45.8721140 129.0229147 102.4154880
  44.9648202 128.7918401 102.6146029  46.3692172 128.2266767 102.6028862
  48.7789219 137.7326655 105.3351567  48.1050917 138.0358351 105.9436524
  49.1655041 138.5355735 104.9857024  47.9947675 125.2291786 114.8249236
  47.0770237 125.4506733 114.6670924  48.4107819 125.3038096 113.9660943
  48.7782723 126.6283201 109.9551916  49.5254542 127.1404599 109.6459038
  49.0474313 126.3067254 110.8156310  47.0509373 129.1241742 106.9378871
  46.1420593 128.8400775 107.0351340  47.0804457 129.5440821 106.0782177
  52.2828641 132.7348332 110.7070038  51.8290968 131.8939242 110.7635229
  51.6522607 133.3709730 111.0444818  51.2261560 123.6640318 111.9370706
  50.4884317 123.1517704 112.2680948  51.4788334 123.2240699 111.1253982
  50.7261580 134.5724828 111.6419856  51.0184554 135.1329885 110.9232222
  51.2360200 134.8653389 112.3973015  51.3273188 116.4416570 112.5312475
  51.6332064 115.5813933 112.2438390  52.0525792 117.0334190 112.3311469
  37.6197544 126.8447256 110.9194073  37.4221943 126.2516617 110.1945139
  37.0644208 126.5399467 111.6370012  45.5994267 126.7370363 113.0388666
  45.6542877 125.7844199 112.9631142  44.7885469 126.8929802 113.5229964
  46.7485461 130.6650486 104.2766949  46.3104891 129.9486345 103.8172586
  47.4895902 130.8926601 103.7152040  43.5386627 125.3547423 110.7979045
  42.7254493 125.6541593 111.2044237  44.0345621 124.9603111 111.5153527
  45.6895205 135.3505179 112.7313309  45.6471384 135.5766026 111.8021841
  46.6057904 135.1168554 112.8799111  49.1360839 125.8189247 119.6293939
  49.4910227 126.0460720 120.4888404  49.7832970 126.1507624 119.0071194
  54.8658576 128.9407683 110.3343268  54.7276474 129.1309279 109.4064457
  54.5094795 129.7027066 110.7911319  43.0300702 122.9265778 116.4140280
  43.6700081 122.7854537 115.7163243  42.1978233 122.6400291 116.0378882
  54.8927955 131.0084210 115.3454539  55.3264462 130.9159499 116.1937593
  55.6059536 130.9841710 114.7074555  43.8061006 132.2268208 112.5275272
  44.6001604 131.7318529 112.3257847  43.0952698 131.6986072 112.1642978
  48.6255850 134.6086304 116.8787640  48.6792873 135.1777240 117.6465356
  47.7570632 134.7788189 116.5141677  40.1143769 126.3711290 108.6035025
  39.1841357 126.3095746 108.8204987  40.2101241 125.8487243 107.8071666
  40.0329318 122.8966103 111.1913266  40.2936136 123.8111436 111.0822427
  40.8546491 122.4290546 111.3409879  41.5054244 124.3103860 118.3612091
  42.1777297 124.1021222 117.7124740  40.6784030 124.1125946 117.9217323
  55.7543505 131.0507911 117.8787425  55.9479395 131.9553721 118.1246699
  55.6544123 130.5915330 118.7126010  47.4079816 120.9365801 120.3777752
  46.7607731 121.6355751 120.2842228  48.1780831 121.3701945 120.7454000
  50.8158614 131.2014653 123.4528305  50.6644120 130.9725205 122.5358389
  50.8063293 132.1585255 123.4659650  47.5843950 128.7746566 118.4374572
  48.5136010 128.9257726 118.2643539  47.1634980 128.8630587 117.5823218
  46.3832282 132.7997230 116.2073109  46.2443368 132.4316015 117.0799047
  45.5946878 133.3144870 116.0357067  46.9780434 137.9006327 107.5498646
  47.1532190 137.4294370 108.3644268  46.2913222 138.5272093 107.7779906
  47.9337497 132.1778833 113.5961947  47.5987330 132.1379603 114.4919597
  47.4341443 131.5123549 113.1232357  41.9081741 127.5846463 119.1214528
  41.7701539 126.8526702 119.7226067  42.8186664 127.4955363 118.8398716
  50.8696689 129.5234868 103.8699007  50.2525859 128.7981696 103.7732059
  50.4013177 130.2844228 103.5266081  44.5364042 127.2966423 118.6098208
  45.2463660 126.6559615 118.5684826  44.4933350 127.5479317 119.5324389
  52.5250820 134.2333776 121.5304787  52.4663367 133.5492996 120.8635370
  52.9270339 134.9752766 121.0785413  43.2492976 124.2831640 120.4293847
  42.7130333 123.8322379 121.0815444  42.6609684 124.4177549 119.6864312
  42.6595235 123.7420292 102.9920311  41.7824701 123.6209093 102.6282558
  43.1352988 122.9506370 102.7399200  52.5268228 132.1973360 119.7618767
  51.6395006 131.8599282 119.8845166  53.0966779 131.4656391 119.9987532
  34.1797375 128.5297452 113.0861818  34.8668415 128.2159182 112.4982833
  34.0245503 129.4338816 112.8129070  38.9832097 123.4187648 117.5146842
  38.8990286 122.8113318 116.7797252  38.1614803 123.9096666 117.5156338
  46.0569381 136.8574812 116.7280010  45.9839552 137.6629784 117.2399314
  45.6146774 137.0566778 115.9028031  45.8459161 136.0946582 110.2382831
  45.0626683 136.6368262 110.3321056  46.5451906 136.6120562 110.6377073
  49.1555811 121.9041212 112.8817037  49.6524510 121.1511174 112.5618107
  48.3842792 121.9405528 112.3160246  57.0085568 127.6081577 114.5235328
  56.9975444 128.4906293 114.1529261  56.1402948 127.2553128 114.3289865
  48.5168065 136.7561646 118.8838169  49.2296037 137.3909111 118.8114070
  48.0258093 136.8525512 118.0678170  50.2385591 130.6612899 110.4555460
  49.3041870 130.7814361 110.2860165  50.4162260 129.7585366 110.1915470
  45.7390779 124.0458595 112.6088721  45.3688567 123.4929635 113.2969627
  46.2349872 123.4416728 112.0563721  53.6258143 126.5030218 110.9905494
  54.0918595 127.3358210 110.9165797  54.0765643 126.0375200 111.6950753
  43.5679978 134.5056090 119.7043739  44.2689438 135.1392573 119.8573134
  43.0975093 134.8470821 118.9439379  51.6934374 132.8474039 107.9891646
  51.9694218 132.7330634 108.8985521  50.8238873 132.4491524 107.9503820
  51.5974806 118.8710805 115.0296396  50.6837885 119.1015032 115.1978603
  52.0267907 118.9549249 115.8810428  51.3681264 127.0600697 117.5296290
  50.7152714 127.3076605 116.8748743  51.7461644 126.2464835 117.1958767
  48.3288438 137.0960390 111.6324460  48.5110832 136.2782046 112.0952212
  49.1521424 137.3128083 111.1949350  48.6630603 136.0228575 108.8939509
  49.1918370 135.5121030 108.2809671  48.9258823 135.7071106 109.7585042
  47.4168837 127.8020508 124.0162327  46.7409474 127.7014637 124.6864702
  48.2396471 127.6459722 124.4798324  39.1647696 134.0392445 116.6374842
  39.7501133 133.2936133 116.7702746  38.9672535 134.3496401 117.5211506
  42.0186351 137.0743692 111.6537284  41.3496727 137.5589820 111.1701325
  41.8799221 137.3212913 112.5680663  33.7565351 126.6098045 115.3579285
  33.7949450 126.0761636 116.1516403  33.2505644 126.0833250 114.7390262
  46.1591620 139.1087436 118.2519943  46.7109928 139.2719057 119.0169028
  46.4997813 139.6991873 117.5799968  41.1356113 121.4562585 118.8541828
  41.1997440 122.3177416 118.4419225  41.0723233 120.8436587 118.1214186
  40.6108386 123.5285718 122.5014862  41.2380425 123.1462795 123.1152386
  39.7536305 123.3099920 122.8670554  51.0102494 133.9348693 124.1068597
  51.5542398 134.5478651 123.6123552  50.4289339 134.4928272 124.6235610
  37.3873928 125.3362147 108.4333217  37.6827370 124.4272825 108.3800270
  36.4861964 125.3149887 108.1114219  49.2960007 137.0569411 115.2383625
  49.1711147 136.2559151 114.7294570  49.9539098 137.5515605 114.7497595
  40.9168175 123.4118144 114.4160765  40.1954761 124.0254111 114.2768239
  41.7061431 123.9475908 114.3377411  51.3594916 134.8578431 116.8663175
  50.4125251 134.7383782 116.7941502  51.7077689 133.9700929 116.9489437
  43.7194489 120.7472570 120.6901417  44.2428891 120.9934867 121.4527726
  43.5006822 121.5792605 120.2704554  39.1161770 123.0176245 108.5572542
  38.7874476 122.1373624 108.3747648  39.4701141 122.9623913 109.4448931
  48.3641349 134.6531147 113.0667527  48.2166311 133.7247855 113.2475097
  49.1894842 134.6751238 112.5824603  42.2303593 123.3049215 108.9248019
  42.5699666 123.8335136 108.2026628  42.6775714 123.6429621 109.7006586
  51.9675471 135.4759706 114.1532400  52.8922018 135.2702568 114.0156851
  51.7990774 135.2276107 115.0621742  44.9247034 121.6886265 118.3751088
  44.5843854 120.8894078 118.7771767  44.2186040 121.9887976 117.8027921
  45.5763506 118.7735578 116.8278411  46.3989575 118.2996056 116.7057301
  45.8201569 119.5526061 117.3277097  44.2171740 121.8023836 107.1241312
  44.9380103 122.1805089 106.6205029  43.5937044 122.5212713 107.2276290
  48.3602863 122.5068985 108.0599645  48.5766478 123.3893623 107.7588473
  47.8796930 122.1155198 107.3305287  43.1002085 125.4654698 114.6370389
  42.9546665 125.7795001 115.5294671  42.6227288 126.0839599 114.0841288
  44.9598467 122.4557246 114.6851279  44.9460036 121.5598340 114.3483577
  45.6770896 122.4627910 115.3189565  46.8124598 122.8894587 116.7304406
  46.5542376 123.8111657 116.7288737  46.2809639 122.4925021 117.4204870
  51.7570787 135.9945374 109.5094492  51.9307664 135.4291796 108.7568344
  52.2499678 136.7946269 109.3273981  37.5747747 128.0060043 117.5758050
  37.0301215 128.7819851 117.7078325  38.4527097 128.3530847 117.4177172
  44.3635363 121.3371627 109.9538849  44.4851275 120.4088273 110.1529736
  44.0737406 121.3510313 109.0417164  47.2326554 119.0226537 113.0905569
  47.2548251 119.0865870 112.1357548  47.6494613 118.1831046 113.2846075
  57.6110178 128.7581797 111.1284791  58.0541324 128.0089122 110.7303915
  56.7336688 128.7491933 110.7458523  52.7445959 135.3112138 106.6091390
  53.4396864 135.9318831 106.8278704  53.0869110 134.4607489 106.8843768
  38.3613769 127.1329939 120.4688207  37.6195505 127.2812574 121.0552838
  38.0406513 127.3938205 119.6054957  54.6437383 132.7611844 108.1378721
  55.1688707 133.0999116 107.4128041  54.5559735 131.8258859 107.9541855
  46.3057431 136.6745917 120.2668597  46.6144558 136.4295064 121.1391297
  47.1032913 136.8792556 119.7787467  46.3278043 138.8283827 112.4973974
  45.8883034 138.3360206 113.1906830  47.0786160 138.2856794 112.2566049
  38.8070382 135.0195368 112.4998602  39.6328402 134.7199140 112.1197245
  38.4564434 134.2502990 112.9488390  43.7751915 134.3721836 114.5696275
  43.1531925 133.7092541 114.2698503  44.4456782 134.3982968 113.8869923
  37.0078987 132.9381694 113.4587535  36.1710896 132.5103869 113.2771537
  36.9802633 133.1314137 114.3958327  43.8476443 122.8503624 124.1628781
  43.8964598 123.7265747 123.7806551  44.3898957 122.3081017 123.5900425
  54.3331289 133.3944747 123.4429919  53.5426832 133.3768886 122.9034418
  54.0964643 133.9333041 124.1978955  54.4529164 130.2437214 120.7562647
  54.5027169 130.0787221 121.6978170  54.3443087 129.3764473 120.3660528
  43.3365422 132.9225759 108.0454736  43.4853543 133.6061224 107.3921409
  44.1431866 132.9030849 108.5604192  51.7432926 126.2268142 122.0721954
  52.6442789 126.0874606 121.7805952  51.8180901 126.3922596 123.0120131
  46.0775731 123.6034996 120.9175140  45.2079041 123.8968562 120.6457729
  46.3135212 124.1875441 121.6382404  55.9547361 132.6634155 121.0004669
  55.6632169 133.0264136 121.8368130  55.3419492 131.9501163 120.8218001
  57.1543043 130.2287035 113.5207239  57.9889934 130.6676839 113.6844799
  57.2902172 129.7525688 112.7015485  54.2034549 127.7866770 119.4684727
  54.6788670 127.9794416 118.6603578  53.2800114 127.8425956 119.2228110
  41.0918055 128.9490937 109.0515805  40.8464097 128.0453267 109.2496015
  41.2613970 128.9508087 108.1095283  48.7814765 119.8214613 118.4340560
  49.2996709 120.5575640 118.1087049  48.4269898 120.1278607 119.2687320
  40.3613703 124.6819294 106.5501966  39.6682948 124.7563649 105.8942002
  40.1165455 123.9179638 107.0723483  49.0327359 116.2414896 113.9541457
  49.3129113 115.5738085 114.5801884  49.8177966 116.4343991 113.4416121
  46.8360828 135.4173890 105.5166483  46.2634795 136.0364077 105.0636955
  47.4093622 135.9673251 106.0506405  52.9036218 124.6632530 117.7013032
  53.8553641 124.7630627 117.7225256  52.7339668 123.8710798 118.2111117
  50.9250597 121.7488113 117.8872433  50.3300529 122.0293126 117.1918922
  50.6400294 122.2382014 118.6589174  50.0558088 135.7011040 106.6475066
  50.9888761 135.6356602 106.8507941  49.9681301 136.5367307 106.1889598
  52.6846104 135.0176910 103.6079013  52.6059736 134.6836774 104.5014771
  53.5055771 135.5098678 103.6070486  55.3824296 127.8838649 116.8155332
  55.3500616 126.9454650 117.0015016  55.9924919 127.9622686 116.0821157
  47.2207626 126.7534702 102.8582536  48.1666731 126.6240911 102.9270954
  46.8421871 126.0149364 103.3351964  55.5318784 124.6749693 116.8613615
  55.0157833 123.8908150 116.6743544  56.4158733 124.3468410 117.0260134
  53.1929511 118.4190708 112.8209428  52.9954332 118.1105797 113.7052760
  53.8029217 119.1452347 112.9507358  61.2000845 128.9454656 115.9561369
  61.9304234 128.6839944 116.5169072  60.5907791 128.2083378 115.9963437
  59.2816143 127.0862519 116.5535820  58.5549306 126.9518484 115.9452311
  58.8663429 127.3939348 117.3592538  47.1046319 130.8052449 124.3183193
  48.0249328 130.9831048 124.5123239  47.0695902 129.8608494 124.1662892
  45.4050544 124.6784679 102.7937421  44.4981999 124.3817792 102.8700135
  45.6826525 124.3814497 101.9271707  36.3228484 125.9991042 113.2436467
  36.0031268 125.1456350 112.9510842  35.7761912 126.2139620 113.9994435
  40.1008391 128.7153483 116.9605974  40.3194401 129.6470591 116.9794008
  40.5134165 128.3561458 117.7460778  47.0212609 119.2221569 108.9481662
  46.2113338 118.8768654 109.3236908  47.7097026 118.9129112 109.5369274
  48.9503158 118.2999615 110.5705959  49.5034196 118.7195069 111.2295982
  49.1873244 117.3735363 110.6128915  44.9736257 124.2886689 126.3508723
  44.8732984 125.2381046 126.2820814  44.7557799 123.9604928 125.4784793
  44.1749328 121.5371614 102.9349400  45.0368492 121.8626512 103.1945218
  44.3599672 120.7503110 102.4222466  36.1916744 129.6193954 115.2129589
  35.4980215 129.2047907 114.6999543  36.9389735 129.6614490 114.6163008
  52.3281965 120.4100141 110.0784623  51.7480634 121.0684945 109.6962676
  52.0617897 119.5877485 109.6672041  50.7785531 119.8105198 112.2805944
  51.2785309 119.9221733 111.4720262  51.4221139 119.5066251 112.9206752
  44.8367527 127.7183828 125.1673785  44.3534609 128.5184188 125.3737674
  44.9228466 127.7291773 124.2141229  38.1053486 129.5512208 113.0895604
  38.0824175 129.6499895 112.1377487  38.4154123 130.3977358 113.4112770
  40.7640864 131.6088363 117.2042218  41.7184118 131.5772305 117.1372150
  40.5653388 131.1478986 118.0192444  41.3540246 130.1789479 119.7713016
  42.1733135 130.6733557 119.7947853  41.6277054 129.2621447 119.7430584
  51.1106843 122.5700231 109.1340972  50.2232698 122.8549882 108.9161166
  51.5260832 122.4093994 108.2868248  54.4621379 122.5946752 112.8495311
  55.2381769 123.0843204 113.1219928  53.7369513 123.0204806 113.3067180
  56.8993937 123.3074371 113.9069251  57.4938428 123.0670107 113.1962560
  56.9720521 122.5881502 114.5342788  39.1191093 137.1507982 114.2212416
  38.9845561 136.3908383 113.6550414  38.7023155 137.8748882 113.7541205
  50.2550056 132.3344906 103.2288992  50.9585906 132.5394908 103.8446647
  49.5312705 132.9021667 103.4938075  51.0847866 128.0854767 109.3491262
  51.0283068 128.5423318 108.5098894  51.6376209 127.3245451 109.1714104
  54.8952672 123.8744499 110.1741381  54.6389607 123.4741134 111.0049589
  54.2705540 124.5888293 110.0491520  59.2065010 126.6140572 112.6812673
  58.6464568 126.6833761 113.4544235  58.6008514 126.4381557 111.9612169
  42.2760219 138.0477299 114.4330859  42.1592603 138.9922732 114.3309549
  41.4552665 137.7450861 114.8216658  52.1636754 132.7727435 105.2787452
  52.9982357 132.3408633 105.0964926  52.0021096 132.6009448 106.2064346
  51.8182646 129.2759548 106.6443791  51.7631450 129.1103820 105.7032235
  51.1928701 129.9835581 106.8005981  36.6075161 124.5127612 120.4705213
  37.2534024 124.0026566 120.9592438  36.3992312 125.2496294 121.0448638
  49.1328553 131.5808460 125.9697354  50.0019713 131.7549112 125.6083989
  48.6535304 132.4002877 125.8473083  45.1278771 118.7767657 106.2229109
  45.1157441 119.7209497 106.3797380  46.0202193 118.5937803 105.9288570
  43.3014733 138.7005561 117.6486787  44.2041980 138.7329171 117.9653282
  43.0752103 137.7706012 117.6633123  45.0568335 137.4536548 114.3096866
  44.1063966 137.4538409 114.1961238  45.3600821 136.7069282 113.7932901
  48.9430891 115.3710434 110.4775046  48.1763286 114.8168920 110.6231728
  49.3541596 115.4432303 111.3389198  40.9472652 121.6595230 124.5680227
  41.8104113 121.3032034 124.7783552  40.3738062 121.3209124 125.2555632
  60.7921029 143.2897086 115.3742628  61.4299439 143.1703833 114.6705968
  60.6741872 144.2377930 115.4330580  57.6010735 143.2424514 115.3104153
  57.2629246 143.1265579 114.4224688  58.4700503 142.8415679 115.2905159
  53.4597551 145.0959990 111.3001044  52.8962416 145.0049927 110.5317332
  53.3449946 144.2759895 111.7803537  58.0830518 144.3959366 121.2690359
  58.0719159 144.0012164 120.3970862  58.2451157 143.6625438 121.8624130
  55.7293986 144.5573326 116.8070902  56.3257558 144.3329348 116.0927865
  55.7868957 143.8158072 117.4096350  55.3019014 142.0112761 104.6421093
  55.5544535 141.4894283 103.8804556  54.3643573 141.8478907 104.7447777
  60.3462297 141.0148540 112.4495836  61.1325386 140.5967963 112.0986253
  60.6101001 141.9194632 112.6177485  60.5172374 146.4521390 107.1484493
  59.8818207 146.5256017 107.8605398  60.1869781 147.0414989 106.4703572
  65.7470724 140.9523773 113.3528815  66.4795896 140.3822990 113.5866644
  64.9910080 140.5645373 113.7935320  55.0215303 143.9140867 106.8445468
  54.9051561 143.2385771 107.5126552  55.1317563 143.4273241 106.0277621
  57.3646844 143.3751014 110.5492157  57.0005051 142.8481635 111.2605079
  58.2213960 142.9849483 110.3758643  63.2696145 134.6645347 117.8123423
  62.9379469 135.5340758 117.5884638  62.6741758 134.3481631 118.4917454
  57.0052331 138.4040914 105.5453506  57.1726733 139.2721151 105.9123977
  56.8149500 138.5668196 104.6214795  53.2140146 143.3171690 113.2456041
  52.2890642 143.1847904 113.4533732  53.4624559 144.0965909 113.7425983
  63.1624808 139.3840433 114.8916774  62.2541685 139.3155842 114.5975535
  63.1112404 139.8612378 115.7198599  56.9841552 140.8598572 106.5300173
  56.8641177 141.3055622 107.3685653  56.2894140 141.2083889 105.9713711
  50.5748957 142.9604963 114.0799830  50.7041338 143.2139442 114.9939241
  49.8946408 143.5532671 113.7604485  57.2365674 140.8030079 122.8351671
  56.4599008 141.3623999 122.8254535  57.8756237 141.2886862 123.3566541
  65.0286454 137.5856872 116.6694647  64.3860835 137.8789405 116.0234442
  64.5241383 137.4709792 117.4747844  62.6826618 141.3320045 107.3580507
  63.5944474 141.5647432 107.1828204  62.1736265 141.9157089 106.7955585
  55.4912046 143.6115532 122.3969638  56.2326730 144.1500576 122.1204461
  54.7849031 144.2381821 122.5541190  60.9667386 145.7544673 120.9941799
  61.3750742 145.3127083 120.2496432  60.2444647 145.1797300 121.2475992
  57.3198456 140.6917279 118.3675356  58.1659651 141.1156693 118.5110005
  57.2597093 140.0350904 119.0613919  61.2896200 146.3145863 114.7494088
  60.6605063 146.4791577 114.0470156  60.9021862 146.7287473 115.5205052
  65.1685432 147.2500301 112.1038452  64.4836470 147.6299202 111.5535485
  65.2529281 147.8595628 112.8370400  60.4697901 138.3521648 120.0256530
  60.2258833 139.1063708 119.4890806  60.7457832 138.7306995 120.8603777
  62.4236364 144.8960260 118.7033795  62.6353259 145.5392020 118.0268177
  62.3766112 144.0622577 118.2355726  60.0262593 137.5078081 115.6070368
  59.1647072 137.8059334 115.8987105  60.0525027 137.7248480 114.6751400
  56.8424162 146.0520271 112.0144173  57.3062508 146.3307974 111.2248796
  56.5780960 145.1503716 111.8317264  55.7793048 142.1743424 108.8233738
  56.4817092 142.6264467 109.2907665  55.4473677 141.5327243 109.4513632
  54.2273410 140.7655180 123.1984948  53.5972070 141.4471461 123.4320345
  54.1209498 140.6538262 122.2538086  49.5218382 140.4326976 114.1250872
  48.7317436 140.6884505 113.6490983  50.0129630 141.2475314 114.2302913
  63.5382192 147.7732216 116.8756153  64.3599635 147.3712403 116.5938834
  63.5344595 147.6700450 117.8272269  51.4733128 140.7971556 111.0834349
  50.6764291 140.9090250 111.6017844  51.2458720 141.1358208 110.2175239
  47.8056085 140.6857467 116.5565863  48.0564124 141.5704477 116.8223439
  48.3415634 140.5062068 115.7840955  71.6288185 144.1170964 113.2241124
  70.8751893 143.5478362 113.0685129  71.7635726 144.0833629 114.1711759
  53.5054152 135.0675946 125.5610199  53.1121098 134.5142145 126.2357843
  54.3220293 135.3786525 125.9516716  56.4222113 136.4833825 123.1530455
  57.1631827 137.0840978 123.0734918  56.6540036 135.7411463 122.5948498
  51.5663451 141.6690193 121.4308685  51.4516967 140.7675450 121.7315784
  50.7107969 141.9153889 121.0793502  60.3679276 132.5114928 117.4294737
  60.0243546 133.4016570 117.3533848  60.7358239 132.3216586 116.5664322
  60.3329559 142.5023539 105.9367172  59.8176183 143.2728144 106.1755560
  60.0606868 141.8288675 106.5600234  57.9176670 137.3473240 110.9952411
  57.0618266 136.9580091 110.8158049  58.3303622 137.4265201 110.1352196
  59.4475817 134.8819583 115.3943970  58.9440612 134.8449719 114.5811776
  59.7406424 135.7912326 115.4540627  55.6918703 134.9658313 114.4010152
  56.5571699 134.7701122 114.0416042  55.7596212 134.7368665 115.3279509
  65.3063833 145.2555894 107.8720346  64.5293276 144.9167053 107.4275508
  65.9855314 145.2608517 107.1975311  60.1215862 140.3750631 107.7626953
  59.8165998 140.6896781 108.6137097  61.0746304 140.4532051 107.8054286
  63.5455140 144.7289875 114.5286954  62.8878815 145.4189137 114.6167082
  64.3495539 145.1186307 114.8720940  53.2981022 137.1960521 111.7726519
  53.8724774 136.9735703 111.0399712  53.8852004 137.2649216 112.5255120
  62.3560599 143.0834248 112.5790895  62.8692481 143.7164240 113.0812605
  63.0061823 142.4835443 112.2134255  53.6250609 139.2264982 105.7922404
  52.7887921 139.5639669 106.1131679  53.4855379 139.0913962 104.8549541
  55.6003689 134.0701770 110.5001588  54.9468102 133.7550787 109.8758203
  55.5584164 133.4477510 111.2261411  56.7114894 144.3521065 102.4154880
  55.8041956 144.1210318 102.6146029  57.2085926 143.5558684 102.6028862
  58.8341430 140.5583703 114.8249236  57.9163991 140.7798650 114.6670924
  59.2501573 140.6330014 113.9660943  59.6176478 141.9575119 109.9551916
  60.3648297 142.4696516 109.6459038  59.8868067 141.6359172 110.8156310
  57.8903128 144.4533660 106.9378871  56.9814347 144.1692693 107.0351340
  57.9198212 144.8732738 106.0782177  62.0655315 138.9932235 111.9370706
  61.3278072 138.4809622 112.2680948  62.3182088 138.5532617 111.1253982
  62.1666942 131.7708487 112.5312475  62.4725819 130.9105851 112.2438390
  62.8919547 132.3626108 112.3311469  48.4591298 142.1739174 110.9194073
  48.2615698 141.5808535 110.1945139  47.9037962 141.8691384 111.6370012
  56.4388022 142.0662280 113.0388666  56.4936632 141.1136117 112.9631142
  55.6279224 142.2221720 113.5229964  57.5879216 145.9942404 104.2766949
  57.1498645 145.2778262 103.8172586  58.3289656 146.2218518 103.7152040
  54.3780382 140.6839340 110.7979045  53.5648247 140.9833511 111.2044237
  54.8739376 140.2895029 111.5153527  59.9754593 141.1481165 119.6293939
  60.3303981 141.3752638 120.4888404  60.6226725 141.4799541 119.0071194
  65.7052330 144.2699601 110.3343268  65.5670229 144.4601197 109.4064457
  65.3488549 145.0318983 110.7911319  53.8694456 138.2557696 116.4140280
  54.5093836 138.1146455 115.7163243  53.0371987 137.9692209 116.0378882
  65.7321710 146.3376128 115.3454539  66.1658217 146.2451417 116.1937593
  66.4453291 146.3133628 114.7074555  50.9537524 141.7003208 108.6035025
  50.0235112 141.6387663 108.8204987  51.0494996 141.1779161 107.8071666
  50.8723073 138.2258021 111.1913266  51.1329890 139.1403354 111.0822427
  51.6940245 137.7582463 111.3409879  52.3447998 139.6395778 118.3612091
  53.0171052 139.4313140 117.7124740  51.5177785 139.4417864 117.9217323
  66.5937260 146.3799828 117.8787425  66.7873150 147.2845639 118.1246699
  66.4937878 145.9207247 118.7126010  58.2473570 136.2657719 120.3777752
  57.6001485 136.9647668 120.2842228  59.0174586 136.6993863 120.7454000
  61.6552368 146.5306571 123.4528305  61.5037875 146.3017123 122.5358389
  61.6457048 147.4877172 123.4659650  58.4237705 144.1038484 118.4374572
  59.3529765 144.2549643 118.2643539  58.0028735 144.1922505 117.5823218
  52.7475495 142.9138381 119.1214528  52.6095293 142.1818620 119.7226067
  53.6580419 142.8247281 118.8398716  61.7090443 144.8526785 103.8699007
  61.0919614 144.1273613 103.7732059  61.2406932 145.6136145 103.5266081
  55.3757796 142.6258340 118.6098208  56.0857415 141.9851532 118.5684826
  55.3327104 142.8771235 119.5324389  54.0886730 139.6123558 120.4293847
  53.5524087 139.1614297 121.0815444  53.5003439 139.7469467 119.6864312
  53.4988989 139.0712210 102.9920311  52.6218455 138.9501010 102.6282558
  53.9746742 138.2798288 102.7399200  63.3661982 147.5265277 119.7618767
  62.4788761 147.1891199 119.8845166  63.9360533 146.7948309 119.9987532
  49.8225851 138.7479566 117.5146842  49.7384040 138.1405235 116.7797252
  49.0008558 139.2388584 117.5156338  59.9949565 137.2333129 112.8817037
  60.4918265 136.4803092 112.5618107  59.2236547 137.2697446 112.3160246
  67.8479323 142.9373495 114.5235328  67.8369199 143.8198210 114.1529261
  66.9796702 142.5845046 114.3289865  61.0779346 145.9904817 110.4555460
  60.1435625 146.1106279 110.2860165  61.2556014 145.0877283 110.1915470
  56.5784534 139.3750512 112.6088721  56.2082322 138.8221553 113.2969627
  57.0743626 138.7708646 112.0563721  64.4651897 141.8322136 110.9905494
  64.9312349 142.6650127 110.9165797  64.9159398 141.3667117 111.6950753
  62.5328128 148.1765957 107.9891646  62.8087972 148.0622552 108.8985521
  61.6632627 147.7783442 107.9503820  62.4368560 134.2002723 115.0296396
  61.5231640 134.4306950 115.1978603  62.8661661 134.2841167 115.8810428
  62.2075019 142.3892615 117.5296290  61.5546469 142.6368522 116.8748743
  62.5855398 141.5756753 117.1958767  58.2562592 143.1312426 124.0162327
  57.5803229 143.0306555 124.6864702  59.0790225 142.9751640 124.4798324
  44.5959105 141.9389963 115.3579285  44.6343205 141.4053553 116.1516403
  44.0899398 141.4125168 114.7390262  51.9749868 136.7854503 118.8541828
  52.0391194 137.6469334 118.4419225  51.9116988 136.1728505 118.1214186
  51.4502140 138.8577636 122.5014862  52.0774179 138.4754713 123.1152386
  50.5930059 138.6391838 122.8670554  48.2267683 140.6654065 108.4333217
  48.5221124 139.7564743 108.3800270  47.3255719 140.6441804 108.1114219
  51.7561930 138.7410061 114.4160765  51.0348516 139.3546029 114.2768239
  52.5455186 139.2767826 114.3377411  54.5588243 136.0764488 120.6901417
  55.0822645 136.3226784 121.4527726  54.3400577 136.9084523 120.2704554
  49.9555525 138.3468162 108.5572542  49.6268231 137.4665541 108.3747648
  50.3094895 138.2915831 109.4448931  53.0697348 138.6341132 108.9248019
  53.4093420 139.1627053 108.2026628  53.5169468 138.9721538 109.7006586
  55.7640789 137.0178183 118.3751088  55.4237609 136.2185996 118.7771767
  55.0579795 137.3179894 117.8027921  56.4157260 134.1027495 116.8278411
  57.2383330 133.6287974 116.7057301  56.6595324 134.8817979 117.3277097
  55.0565495 137.1315754 107.1241312  55.7773857 137.5097007 106.6205029
  54.4330799 137.8504631 107.2276290  59.1996618 137.8360903 108.0599645
  59.4160232 138.7185541 107.7588473  58.7190685 137.4447116 107.3305287
  53.9395839 140.7946616 114.6370389  53.7940420 141.1086919 115.5294671
  53.4621043 141.4131516 114.0841288  55.7992222 137.7849164 114.6851279
  55.7853791 136.8890257 114.3483577  56.5164650 137.7919828 115.3189565
  57.6518353 138.2186504 116.7304406  57.3936131 139.1403575 116.7288737
  57.1203393 137.8216939 117.4204870  55.2029118 136.6663544 109.9538849
  55.3245029 135.7380190 110.1529736  54.9131160 136.6802230 109.0417164
  58.0720308 134.3518455 113.0905569  58.0942005 134.4157788 112.1357548
  58.4888367 133.5122963 113.2846075  68.4503933 144.0873714 111.1284791
  68.8935079 143.3381039 110.7303915  67.5730443 144.0783851 110.7458523
  49.2007523 142.4621857 120.4688207  48.4589259 142.6104492 121.0552838
  48.8800267 142.7230122 119.6054957  65.4831137 148.0903761 108.1378721
  66.0082461 148.4291034 107.4128041  65.3953490 147.1550777 107.9541855
  54.6870197 138.1795542 124.1628781  54.7358353 139.0557664 123.7806551
  55.2292712 137.6372935 123.5900425  65.1725043 148.7236665 123.4429919
  64.3820587 148.7060804 122.9034418  64.9358398 149.2624959 124.1978955
  65.2922918 145.5729131 120.7562647  65.3420923 145.4079139 121.6978170
  65.1836842 144.7056390 120.3660528  62.5826681 141.5560059 122.0721954
  63.4836543 141.4166524 121.7805952  62.6574655 141.7214514 123.0120131
  56.9169486 138.9326914 120.9175140  56.0472795 139.2260480 120.6457729
  57.1528966 139.5167359 121.6382404  66.7941115 147.9926073 121.0004669
  66.5025923 148.3556053 121.8368130  66.1813246 147.2793081 120.8218001
  67.9936797 145.5578953 113.5207239  68.8283689 145.9968757 113.6844799
  68.1295926 145.0817606 112.7015485  65.0428303 143.1158687 119.4684727
  65.5182425 143.3086334 118.6603578  64.1193869 143.1717873 119.2228110
  51.9311810 144.2782855 109.0515805  51.6857852 143.3745185 109.2496015
  52.1007724 144.2800005 108.1095283  59.6208520 135.1506531 118.4340560
  60.1390464 135.8867558 118.1087049  59.2663652 135.4570524 119.2687320
  51.2007457 140.0111212 106.5501966  50.5076702 140.0855567 105.8942002
  50.9559209 139.2471556 107.0723483  59.8721114 131.5706813 113.9541457
  60.1522868 130.9030003 114.5801884  60.6571721 131.7635909 113.4416121
  63.7429972 139.9924447 117.7013032  64.6947395 140.0922545 117.7225256
  63.5733423 139.2002716 118.2111117  61.7644352 137.0780031 117.8872433
  61.1694284 137.3585043 117.1918922  61.4794048 137.5673932 118.6589174
  66.2218050 143.2130567 116.8155332  66.1894370 142.2746568 117.0015016
  66.8318674 143.2914604 116.0821157  58.0601381 142.0826620 102.8582536
  59.0060486 141.9532828 102.9270954  57.6815626 141.3441282 103.3351964
  66.3712539 140.0041611 116.8613615  65.8551587 139.2200067 116.6743544
  67.2552487 139.6760327 117.0260134  64.0323265 133.7482626 112.8209428
  63.8348087 133.4397714 113.7052760  64.6422971 134.4744265 112.9507358
  72.0394600 144.2746574 115.9561369  72.7697988 144.0131862 116.5169072
  71.4301545 143.5375296 115.9963437  70.1209897 142.4154437 116.5535820
  69.3943061 142.2810402 115.9452311  69.7057184 142.7231265 117.3592538
  57.9440073 146.1344366 124.3183193  58.8643083 146.3122965 124.5123239
  57.9089656 145.1900412 124.1662892  56.2444298 140.0076597 102.7937421
  55.3375753 139.7109709 102.8700135  56.5220279 139.7106415 101.9271707
  47.1622238 141.3282960 113.2436467  46.8425023 140.4748268 112.9510842
  46.6155667 141.5431538 113.9994435  57.8606364 134.5513486 108.9481662
  57.0507092 134.2060571 109.3236908  58.5490781 134.2421030 109.5369274
  59.7896912 133.6291533 110.5705959  60.3427951 134.0486986 111.2295982
  60.0266998 132.7027281 110.6128915  55.8130011 139.6178607 126.3508723
  55.7126738 140.5672964 126.2820814  55.5951553 139.2896846 125.4784793
  55.0143083 136.8663532 102.9349400  55.8762247 137.1918430 103.1945218
  55.1993427 136.0795028 102.4222466  63.1675719 135.7392058 110.0784623
  62.5874388 136.3976862 109.6962676  62.9011652 134.9169403 109.6672041
  61.6179286 135.1397116 112.2805944  62.1179064 135.2513650 111.4720262
  62.2614893 134.8358169 112.9206752  55.6761281 143.0475746 125.1673785
  55.1928363 143.8476106 125.3737674  55.7622220 143.0583690 124.2141229
  61.9500597 137.8992149 109.1340972  61.0626452 138.1841799 108.9161166
  62.3654586 137.7385912 108.2868248  65.3015133 137.9238670 112.8495311
  66.0775523 138.4135122 113.1219928  64.5763267 138.3496724 113.3067180
  67.7387692 138.6366289 113.9069251  68.3332183 138.3962025 113.1962560
  67.8114276 137.9173419 114.5342788  61.9241621 143.4146685 109.3491262
  61.8676822 143.8715236 108.5098894  62.4769963 142.6537369 109.1714104
  65.7346427 139.2036416 110.1741381  65.4783361 138.8033052 111.0049589
  65.1099295 139.9180210 110.0491520  70.0458765 141.9432490 112.6812673
  69.4858323 142.0125679 113.4544235  69.4402268 141.7673474 111.9612169
  63.0030508 148.1019352 105.2787452  63.8376112 147.6700551 105.0964926
  62.8414851 147.9301366 106.2064346  62.6576400 144.6051466 106.6443791
  62.6025204 144.4395737 105.7032235  62.0322455 145.3127499 106.8005981
  47.4468915 139.8419530 120.4705213  48.0927779 139.3318484 120.9592438
  47.2386066 140.5788212 121.0448638  55.9672526 134.1059575 106.2229109
  55.9551195 135.0501415 106.3797380  56.8595948 133.9229720 105.9288570
  59.7824645 130.7002351 110.4775046  59.0157041 130.1460838 110.6231728
  60.1935350 130.7724220 111.3389198  51.7866406 136.9887147 124.5680227
  52.6497868 136.6323952 124.7783552  51.2131817 136.6501042 125.2555632
  74.1089899 149.9937265 117.8123423  73.7773224 150.8632676 117.5884638
  73.5135512 149.6773549 118.4917454  71.2073031 147.8406846 117.4294737
  70.8637300 148.7308488 117.3533848  71.5751993 147.6508504 116.5664322
  70.2869571 150.2111501 115.3943970  69.7834367 150.1741636 114.5811776
  70.5800178 151.1204244 115.4540627  66.4397444 149.3993688 110.5001588
  65.7861856 149.0842705 109.8758203  66.3977918 148.7769428 111.2261411
  73.0060697 147.1000405 112.5312475  73.3119573 146.2397769 112.2438390
  73.7313301 147.6918025 112.3311469  73.2762315 149.5294640 115.0296396
  72.3625394 149.7598867 115.1978603  73.7055416 149.6133085 115.8810428
  67.2551015 149.4319413 116.8278411  68.0777084 148.9579891 116.7057301
  67.4989078 150.2109897 117.3277097  68.9114063 149.6810372 113.0905569
  68.9335760 149.7449705 112.1357548  69.3282122 148.8414881 113.2846075
  70.4602274 150.4798449 118.4340560  70.9784218 151.2159476 118.1087049
  70.1057407 150.7862442 119.2687320  70.7114868 146.8998731 113.9541457
  70.9916622 146.2321920 114.5801884  71.4965475 147.0927827 113.4416121
  74.8717020 149.0774544 112.8209428  74.6741841 148.7689632 113.7052760
  75.4816725 149.8036183 112.9507358  68.7000118 149.8805404 108.9481662
  67.8900847 149.5352489 109.3236908  69.3884535 149.5712948 109.5369274
  70.6290667 148.9583451 110.5705959  71.1821705 149.3778904 111.2295982
  70.8660753 148.0319199 110.6128915  74.0069474 151.0683976 110.0784623
  73.4268143 151.7268780 109.6962676  73.7405406 150.2461320 109.6672041
  72.4573040 150.4689034 112.2805944  72.9572818 150.5805568 111.4720262
  73.1008648 150.1650086 112.9206752  78.5781446 153.9658206 113.9069251
  79.1725937 153.7253942 113.1962560  78.6508030 153.2465337 114.5342788
  70.6218400 146.0294269 110.4775046  69.8550795 145.4752756 110.6231728
  71.0329105 146.1016138 111.3389198   6.5925659  29.1481581  99.9486431
   5.8389367  28.5788979  99.7930435   6.7273200  29.1144245 100.8957066
   0.6959184  31.3686744 102.0699846   1.1295691  31.2762033 102.9182900
   1.4090765  31.3444245 101.4319862   1.5574734  31.4110445 104.6032731
   1.7510624  32.3156255 104.8492006   1.4575352  30.9517864 105.4371316
   2.8116797  27.9684111 101.2480635   2.8006673  28.8508827 100.8774568
   1.9434176  27.6155662 101.0535172   3.4141407  29.1184331  97.8530098
   3.8572553  28.3691656  97.4549221   2.5367917  29.1094467  97.4703830
   0.4468611  33.1214378  94.8624027   0.9719935  33.4601651  94.1373347
   0.3590964  32.1861393  94.6787162   1.7578589  33.0236689 107.7249975
   1.4663398  33.3866670 108.5613436   1.1450721  32.3103698 107.5463307
   2.9574272  30.5889569 100.2452545   3.7921163  31.0279373 100.4090106
   3.0933400  30.1128222  99.4260791   1.1855524  28.2441184 103.5400638
   1.1531844  27.3057184 103.7260322   1.7956148  28.3225220 102.8066463
   1.3350013  25.0352227 103.5858922   0.8189061  24.2510684 103.3988851
   2.2189961  24.7070944 103.7505441   7.0032074  29.3057191 102.6806675
   7.7335463  29.0442479 103.2414379   6.3939020  28.5685912 102.7208743
   5.0847371  27.4465053 103.2781126   4.3580535  27.3121018 102.6697618
   4.6694658  27.7541882 104.0837845   2.7025166  23.6676905 100.6314558
   3.2969657  23.4272641  99.9207866   2.7751750  22.9484036 101.2588094
   5.0096239  26.9743106  99.4057979   4.4495797  27.0436295 100.1789541
   4.4039742  26.7984091  98.6857476   6.5952257  43.6499620 102.0987935
   7.2330667  43.5306367 101.3951275   6.4773100  44.5980464 102.1575887
   3.4041964  43.6027048 102.0349460   3.0660475  43.4868113 101.1469995
   4.2731732  43.2018213 102.0150466   3.8861747  44.7561900 107.9935665
   3.8750387  44.3614698 107.1216169   4.0482386  44.0227973 108.5869437
   4.8428338  49.1233492  93.3360816   4.1916318  49.7087573  92.9494829
   5.6372701  49.6539687  93.3955853   1.5325215  44.9175860 103.5316209
   2.1288787  44.6931883 102.8173172   1.5900186  44.1760606 104.1341657
   6.1493526  41.3751074  99.1741143   6.9356615  40.9570497  98.8231560
   6.4132230  42.2797166  99.3422791   6.3203603  46.8123924  93.8729800
   5.6849436  46.8858551  94.5850704   5.9901010  47.4017523  93.1948879
  11.5501953  41.3126307 100.0774122  12.2827125  40.7425524 100.3111951
  10.7941309  40.9247908 100.5180627   0.8246532  44.2743402  93.5690775
   0.7082790  43.5988305  94.2371859   0.9348792  43.7875775  92.7522928
   3.1678073  43.7353549  97.2737464   2.8036280  43.2084170  97.9850385
   4.0245189  43.3452018  97.1003949   9.0727373  35.0247881 104.5368730
   8.7410698  35.8943292 104.3129945   8.4772987  34.7084165 105.2162761
   2.8083560  38.7643448  92.2698813   2.9757962  39.6323685  92.6369284
   2.6180729  38.9270730  91.3460102   5.5658893  47.2260427 103.9364643
   5.2659616  48.1285466 103.8280450   5.2209952  46.9592610 104.7885796
   8.9656037  39.7442967 101.6162080   8.0572914  39.6758376 101.3220841
   8.9143633  40.2214912 102.4443906   2.7872781  41.2201106  93.2545479
   2.6672406  41.6658157  94.0930960   2.0925369  41.5686424  92.6959017
   3.0396902  41.1632613 109.5596977   2.2630237  41.7226533 109.5499842
   3.6787466  41.6489396 110.0811848  10.8317683  37.9459406 103.3939954
  10.1892063  38.2391939 102.7479749  10.3272612  37.8312326 104.1993151
   8.4857847  41.6922579  94.0825813   9.3975703  41.9249966  93.9073511
   7.9767494  42.2759623  93.5200892   1.2943275  43.9718066 109.1214944
   2.0357959  44.5103110 108.8449768   0.5880260  44.5984355 109.2786496
   6.7698614  46.1147207 107.7187106   7.1781970  45.6729617 106.9741738
   6.0475876  45.5399834 107.9721299   3.1229684  41.0519814 105.0920663
   3.9690880  41.4759227 105.2355312   3.0628322  40.3953438 105.7859226
   7.0927429  46.6748397 101.4739395   6.4636292  46.8394112 100.7715463
   6.7053091  47.0890007 102.2450359  10.9716661  47.6102835  98.8283759
  10.2867699  47.9901737  98.2780792  11.0560510  48.2198162  99.5615706
   6.2729130  38.7124182 106.7501837   6.0290062  39.4666243 106.2136112
   6.5489060  39.0909530 107.5849084   8.2267593  45.2562794 105.4279102
   8.4384488  45.8994554 104.7513483   8.1797341  44.4225111 104.9601032
   5.8293822  37.8680615 102.3315674   4.9678301  38.1661869 102.6232412
   5.8556256  38.0851014 101.3996707   2.6455391  46.4122806  98.7389480
   3.1093736  46.6910509  97.9494102   2.3812189  45.5106250  98.5562571
   1.5824277  42.5345958  95.5479045   2.2848320  42.9867002  96.0152971
   1.2504906  41.8929777  96.1758938   9.3413421  48.1334750 103.6001459
  10.1630864  47.7314937 103.3184141   9.3375823  48.0302984 104.5517575
   3.1070024  47.6818793 105.7562170   3.1714456  48.1439200 106.5920342
   2.3980948  47.0516158 105.8844480  17.4319414  44.4773498  99.9486431
  16.6783122  43.9080896  99.7930435  17.5666955  44.4436163 100.8957066
   2.8218042  49.3486901  95.6241150   2.6863716  50.1938436  96.0525998
   3.3627854  49.5506178  94.8607084   2.2253342  36.8436360 109.8775762
   2.9663056  37.4443513 109.7980225   2.4571265  36.1013997 109.3193805
   4.4486518  49.9710467 109.7541492   4.0050372  49.1846846 109.4362397
   5.1103732  50.1589618 109.0885383   6.5467756  50.2513267 107.7822894
   6.5286231  51.0722148 107.2903163   7.4687676  50.1267342 108.0073035
   3.0040810  47.7657396 108.6246402   3.5369147  47.0045685 108.3945710
   2.4754891  47.4731048 109.3670556   6.1710505  32.8717462 104.1540044
   5.8274775  33.7619104 104.0779154   6.5389468  32.6819120 103.2909629
   6.1360788  42.8626074  92.6612479   5.6207411  43.6330678  92.9000866
   5.8638096  42.1891210  93.2845540   3.7207899  37.7075774  97.7197717
   2.8649495  37.3182625  97.5403356   4.1334851  37.7867735  96.8597503
   5.2507046  35.2422118 102.1189277   4.7471841  35.2052253 101.3057082
   5.5437652  36.1514860 102.1785934   1.4949931  35.3260847 101.1255459
   2.3602928  35.1303656 100.7661348   1.5627440  35.0971199 102.0524815
  11.1095062  45.6158428  94.5965652  10.3324505  45.2769588  94.1520814
  11.7886543  45.6211051  93.9220617   5.9247091  40.7353166  94.4872260
   5.6197227  41.0499315  95.3382403   6.8777533  40.8134586  94.5299593
   4.3693523  46.8943389  96.1365214   3.8414885  46.1596149  95.8238451
   3.8681026  47.6718065  95.8905182   9.3486369  45.0892409 101.2532260
   8.6910043  45.7791671 101.3412389  10.1526768  45.4788841 101.5966247
   8.1591828  43.4436782  99.3036202   8.6723710  44.0766774  99.8057912
   8.8093052  42.8437978  98.9379562   1.4034918  34.4304304  97.2246895
   0.7499331  34.1153321  96.6003510   1.3615392  33.8080045  97.9506718
   2.5146123  44.7123599  89.1400187   1.6073185  44.4812853  89.3391336
   3.0117155  43.9161218  89.3274169   5.4214202  53.4221106  92.0596873
   4.7475901  53.7252803  92.6681831   5.8080024  54.2250187  91.7102330
   4.6372659  40.9186238 101.5494543   3.7195220  41.1401185 101.3916231
   5.0532802  40.9932548 100.6906250   5.4207706  42.3177653  96.6797223
   6.1679525  42.8299051  96.3704345   5.6899296  41.9961706  97.5401616
   3.6934357  44.8136194  93.6624177   2.7845576  44.5295227  93.7596647
   3.7229440  45.2335273  92.8027484   8.9253624  48.4242784  97.4315345
   8.4715951  47.5833693  97.4880535   8.2947591  49.0604182  97.7690125
   7.8686544  39.3534770  98.6616012   7.1309300  38.8412156  98.9926255
   8.1213317  38.9135151  97.8499289   7.3686563  50.2619280  98.3665163
   7.6609538  50.8224337  97.6477528   7.8785184  50.5547841  99.1218322
   7.9698171  32.1311022  99.2557781   8.2757048  31.2708385  98.9683697
   8.6950776  32.7228642  99.0556775   2.2419251  42.4264815  99.7633973
   2.2967860  41.4738651  99.6876449   1.4310453  42.5824254 100.2475271
   3.3910444  46.3544938  91.0012256   2.9529874  45.6380797  90.5417893
   4.1320885  46.5821053  90.4397347   2.3320188  51.0399631  99.4558616
   2.2896367  51.2660478  98.5267148   3.2482887  50.8063006  99.6044417
   5.7785822  41.5083699 106.3539245   6.1335210  41.7355172 107.2133711
   6.4257953  41.8402076 105.7316501  11.5083559  44.6302135  97.0588574
  11.3701458  44.8203731  96.1309764  11.1519778  45.3921518  97.5156625
  11.5352939  46.6978662 102.0699846  11.9689445  46.6053951 102.9182900
  12.2484519  46.6736162 101.4319862   5.2680834  50.2980756 103.6032946
   5.3217856  50.8671692 104.3710662   4.3995615  50.4682641 103.2386984
  12.3968488  46.7402362 104.6032731  12.5904378  47.6448173 104.8492006
  12.2969106  46.2809782 105.4371316   4.0504799  36.6260253 107.1023059
   3.4032714  37.3250203 107.0087535   4.8205814  37.0596397 107.4699307
   7.4583597  46.8909105 110.1773612   7.3069103  46.6619657 109.2603696
   7.4488276  47.8479707 110.1904957   4.2268933  44.4641018 105.1619878
   5.1560993  44.6152178 104.9888846   3.8059963  44.5525039 104.3068525
   3.0257265  48.4891682 102.9318416   2.8868351  48.1210467 103.8044354
   2.2371861  49.0039322 102.7602374   3.6205417  53.5900779  94.2743952
   3.7957173  53.1188822  95.0889575   2.9338205  54.2166545  94.5025213
   4.5762480  47.8673285 100.3207254   4.2412313  47.8274055 101.2164904
   4.0766426  47.2018001  99.8477664   7.5121672  45.2129319  90.5944313
   6.8950843  44.4876148  90.4977366   7.0438160  45.9738680  90.2511388
   1.1789025  42.9860874 105.3343514   1.8888643  42.3454067 105.2930133
   1.1358333  43.2373769 106.2569695   9.1675804  49.9228228 108.2550094
   9.1088350  49.2387448 107.5880677   9.5695322  50.6647218 107.8030720
   9.1693211  47.8867812 106.4864073   8.2819990  47.5493733 106.6090472
   9.7391762  47.1550843 106.7232839   2.6994364  52.5469264 103.4525317
   2.6264536  53.3524236 103.9644621   2.2571757  52.7461230 102.6273338
   2.4884144  51.7841034  96.9628138   1.7051666  52.3262714  97.0566363
   3.1876889  52.3015014  97.3622379   5.7980794  37.5935664  99.6062344
   6.2949494  36.8405626  99.2863414   5.0267776  37.6299980  99.0405553
  13.6510551  43.2976029 101.2480635  13.6400428  44.1800744 100.8774568
  12.7827931  42.9447580 101.0535172   5.1593048  52.4456098 105.6083475
   5.8721020  53.0803563 105.5359377   4.6683076  52.5419964 104.7923477
   6.8810575  46.3507351  97.1800767   5.9466853  46.4708813  97.0105471
   7.0587243  45.4479818  96.9160777   2.3815763  39.7353047  99.3334028
   2.0113550  39.1824087 100.0214934   2.8774855  39.1311180  98.7809028
  10.2683126  42.1924670  97.7150801  10.7343578  43.0252662  97.6411104
  10.7190627  41.7269652  98.4196060   8.3359357  48.5368491  94.7136953
   8.6119201  48.4225086  95.6230827   7.4663856  48.1385976  94.6749126
   8.2399789  34.5605257 101.7541702   7.3262869  34.7909484 101.9223909
   8.6692890  34.6443701 102.6055735   8.0106247  42.7495149 104.2541596
   7.3577698  42.9971056 103.5994049   8.3886627  41.9359287 103.9204074
   4.9713421  52.7854842  98.3569767   5.1535816  51.9676498  98.8197519
   5.7946407  53.0022534  97.9194657   5.3055587  51.7123027  95.6184815
   5.8343353  51.2015482  95.0054977   5.5683806  51.3965558  96.4830348
   4.0593820  43.4914960 110.7407633   3.3834457  43.3909089 111.4110009
   4.8821454  43.3354174 111.2043631   2.8016603  54.7981888 104.9765249
   3.3534911  54.9613509 105.7414335   3.1422797  55.3886325 104.3045274
   7.6527478  49.6243145 110.8313904   8.1967382  50.2373103 110.3368859
   7.0714322  50.1822723 111.3480917   5.9384990  52.7463863 101.9628932
   5.8136130  51.9453603 101.4539877   6.5964082  53.2410056 101.4742902
   8.0019899  50.5472883 103.5908482   7.0550234  50.4278234 103.5186808
   8.3502672  49.6595381 103.6734743   5.0066332  50.3425599  99.7912834
   4.8591295  49.4142307  99.9720404   5.8319826  50.3645690  99.3069909
   8.6100454  51.1654158 100.8777707   9.5347002  50.9597019 100.7402158
   8.4415757  50.9170559 101.7867048   1.5672017  37.3780717 105.0996394
   1.2268838  36.5788530 105.5017074   0.8611024  37.6782428 104.5273227
   2.2188489  34.4630030 103.5523717   3.0414558  33.9890508 103.4302607
   2.4626553  35.2420513 104.0522403   5.0027846  38.1963437  94.7844951
   5.2191461  39.0788075  94.4833779   4.5221914  37.8049650  94.0550593
   1.6023451  38.1451698 101.4096585   1.5885020  37.2492791 101.0728883
   2.3195879  38.1522362 102.0434871   3.4549581  38.5789038 103.4549713
   3.1967359  39.5006109 103.4534043   2.9234622  38.1819473 104.1450177
   8.3995770  51.6839826  96.2339798   8.5732648  51.1186248  95.4813651
   8.8924661  52.4840720  96.0519288   1.0060347  37.0266078  96.6784155
   1.1276258  36.0982725  96.8775043   0.7162389  37.0404764  95.7662471
   3.8751537  34.7120989  99.8150875   3.8973234  34.7760322  98.8602855
   4.2919596  33.8725498 100.0091381  14.2535161  44.4476248  97.8530098
  14.6966307  43.6983574  97.4549221  13.3761672  44.4386385  97.4703830
   9.3870943  51.0006590  93.3336696  10.0821847  51.6213283  93.5524011
   9.7294093  50.1501941  93.6089074  11.2862366  48.4506295  94.8624027
  11.8113690  48.7893568  94.1373347  11.1984718  47.5153311  94.6787162
   2.9482415  52.3640369 106.9913904   3.2569541  52.1189516 107.8636603
   3.7457897  52.5687008 106.5032774   2.9703027  54.5178279  99.2219280
   2.5308017  54.0254657  99.9152137   3.7211144  53.9751246  98.9811356
   0.4901426  38.5398076 110.8874088   0.5389582  39.4160199 110.5051858
   1.0323940  37.9975469 110.3145731  10.9756272  49.0839199 110.1675225
  10.1851816  49.0663338 109.6279725  10.7389626  49.6227493 110.9224262
  11.0954147  45.9331665 107.4807954  11.1452152  45.7681673 108.4223476
  10.9868070  45.0658924 107.0905834   8.3857909  41.9162593 108.7967260
   9.2867772  41.7769058 108.5051258   8.4605884  42.0817048 109.7365438
   2.7200715  39.2929448 107.6420447   1.8504024  39.5863014 107.3703035
   2.9560195  39.8769893 108.3627710  12.5972344  48.3528607 107.7249975
  12.3057152  48.7158588 108.5613436  11.9844475  47.6395615 107.5463307
  13.7968026  45.9181487 100.2452545  14.6314917  46.3571291 100.4090106
  13.9327155  45.4420140  99.4260791  10.8459532  43.4761222 106.1930033
  11.3213654  43.6688868 105.3848885   9.9225097  43.5320407 105.9473417
   5.4239749  35.5109065 105.1585867   5.9421692  36.2470092 104.8332356
   5.0694881  35.8173058 105.9932626   5.6752343  31.9309348 100.6786764
   5.9554096  31.2632537 101.3047190   6.4602950  32.1238443 100.1661428
   3.4785811  51.1068342  92.2411790   2.9059778  51.7258529  91.7882262
   4.0518605  51.6567703  92.7751712   9.5461201  40.3526982 104.4258339
  10.4978624  40.4525079 104.4470563   9.3764651  39.5605250 104.9356423
   7.5675580  37.4382565 104.6117740   6.9725513  37.7187578 103.9164228
   7.2825277  37.9276466 105.3834481   6.6983071  51.3905492  93.3720372
   7.6313744  51.3251053  93.5753248   6.6106284  52.2261759  92.9134905
   9.3271088  50.7071362  90.3324320   9.2484719  50.3731226  91.2260078
  10.1480754  51.1993130  90.3315792  12.0249279  43.5733101 103.5400638
  11.9925599  42.6349102 103.7260322  12.6349902  43.6517138 102.8066463
   3.8632610  42.4429154  89.5827843   4.8091714  42.3135362  89.6516261
   3.4846855  41.7043816  90.0597271  12.1743767  40.3644145 103.5858922
  11.6582816  39.5802601 103.3988851  13.0583716  40.0362861 103.7505441
   9.8354494  34.1085160  99.5454734   9.6379315  33.8000249 100.4298066
  10.4454200  34.8346799  99.6752664  17.8425829  44.6349108 102.6806675
  18.5729217  44.3734396 103.2414379  17.2332774  43.8977830 102.7208743
  15.9241126  42.7756971 103.2781126  15.1974289  42.6412936 102.6697618
  15.5088413  43.0833799 104.0837845   3.7471302  46.4946900 111.0428499
   4.6674312  46.6725499 111.2368546   3.7120885  45.5502946 110.8908199
   2.0475527  40.3679131  89.5182728   1.1406982  40.0712243  89.5945441
   2.3251508  40.0708949  88.6517014   3.6637593  34.9116020  95.6726969
   2.8538321  34.5663105  96.0482215   4.3522009  34.6023564  96.2614581
   5.5928141  33.9894067  97.2951266   6.1459179  34.4089521  97.9541289
   5.8298227  33.0629815  97.3374222   1.6161240  39.9781141 113.0754030
   1.5157967  40.9275498 113.0066121   1.3982782  39.6499380 112.2030100
   0.8174311  37.2266066  89.6594707   1.6793475  37.5520964  89.9190524
   1.0024656  36.4397562  89.1467773   8.9706948  36.0994592  96.8029930
   8.3905617  36.7579396  96.4207982   8.7042881  35.2771937  96.3917347
   7.4210514  35.4999650  99.0051250   7.9210293  35.6116185  98.1965569
   8.0646122  35.1960703  99.6452059   1.4792510  43.4078280 111.8919091
   0.9959592  44.2078640 112.0982980   1.5653449  43.4186225 110.9386535
   7.7531826  38.2594683  95.8586278   6.8657681  38.5444333  95.6406473
   8.1685815  38.0988446  95.0113555  11.1046362  38.2841204  99.5740617
  11.8806752  38.7737656  99.8465234  10.3794496  38.7099258 100.0312487
  13.5418921  38.9968823 100.6314558  14.1363412  38.7564559  99.9207866
  13.6145504  38.2775954 101.2588094   6.8975039  48.0239357  89.9534298
   7.6010890  48.2289360  90.5691954   6.1737688  48.5916119  90.2183382
   7.7272850  43.7749219  96.0736568   7.6708051  44.2317770  95.2344201
   8.2801192  43.0139903  95.8959411  11.5377656  39.5638951  96.8986688
  11.2814590  39.1635586  97.7294896  10.9130524  40.2782745  96.7736827
  15.8489993  42.3035024  99.4057979  15.2889551  42.3728213 100.1789541
  15.2433497  42.1276008  98.6857476   8.8061737  48.4621887  92.0032758
   9.6407341  48.0303085  91.8210233   8.6446080  48.2903900  92.9309653
   8.4607629  44.9654000  93.3689098   8.4056433  44.7998271  92.4277542
   7.8353684  45.6730033  93.5251287   5.7753536  47.2702912 112.6942660
   6.6444696  47.4443564 112.3329295   5.2960288  48.0897329 112.5718390
   1.7703754  34.4662109  92.9474416   1.7582424  35.4103949  93.1042687
   2.6627176  34.2832254  92.6533877   1.6993318  53.1430999 101.0342173
   0.7488949  53.1432861 100.9206545   2.0025805  52.3963734 100.5178207
   5.5855874  31.0604886  97.2020353   4.8188270  30.5063372  97.3477035
   5.9966579  31.1326754  98.0634504  17.4346012  58.9791538 102.0987935
  18.0724422  58.8598285 101.3951275  17.3166855  59.9272382 102.1575887
  14.2435718  58.9318966 102.0349460  13.9054230  58.8160031 101.1469995
  15.1125486  58.5310131 102.0150466  10.1022534  60.7854442  98.0246351
   9.5387399  60.6944379  97.2562638   9.9874929  59.9654347  98.5048843
  14.7255501  60.0853818 107.9935665  14.7144142  59.6906616 107.1216169
  14.8876141  59.3519890 108.5869437   7.6486966  62.2805634 100.8630571
   8.4408258  61.9396459 100.4476870   7.8883616  62.3900609 101.7832724
  15.6822093  64.4525410  93.3360816  15.0310072  65.0379490  92.9494829
  16.4766455  64.9831605  93.3955853   9.6077720  61.5414547  93.7347950
  10.3808596  60.9943534  93.5960826   9.9603119  62.4058796  93.9462411
  11.4462762  62.8690929 106.9414849  11.1552628  63.7736560 106.8261516
  12.0819747  62.9107457 107.6558919  12.3718969  60.2467778 103.5316209
  12.9682541  60.0223800 102.8173172  12.4293941  59.5052523 104.1341657
  11.9443998  57.7007213  91.3666400  12.1969518  57.1788735  90.6049863
  11.0068557  57.5373359  91.4693083  16.9887280  56.7042992  99.1741143
  17.7750370  56.2862415  98.8231560  17.2525985  57.6089084  99.3422791
  17.1597358  62.1415842  93.8729800  16.5243191  62.2150468  94.5850704
  16.8294764  62.7309441  93.1948879  22.3895708  56.6418225 100.0774122
  23.1220879  56.0717442 100.3111951  21.6335063  56.2539825 100.5180627
  11.6640286  59.6035319  93.5690775  11.5476544  58.9280223  94.2371859
  11.7742546  59.1167693  92.7522928  14.0071827  59.0645466  97.2737464
  13.6430034  58.5376087  97.9850385  14.8638943  58.6743935  97.1003949
  19.9121128  50.3539799 104.5368730  19.5804453  51.2235210 104.3129945
  19.3166741  50.0376083 105.2162761  13.6477314  54.0935366  92.2698813
  13.8151717  54.9615602  92.6369284  13.4574483  54.2562648  91.3460102
  16.4052647  62.5552345 103.9364643  16.1053371  63.4577384 103.8280450
  16.0603707  62.2884528 104.7885796   9.8565129  59.0066142  99.9701347
   8.9315625  58.8742356 100.1779039  10.1049542  59.7860361 100.4671290
  19.8049791  55.0734885 101.6162080  18.8966669  55.0050294 101.3220841
  19.7537387  55.5506830 102.4443906  13.6266535  56.5493024  93.2545479
  13.5066160  56.9950074  94.0930960  12.9319123  56.8978341  92.6959017
   7.2173940  58.6499415 100.8045136   7.3466321  58.9033894 101.7184548
   6.5371391  59.2427123 100.4849791  11.3873427  69.3196665  96.9035611
  11.3097457  70.2704490  96.9824091  10.7835071  68.9742538  97.5610537
  13.8790657  56.4924531 109.5596977  13.1023991  57.0518451 109.5499842
  14.5181220  56.9781314 110.0811848  21.6711438  53.2751324 103.3939954
  21.0285818  53.5683857 102.7479749  21.1666366  53.1604244 104.1993151
  19.3251601  57.0214497  94.0825813  20.2369457  57.2541883  93.9073511
  18.8161248  57.6051541  93.5200892  12.1337029  59.3009984 109.1214944
  12.8751714  59.8395028 108.8449768  11.4274015  59.9276273 109.2786496
  17.6092369  61.4439125 107.7187106  18.0175725  61.0021535 106.9741738
  16.8869630  60.8691752 107.9721299  13.9623439  56.3811731 105.0920663
  14.8084634  56.8051145 105.2355312  13.9022077  55.7245356 105.7859226
  17.9321184  62.0040315 101.4739395  17.3030046  62.1686029 100.7715463
  17.5446846  62.4181925 102.2450359  21.8110415  62.9394753  98.8283759
  21.1261454  63.3193654  98.2780792  21.8954265  63.5490080  99.5615706
  17.1122884  54.0416100 106.7501837  16.8683816  54.7958160 106.2136112
  17.3882815  54.4201447 107.5849084  19.0661347  60.5854712 105.4279102
  19.2778242  61.2286472 104.7513483  19.0191095  59.7517029 104.9601032
  16.6687576  53.1972533 102.3315674  15.8072055  53.4953786 102.6232412
  16.6950011  53.4142932 101.3996707  13.4849145  61.7414723  98.7389480
  13.9487491  62.0202426  97.9494102  13.2205944  60.8398168  98.5562571
  10.3773227  61.2886205 101.6769243  10.9474584  61.7173473 101.0386728
  10.9681338  61.0068789 102.3753429  12.4218032  57.8637876  95.5479045
  13.1242075  58.3158919  96.0152971  12.0898660  57.2221694  96.1758938
  10.8698393  56.4549632 109.9230254  10.2397054  57.1365913 110.1565651
  10.7634481  56.3432714 108.9783393   6.1643365  56.1221428 100.8496179
   5.3742419  56.3778957 100.3736289   6.6554613  56.9369766 100.9548219
  20.1807175  63.4626667 103.6001459  21.0024619  63.0606855 103.3184141
  20.1769578  63.3594902 104.5517575   8.1158111  56.4866008  97.8079655
   7.3189274  56.5984702  98.3263151   7.8883703  56.8252660  96.9420546
  13.9463778  63.0110711 105.7562170  14.0108211  63.4731118 106.5920342
  13.2374702  62.3808076 105.8844480   4.4481068  56.3751919 103.2811169
   4.6989107  57.2598929 103.5468745   4.9840617  56.1956520 102.5086261
  28.2713168  59.8065416  99.9486431  27.5176876  59.2372814  99.7930435
  28.4060709  59.7728080 100.8957066  13.6611796  64.6778818  95.6241150
  13.5257471  65.5230354  96.0525998  14.2021609  64.8798096  94.8607084
  10.1479136  50.7570398 112.2855506   9.7546081  50.2036597 112.9603150
  10.9645276  51.0680977 112.6762023   7.1141194  62.1954256  96.1969075
   7.6265714  62.9897507  96.3474640   7.7663906  61.4980547  96.1302677
   8.9236078  65.3120013  98.2791829   9.1002707  66.2337977  98.0912812
   9.7192912  64.9978432  98.7086208  13.0647097  52.1728277 109.8775762
  13.8056810  52.7735430 109.7980225  13.2965020  51.4305915 109.3193805
   8.2088435  57.3584644 108.1553992   8.0941950  56.4569902 108.4561091
   7.3532953  57.6048341 107.8038808  15.2880273  65.3002385 109.7541492
  14.8444127  64.5138763 109.4362397  15.9497486  65.4881535 109.0885383
  10.0467394  66.8298186 104.2802171  10.5974819  66.7015250 103.5079165
   9.2078870  67.1293075 103.9297064  17.3861511  65.5805185 107.7822894
  17.3679986  66.4014066 107.2903163  18.3081431  65.4559260 108.0073035
  13.8434565  63.0949314 108.6246402  14.3762902  62.3337602 108.3945710
  13.3148646  62.8022966 109.3670556  17.0104260  48.2009380 104.1540044
  16.6668529  49.0911022 104.0779154  17.3783222  48.0111038 103.2909629
   5.0790110  60.5242911  96.9728646   5.9165332  60.9339919  96.7562354
   5.2568378  59.5842353  96.9428840  16.9754542  58.1917991  92.6612479
  16.4601166  58.9622596  92.9000866  16.7031851  57.5183127  93.2845540
  14.5601653  53.0367692  97.7197717  13.7043250  52.6474542  97.5403356
  14.9728605  53.1159653  96.8597503  16.0900800  50.5714035 102.1189277
  15.5865596  50.5344170 101.3057082  16.3831407  51.4806778 102.1785934
  12.3343686  50.6552765 101.1255459  13.1996683  50.4595574 100.7661348
  12.4021195  50.4263117 102.0524815  21.9488817  60.9450346  94.5965652
  21.1718259  60.6061505  94.1520814  22.6280298  60.9502969  93.9220617
  16.7640846  56.0645083  94.4872260  16.4590981  56.3791233  95.3382403
  17.7171288  56.1426503  94.5299593  15.2087277  62.2235307  96.1365214
  14.6808639  61.4888066  95.8238451  14.7074780  63.0009983  95.8905182
  20.1880123  60.4184327 101.2532260  19.5303798  61.1083589 101.3412389
  20.9920523  60.8080759 101.5966247   9.9406005  52.8854973  98.4971826
  10.5149757  52.6630154  97.7645019  10.5276987  52.9543667  99.2500427
  18.9985582  58.7728700  99.3036202  19.5117464  59.4058692  99.8057912
  19.6486806  58.1729895  98.9379562  10.2675592  54.9159434  92.5167711
   9.4312904  55.2534120  92.8376986  10.1280362  54.7808414  91.5794848
  12.2428673  49.7596222  97.2246895  11.5893085  49.4445239  96.6003510
  12.2009147  49.1371962  97.9506718  13.3539878  60.0415517  89.1400187
  12.4466939  59.8104770  89.3391336  13.8510910  59.2453136  89.3274169
  16.2607957  68.7513024  92.0596873  15.5869655  69.0544721  92.6681831
  16.6473778  69.5542104  91.7102330  15.4766413  56.2478155 101.5494543
  14.5588974  56.4693102 101.3916231  15.8926557  56.3224466 100.6906250
  16.2601461  57.6469571  96.6797223  17.0073280  58.1590968  96.3704345
  16.5293050  57.3253624  97.5401616  14.5328111  60.1428112  93.6624177
  13.6239330  59.8587145  93.7596647  14.5623195  60.5627190  92.8027484
  19.7647378  63.7534701  97.4315345  19.3109706  62.9125611  97.4880535
  19.1341345  64.3896100  97.7690125  18.7080298  54.6826687  98.6616012
  17.9703055  54.1704074  98.9926255  18.9607072  54.2427069  97.8499289
  18.2080318  65.5911198  98.3665163  18.5003292  66.1516255  97.6477528
  18.7178938  65.8839759  99.1218322  18.8091925  47.4602939  99.2557781
  19.1150802  46.6000303  98.9683697  19.5344530  48.0520560  99.0556775
   5.1016281  57.8633626  97.6439379   4.9040681  57.2702987  96.9190446
   4.5462945  57.5585836  98.3615318  13.0813005  57.7556732  99.7633973
  13.1361615  56.8030569  99.6876449  12.2704207  57.9116171 100.2475271
  14.2304199  61.6836855  91.0012256  13.7923629  60.9672714  90.5417893
  14.9714640  61.9112970  90.4397347  11.0205365  56.3733792  97.5224351
  10.2073231  56.6727963  97.9289544  11.5164359  55.9789481  98.2398834
  13.1713943  66.3691549  99.4558616  13.1290122  66.5952395  98.5267148
  14.0876642  66.1354924  99.6044417  16.6179577  56.8375617 106.3539245
  16.9728964  57.0647090 107.2133711  17.2651708  57.1693993 105.7316501
  22.3477314  59.9594052  97.0588574  22.2095212  60.1495648  96.1309764
  21.9913532  60.7213435  97.5156625  10.5119440  53.9452148 103.1385586
  11.1518819  53.8040907 102.4408550   9.6796970  53.6586661 102.7624188
  22.3746693  62.0270579 102.0699846  22.8083200  61.9345869 102.9182900
  23.0878274  62.0028080 101.4319862  11.2879744  63.2454578  99.2520579
  12.0820342  62.7504898  99.0503154  10.5771436  62.7172441  98.8888284
  16.1074588  65.6272674 103.6032946  16.1611610  66.1963610 104.3710662
  15.2389370  65.7974559 103.2386984   7.5962507  57.3897660  95.3280331
   6.6660095  57.3282115  95.5450294   7.6919979  56.8673613  94.5316973
   7.5148056  53.9152473  97.9158573   7.7754873  54.8297806  97.8067734
   8.3365229  53.4476915  98.0655186   8.9872982  55.3290230 105.0857398
   9.6596035  55.1207592 104.4370047   8.1602768  55.1312316 104.6462630
  23.2362243  62.0694280 104.6032731  23.4298133  62.9740091 104.8492006
  23.1362861  61.6101699 105.4371316  14.8898554  51.9552171 107.1023059
  14.2426469  52.6542120 107.0087535  15.6599569  52.3888315 107.4699307
  18.2977351  62.2201023 110.1773612  18.1462858  61.9911575 109.2603696
  18.2882031  63.1771624 110.1904957  15.0662688  59.7932936 105.1619878
  15.9954748  59.9444095 104.9888846  14.6453718  59.8816956 104.3068525
  13.8651020  63.8183600 102.9318416  13.7262105  63.4502384 103.8044354
  13.0765616  64.3331239 102.7602374  14.4599172  68.9192697  94.2743952
  14.6350927  68.4480740  95.0889575  13.7731960  69.5458463  94.5025213
  15.4156235  63.1965203 100.3207254  15.0806067  63.1565973 101.2164904
  14.9160181  62.5309919  99.8477664   9.3900479  58.6032833 105.8459835
   9.2520277  57.8713072 106.4471374  10.3005402  58.5141733 105.5644023
  18.3515426  60.5421237  90.5944313  17.7344597  59.8168065  90.4977366
  17.8831915  61.3030597  90.2511388  12.0182779  58.3152792 105.3343514
  12.7282398  57.6745984 105.2930133  11.9752088  58.5665687 106.2569695
  20.0069558  65.2520145 108.2550094  19.9482104  64.5679366 107.5880677
  20.4089077  65.9939135 107.8030720  10.7311713  55.3018010 107.1539154
  10.1949070  54.8508748 107.8060750  10.1428422  55.4363919 106.4109618
   9.0260257  72.0682059 101.0483813   9.2656855  72.7000583 101.7262831
   8.1829453  71.7170099 101.3349172  10.1413972  54.7606661  89.7165618
   9.2643439  54.6395462  89.3527864  10.6171725  53.9692740  89.4644506
  20.0086965  63.2159729 106.4864073  19.1213744  62.8785651 106.6090472
  20.5785516  62.4842761 106.7232839   1.6616113  59.5483821  99.8107125
   2.3487152  59.2345551  99.2228140   1.5064241  60.4525186  99.5374376
   6.4650835  54.4374018 104.2392148   6.3809023  53.8299687 103.5042558
   5.6433541  54.9283036 104.2401645  13.5388119  67.8761182 103.4525317
  13.4658290  68.6816153 103.9644621  13.0965512  68.0753148 102.6273338
  13.3277898  67.1132952  96.9628138  12.5445420  67.6554632  97.0566363
  14.0270644  67.6306931  97.3622379  16.6374549  52.9227581  99.6062344
  17.1343248  52.1697544  99.2863414  15.8661530  52.9591898  99.0405553
  24.4904306  58.6267947 101.2480635  24.4794182  59.5092662 100.8774568
  23.6221685  58.2739498 101.0535172  15.9986802  67.7748016 105.6083475
  16.7114775  68.4095481 105.5359377  15.5076831  67.8711882 104.7923477
  17.7204329  61.6799268  97.1800767  16.7860608  61.8000731  97.0105471
  17.8980998  60.7771735  96.9160777  13.2209517  55.0644964  99.3334028
  12.8507305  54.5116005 100.0214934  13.7168610  54.4603098  98.7809028
  21.1076881  57.5216588  97.7150801  21.5737333  58.3544579  97.6411104
  21.5584381  57.0561569  98.4196060  11.0498716  65.5242459 106.4289046
  11.7508175  66.1578942 106.5818440  10.5793831  65.8657191 105.6684685
  19.1753112  63.8660409  94.7136953  19.4512956  63.7517004  95.6230827
  18.3057610  63.4677894  94.6749126  19.0793543  49.8897175 101.7541702
  18.1656623  50.1201402 101.9223909  19.5086645  49.9735619 102.6055735
  18.8500002  58.0787067 104.2541596  18.1971452  58.3262974 103.5994049
  19.2280382  57.2651205 103.9204074  15.8107176  68.1146760  98.3569767
  15.9929570  67.2968416  98.8197519  16.6340162  68.3314452  97.9194657
  16.1449341  67.0414945  95.6184815  16.6737108  66.5307400  95.0054977
  16.4077561  66.7257475  96.4830348  14.8987575  58.8206878 110.7407633
  14.2228212  58.7201007 111.4110009  15.7215209  58.6646091 111.2043631
   6.6466434  65.0578814 103.3620149   7.2319871  64.3122502 103.4948053
   6.4491272  65.3682771 104.2456813   9.5005089  68.0930062  98.3782591
   8.8315464  68.5776189  97.8946631   9.3617959  68.3399282  99.2925970
   1.2384089  57.6284414 102.0824592   1.2768188  57.0948005 102.8761710
   0.7324381  57.1019620 101.4635569  13.6410358  70.1273805 104.9765249
  14.1928666  70.2905427 105.7414335  13.9816551  70.7178243 104.3045274
   8.6174851  52.4748955 105.5787134   8.6816177  53.3363786 105.1664532
   8.5541971  51.8622957 104.8459493   8.0927123  54.5472088 109.2260168
   8.7199162  54.1649165 109.8397693   7.2355042  54.3286289 109.5915861
  18.4921232  64.9535063 110.8313904  19.0361136  65.5665021 110.3368859
  17.9108077  65.5114641 111.3480917   4.8692666  56.3548517  95.1578523
   5.1646107  55.4459195  95.1045577   3.9680702  56.3336256  94.8359526
  16.7778745  68.0755781 101.9628932  16.6529884  67.2745521 101.4539877
  17.4357836  68.5701974 101.4742902   8.3986913  54.4304513 101.1406072
   7.6773499  55.0440481 101.0013545   9.1880169  54.9662278 101.0622718
  18.8413653  65.8764801 103.5908482  17.8943989  65.7570152 103.5186808
  19.1896426  64.9887299 103.6734743  11.2013227  51.7658940 107.4146724
  11.7247629  52.0121236 108.1773033  10.9825560  52.5978975 106.9949861
   6.5980508  54.0362614  95.2817848   6.2693214  53.1559993  95.0992954
   6.9519879  53.9810283  96.1694238  15.8460087  65.6717517  99.7912834
  15.6985049  64.7434224  99.9720404  16.6713580  65.6937608  99.3069909
   9.7122331  54.3235584  95.6493326  10.0518403  54.8521505  94.9271934
  10.1594451  54.6615990  96.4251893  19.4494209  66.4946076 100.8777707
  20.3740756  66.2888937 100.7402158  19.2809512  66.2462477 101.7867048
  12.4065772  52.7072635 105.0996394  12.0662592  51.9080448 105.5017074
  11.7004778  53.0074346 104.5273227  13.0582244  49.7921947 103.5523717
  13.8808313  49.3182425 103.4302607  13.3020307  50.5712431 104.0522403
  11.6990478  52.8210206  93.8486619  12.4198841  53.1991458  93.3450336
  11.0755782  53.5399082  93.9521597  15.8421601  53.5255355  94.7844951
  16.0585215  54.4079993  94.4833779  15.3615668  53.1341568  94.0550593
  10.5820822  56.4841068 101.3615696  10.4365403  56.7981371 102.2539977
  10.1046026  57.1025968 100.8086594  12.4417205  53.4743616 101.4096585
  12.4278774  52.5784709 101.0728883  13.1589633  53.4814280 102.0434871
  14.2943336  53.9080956 103.4549713  14.0361114  54.8298027 103.4534043
  13.7628376  53.5111391 104.1450177  19.2389525  67.0131743  96.2339798
  19.4126402  66.4478166  95.4813651  19.7318416  67.8132638  96.0519288
   5.0566485  59.0246412 104.3003357   4.5119953  59.8006220 104.4323631
   5.9345834  59.3717217 104.1422478  11.8454101  52.3557996  96.6784155
  11.9670012  51.4274642  96.8775043  11.5556144  52.3696682  95.7662471
  14.7145292  50.0412907  99.8150875  14.7366988  50.1052240  98.8602855
  15.1313351  49.2017415 100.0091381  25.0928916  59.7768166  97.8530098
  25.5360062  59.0275491  97.4549221  24.2155426  59.7678302  97.4703830
  20.2264697  66.3298508  93.3336696  20.9215602  66.9505200  93.5524011
  20.5687847  65.4793859  93.6089074   5.8432506  58.1516309 107.1933514
   5.1014242  58.2998944 107.7798144   5.5225251  58.4124574 106.3300263
  22.1256120  63.7798213  94.8624027  22.6507444  64.1185486  94.1373347
  22.0378473  62.8445228  94.6787162  13.7876169  67.6932287 106.9913904
  14.0963295  67.4481434 107.8636603  14.5851651  67.8978925 106.5032774
  13.8096781  69.8470196  99.2219280  13.3701771  69.3546575  99.9152137
  14.5604898  69.3043164  98.9811356   6.2889120  66.0381737  99.2243908
   7.1147140  65.7385509  98.8442552   5.9383172  65.2689360  99.6733697
  11.2570653  65.3908205 101.2941582  10.6350663  64.7278911 100.9943810
  11.9275520  65.4169337 100.6115230   4.4897725  63.9568064 100.1832842
   3.6529633  63.5290238 100.0016843   4.4621371  64.1500507 101.1203633
  11.3295181  53.8689994 110.8874088  11.3783336  54.7452116 110.5051858
  11.8717695  53.3267387 110.3145731  21.8150026  64.4131117 110.1675225
  21.0245570  64.3955256 109.6279725  21.5783381  64.9519410 110.9224262
  21.9347901  61.2623583 107.4807954  21.9845906  61.0973591 108.4223476
  21.8261825  60.3950842 107.0905834  10.8184160  63.9412129  94.7700043
  10.9672281  64.6247593  94.1166715  11.6250604  63.9217219  95.2849498
  19.2251664  57.2454511 108.7967260  20.1261527  57.1060976 108.5051258
  19.2999638  57.4108966 109.7365438  13.5594469  54.6221366 107.6420447
  12.6897779  54.9154932 107.3703035  13.7953950  55.2061811 108.3627710
  23.4366098  63.6820525 107.7249975  23.1450907  64.0450505 108.5613436
  22.8238230  62.9687533 107.5463307  24.6361781  61.2473404 100.2452545
  25.4708672  61.6863208 100.4090106  24.7720909  60.7712058  99.4260791
  21.6853287  58.8053139 106.1930033  22.1607408  58.9980786 105.3848885
  20.7618852  58.8612325 105.9473417   8.5736793  59.9677306  95.7761112
   8.3282835  59.0639636  95.9741322   8.7432708  59.9694457  94.8340590
  16.2633503  50.8400983 105.1585867  16.7815447  51.5762010 104.8332356
  15.9088636  51.1464976 105.9932626   7.8432441  55.7005664  93.2747273
   7.1501686  55.7750019  92.6187309   7.5984193  54.9366008  93.7968790
  16.5146097  47.2601265 100.6786764  16.7947851  46.5924454 101.3047190
  17.2996704  47.4530361 100.1661428  14.3179566  66.4360259  92.2411790
  13.7453533  67.0550446  91.7882262  14.8912359  66.9859621  92.7751712
  20.3854956  55.6818899 104.4258339  21.3372378  55.7816997 104.4470563
  20.2158406  54.8897168 104.9356423  18.4069335  52.7674483 104.6117740
  17.8119267  53.0479495 103.9164228  18.1219032  53.2568384 105.3834481
  17.5376825  66.7197409  93.3720372  18.4707499  66.6542971  93.5753248
  17.4500038  67.5553676  92.9134905  20.1664842  66.0363280  90.3324320
  20.0878474  65.7023143  91.2260078  20.9874509  66.5285048  90.3315792
  22.8643033  58.9025019 103.5400638  22.8319353  57.9641020 103.7260322
  23.4743657  58.9809056 102.8066463  14.7026364  57.7721072  89.5827843
  15.6485469  57.6427280  89.6516261  14.3240609  57.0335734  90.0597271
  23.0137522  55.6936062 103.5858922  22.4976570  54.9094519 103.3988851
  23.8977470  55.3654779 103.7505441  20.6748249  49.4377078  99.5454734
  20.4773070  49.1292166 100.4298066  21.2847954  50.1638717  99.6752664
  28.6819583  59.9641026 102.6806675  29.4122972  59.7026314 103.2414379
  28.0726529  59.2269748 102.7208743  26.7634880  58.1048888 103.2781126
  26.0368044  57.9704853 102.6697618  26.3482167  58.4125717 104.0837845
  14.5865057  61.8238818 111.0428499  15.5068066  62.0017417 111.2368546
  14.5514640  60.8794864 110.8908199  12.8869281  55.6971048  89.5182728
  11.9800737  55.4004161  89.5945441  13.1645262  55.4000867  88.6517014
   3.8047222  57.0177412  99.9681774   3.4850006  56.1642720  99.6756148
   3.2580650  57.2325990 100.7239741   7.5827129  59.7339853 103.6851281
   7.8013139  60.6656961 103.7039314   7.9952903  59.3747827 104.4706084
  14.5031347  50.2407938  95.6726969  13.6932075  49.8955023  96.0482215
  15.1915764  49.9315482  96.2614581  16.4321895  49.3185985  97.2951266
  16.9852934  49.7381438  97.9541289  16.6691982  48.3921733  97.3374222
  12.4554995  55.3073059 113.0754030  12.3551721  56.2567416 113.0066121
  12.2376537  54.9791297 112.2030100  11.6568066  52.5557984  89.6594707
  12.5187230  52.8812882  89.9190524  11.8418410  51.7689480  89.1467773
   3.6735482  60.6380323 101.9374896   2.9798953  60.2234276 101.4244850
   4.4208473  60.6800860 101.3408315  19.8100702  51.4286510  96.8029930
  19.2299371  52.0871314  96.4207982  19.5436635  50.6063855  96.3917347
  18.2604269  50.8291568  99.0051250  18.7604047  50.9408102  98.1965569
  18.9039877  50.5252621  99.6452059  12.3186265  58.7370197 111.8919091
  11.8353346  59.5370558 112.0982980  12.4047204  58.7478142 110.9386535
   5.5872224  60.5698577  99.8140911   5.5642912  60.6686264  98.8622794
   5.8972861  61.4163728 100.1358077   8.2459602  62.6274732 103.9287525
   9.2002856  62.5958674 103.8617457   8.0472126  62.1665356 104.7437751
   8.8358984  61.1975848 106.4958323   9.6551873  61.6919927 106.5193160
   9.1095792  60.2807816 106.4675890  18.5925580  53.5886600  95.8586278
  17.7051435  53.8736251  95.6406473  19.0079570  53.4280364  95.0113555
  21.9440117  53.6133121  99.5740617  22.7200507  54.1029574  99.8465234
  21.2188251  54.0391176 100.0312487  24.3812675  54.3260741 100.6314558
  24.9757166  54.0856477  99.9207866  24.4539259  53.6067871 101.2588094
   6.6009831  68.1694352 100.9457723   6.4664299  67.4094753 100.3795721
   6.1841893  68.8935251 100.4786512  17.7368794  63.3531275  89.9534298
  18.4404644  63.5581278  90.5691954  17.0131443  63.9208037  90.2183382
  18.5666604  59.1041136  96.0736568  18.5101806  59.5609688  95.2344201
  19.1194947  58.3431821  95.8959411  22.3771410  54.8930868  96.8986688
  22.1208344  54.4927504  97.7294896  21.7524278  55.6074662  96.7736827
  26.6883748  57.6326942  99.4057979  26.1283306  57.7020131 100.1789541
  26.0827251  57.4567926  98.6857476   9.7578957  69.0663669 101.1576166
   9.6411341  70.0109101 101.0554856   8.9371403  68.7637230 101.5461965
  19.6455491  63.7913804  92.0032758  20.4801095  63.3595003  91.8210233
  19.4839834  63.6195818  92.9309653  19.3001384  60.2945918  93.3689098
  19.2450187  60.1290189  92.4277542  18.6747439  61.0021951  93.5251287
   4.0893898  55.5313982 107.1950520   4.7352762  55.0212936 107.6837745
   3.8811050  56.2682664 107.7693945  16.6147291  62.5994830 112.6942660
  17.4838450  62.7735482 112.3329295  16.1354042  63.4189246 112.5718390
  12.6097509  49.7954027  92.9474416  12.5976179  50.7395867  93.1042687
  13.5020931  49.6124172  92.6533877  10.7833471  69.7191931 104.3732094
  11.6860718  69.7515541 104.6898589  10.5570841  68.7892381 104.3878430
  12.5387073  68.4722917 101.0342173  11.5882704  68.4724779 100.9206545
  12.8419559  67.7255652 100.5178207  16.4249628  46.3896803  97.2020353
  15.6582024  45.8355290  97.3477035  16.8360333  46.4618672  98.0634504
   8.4291389  52.6781599 111.2925534   9.2922851  52.3218404 111.5028859
   7.8556800  52.3395494 111.9800938  28.2739766  74.3083455 102.0987935
  28.9118176  74.1890203 101.3951275  28.1560609  75.2564299 102.1575887
  25.0829473  74.2610884 102.0349460  24.7447984  74.1451948 101.1469995
  25.9519241  73.8602049 102.0150466  20.9416288  76.1146360  98.0246351
  20.3781154  76.0236297  97.2562638  20.8268683  75.2946264  98.5048843
  25.5649256  75.4145735 107.9935665  25.5537896  75.0198534 107.1216169
  25.7269895  74.6811808 108.5869437  18.4880720  77.6097552 100.8630571
  19.2802012  77.2688376 100.4476870  18.7277370  77.7192527 101.7832724
  26.5215847  79.7817328  93.3360816  25.8703827  80.3671408  92.9494829
  27.3160210  80.3123523  93.3955853  20.4471474  76.8706465  93.7347950
  21.2202350  76.3235452  93.5960826  20.7996873  77.7350714  93.9462411
  22.2856517  78.1982847 106.9414849  21.9946383  79.1028478 106.8261516
  22.9213501  78.2399375 107.6558919  23.2112724  75.5759696 103.5316209
  23.8076296  75.3515718 102.8173172  23.2687695  74.8344441 104.1341657
  22.7837752  73.0299131  91.3666400  23.0363273  72.5080652  90.6049863
  21.8462311  72.8665276  91.4693083  27.8281035  72.0334909  99.1741143
  28.6144124  71.6154332  98.8231560  28.0919739  72.9381001  99.3422791
  27.9991112  77.4707760  93.8729800  27.3636945  77.5442386  94.5850704
  27.6688519  78.0601358  93.1948879  33.2289462  71.9710143 100.0774122
  33.9614634  71.4009359 100.3111951  32.4728818  71.5831743 100.5180627
  22.5034041  74.9327237  93.5690775  22.3870299  74.2572140  94.2371859
  22.6136301  74.4459611  92.7522928  24.8465582  74.3937384  97.2737464
  24.4823789  73.8668005  97.9850385  25.7032698  74.0035853  97.1003949
  30.7514882  65.6831717 104.5368730  30.4198207  66.5527128 104.3129945
  30.1560496  65.3668001 105.2162761  24.4871069  69.4227284  92.2698813
  24.6545471  70.2907520  92.6369284  24.2968238  69.5854565  91.3460102
  27.2446402  77.8844263 103.9364643  26.9447125  78.7869301 103.8280450
  26.8997461  77.6176446 104.7885796  20.6958883  74.3358059  99.9701347
  19.7709380  74.2034274 100.1779039  20.9443297  75.1152279 100.4671290
  30.6443546  70.4026803 101.6162080  29.7360423  70.3342211 101.3220841
  30.5931141  70.8798748 102.4443906  24.4660290  71.8784941  93.2545479
  24.3459915  72.3241992  94.0930960  23.7712878  72.2270259  92.6959017
  18.0567694  73.9791333 100.8045136  18.1860076  74.2325812 101.7184548
  17.3765146  74.5719041 100.4849791  22.2267182  84.6488583  96.9035611
  22.1491211  85.5996408  96.9824091  21.6228825  84.3034455  97.5610537
  24.7184411  71.8216448 109.5596977  23.9417746  72.3810369 109.5499842
  25.3574975  72.3073231 110.0811848  32.5105192  68.6043241 103.3939954
  31.8679572  68.8975774 102.7479749  32.0060121  68.4896162 104.1993151
  30.1645356  72.3506414  94.0825813  31.0763212  72.5833801  93.9073511
  29.6555003  72.9343459  93.5200892  22.9730784  74.6301902 109.1214944
  23.7145468  75.1686946 108.8449768  22.2667769  75.2568190 109.2786496
  28.4486123  76.7731042 107.7187106  28.8569479  76.3313453 106.9741738
  27.7263385  76.1983670 107.9721299  24.8017193  71.7103649 105.0920663
  25.6478389  72.1343063 105.2355312  24.7415831  71.0537273 105.7859226
  28.7714938  77.3332233 101.4739395  28.1423801  77.4977947 100.7715463
  28.3840600  77.7473842 102.2450359  32.6504170  78.2686671  98.8283759
  31.9655208  78.6485572  98.2780792  32.7348019  78.8781997  99.5615706
  27.9516639  69.3708017 106.7501837  27.7077571  70.1250078 106.2136112
  28.2276569  69.7493365 107.5849084  29.9055102  75.9146630 105.4279102
  30.1171997  76.5578390 104.7513483  29.8584850  75.0808946 104.9601032
  27.5081331  68.5264450 102.3315674  26.6465810  68.8245704 102.6232412
  27.5343765  68.7434849 101.3996707  24.3242900  77.0706641  98.7389480
  24.7881245  77.3494344  97.9494102  24.0599698  76.1690086  98.5562571
  21.2166981  76.6178122 101.6769243  21.7868338  77.0465391 101.0386728
  21.8075093  76.3360707 102.3753429  23.2611786  73.1929793  95.5479045
  23.9635829  73.6450837  96.0152971  22.9292414  72.5513612  96.1758938
  21.7092148  71.7841550 109.9230254  21.0790808  72.4657831 110.1565651
  21.6028235  71.6724632 108.9783393  17.0037120  71.4513346 100.8496179
  16.2136174  71.7070874 100.3736289  17.4948367  72.2661684 100.9548219
  31.0200930  78.7918585 103.6001459  31.8418373  78.3898772 103.3184141
  31.0163332  78.6886819 104.5517575  18.9551865  71.8157925  97.8079655
  18.1583029  71.9276619  98.3263151  18.7277458  72.1544577  96.9420546
  24.7857533  78.3402628 105.7562170  24.8501965  78.8023036 106.5920342
  24.0768457  77.7099993 105.8844480  15.2874823  71.7043836 103.2811169
  15.5382861  72.5890846 103.5468745  15.8234371  71.5248438 102.5086261
  39.1106923  75.1357334  99.9486431  38.3570631  74.5664732  99.7930435
  39.2454464  75.1019998 100.8957066  24.5005551  80.0070736  95.6241150
  24.3651225  80.8522272  96.0525998  25.0415363  80.2090014  94.8607084
  20.9872890  66.0862316 112.2855506  20.5939836  65.5328514 112.9603150
  21.8039031  66.3972894 112.6762023  17.9534948  77.5246174  96.1969075
  18.4659469  78.3189424  96.3474640  18.6057661  76.8272464  96.1302677
  19.7629833  80.6411930  98.2791829  19.9396461  81.5629895  98.0912812
  20.5586666  80.3270349  98.7086208  23.9040851  67.5020195 109.8775762
  24.6450565  68.1027348 109.7980225  24.1358774  66.7597833 109.3193805
  19.0482189  72.6876562 108.1553992  18.9335704  71.7861819 108.4561091
  18.1926707  72.9340259 107.8038808  26.1274027  80.6294302 109.7541492
  25.6837881  79.8430681 109.4362397  26.7891241  80.8173453 109.0885383
  20.8861148  82.1590104 104.2802171  21.4368573  82.0307167 103.5079165
  20.0472624  82.4584993 103.9297064  28.2255265  80.9097102 107.7822894
  28.2073740  81.7305983 107.2903163  29.1475185  80.7851178 108.0073035
  24.6828319  78.4241232 108.6246402  25.2156656  77.6629520 108.3945710
  24.1542400  78.1314884 109.3670556  27.8498014  63.5301298 104.1540044
  27.5062284  64.4202939 104.0779154  28.2176977  63.3402955 103.2909629
  15.9183865  75.8534828  96.9728646  16.7559087  76.2631837  96.7562354
  16.0962132  74.9134270  96.9428840  27.8148297  73.5209909  92.6612479
  27.2994920  74.2914514  92.9000866  27.5425605  72.8475045  93.2845540
  25.3995408  68.3659610  97.7197717  24.5437004  67.9766460  97.5403356
  25.8122360  68.4451570  96.8597503  26.9294555  65.9005953 102.1189277
  26.4259350  65.8636088 101.3057082  27.2225161  66.8098696 102.1785934
  23.1737440  65.9844683 101.1255459  24.0390437  65.7887491 100.7661348
  23.2414949  65.7555034 102.0524815  32.7882571  76.2742264  94.5965652
  32.0112014  75.9353423  94.1520814  33.4674052  76.2794887  93.9220617
  27.6034600  71.3937001  94.4872260  27.2984736  71.7083150  95.3382403
  28.5565042  71.4718421  94.5299593  26.0481032  77.5527224  96.1365214
  25.5202394  76.8179984  95.8238451  25.5468535  78.3301901  95.8905182
  31.0273878  75.7476245 101.2532260  30.3697552  76.4375506 101.3412389
  31.8314277  76.1372677 101.5966247  20.7799760  68.2146891  98.4971826
  21.3543511  67.9922072  97.7645019  21.3670742  68.2835585  99.2500427
  29.8379337  74.1020617  99.3036202  30.3511218  74.7350609  99.8057912
  30.4880561  73.5021813  98.9379562  21.1069347  70.2451352  92.5167711
  20.2706659  70.5826038  92.8376986  20.9674116  70.1100331  91.5794848
  23.0822427  65.0888139  97.2246895  22.4286840  64.7737157  96.6003510
  23.0402901  64.4663880  97.9506718  24.1933632  75.3707435  89.1400187
  23.2860694  75.1396688  89.3391336  24.6904664  74.5745054  89.3274169
  27.1001711  84.0804942  92.0596873  26.4263410  84.3836639  92.6681831
  27.4867533  84.8834022  91.7102330  26.3160168  71.5770073 101.5494543
  25.3982729  71.7985020 101.3916231  26.7320311  71.6516384 100.6906250
  27.0995215  72.9761489  96.6797223  27.8467034  73.4882886  96.3704345
  27.3686805  72.6545541  97.5401616  25.3721866  75.4720029  93.6624177
  24.4633085  75.1879062  93.7596647  25.4016949  75.8919108  92.8027484
  30.6041133  79.0826619  97.4315345  30.1503460  78.2417529  97.4880535
  29.9735100  79.7188017  97.7690125  29.5474053  70.0118605  98.6616012
  28.8096809  69.4995991  98.9926255  29.8000826  69.5718987  97.8499289
  29.0474072  80.9203116  98.3665163  29.3397047  81.4808173  97.6477528
  29.5572693  81.2131677  99.1218322  29.6485680  62.7894857  99.2557781
  29.9544557  61.9292220  98.9683697  30.3738285  63.3812477  99.0556775
  15.9410036  73.1925544  97.6439379  15.7434436  72.5994904  96.9190446
  15.3856700  72.8877754  98.3615318  23.9206760  73.0848650  99.7633973
  23.9755369  72.1322486  99.6876449  23.1097962  73.2408089 100.2475271
  25.0697953  77.0128773  91.0012256  24.6317383  76.2964632  90.5417893
  25.8108394  77.2404888  90.4397347  21.8599120  71.7025710  97.5224351
  21.0466985  72.0019880  97.9289544  22.3558114  71.3081399  98.2398834
  24.0107697  81.6983467  99.4558616  23.9683876  81.9244313  98.5267148
  24.9270396  81.4646841  99.6044417  27.4573331  72.1667534 106.3539245
  27.8122719  72.3939007 107.2133711  28.1045462  72.4985911 105.7316501
  33.1871068  75.2885970  97.0588574  33.0488967  75.4787566  96.1309764
  32.8307287  76.0505353  97.5156625  21.3513194  69.2744065 103.1385586
  21.9912574  69.1332824 102.4408550  20.5190725  68.9878579 102.7624188
  33.2140448  77.3562497 102.0699846  33.6476954  77.2637786 102.9182900
  33.9272028  77.3319998 101.4319862  22.1273498  78.5746496  99.2520579
  22.9214097  78.0796816  99.0503154  21.4165191  78.0464359  98.8888284
  26.9468343  80.9564591 103.6032946  27.0005365  81.5255528 104.3710662
  26.0783124  81.1266476 103.2386984  18.4356262  72.7189577  95.3280331
  17.5053850  72.6574033  95.5450294  18.5313734  72.1965530  94.5316973
  18.3541811  69.2444390  97.9158573  18.6148628  70.1589724  97.8067734
  19.1758983  68.7768833  98.0655186  19.8266736  70.6582147 105.0857398
  20.4989789  70.4499510 104.4370047  18.9996523  70.4604233 104.6462630
  34.0755997  77.3986198 104.6032731  34.2691887  78.3032008 104.8492006
  33.9756615  76.9393617 105.4371316  25.7292308  67.2844088 107.1023059
  25.0820223  67.9834038 107.0087535  26.4993323  67.7180232 107.4699307
  29.1371106  77.5492941 110.1773612  28.9856612  77.3203492 109.2603696
  29.1275785  78.5063542 110.1904957  25.9056442  75.1224853 105.1619878
  26.8348502  75.2736013 104.9888846  25.4847472  75.2108874 104.3068525
  24.7044774  79.1475518 102.9318416  24.5655860  78.7794302 103.8044354
  23.9159370  79.6623157 102.7602374  25.2992926  84.2484614  94.2743952
  25.4744682  83.7772657  95.0889575  24.6125714  84.8750380  94.5025213
  26.2549989  78.5257120 100.3207254  25.9199822  78.4857890 101.2164904
  25.7553935  77.8601836  99.8477664  20.2294233  73.9324750 105.8459835
  20.0914031  73.2004989 106.4471374  21.1399157  73.8433651 105.5644023
  29.1909181  75.8713155  90.5944313  28.5738352  75.1459983  90.4977366
  28.7225669  76.6322515  90.2511388  22.8576534  73.6444710 105.3343514
  23.5676152  73.0037902 105.2930133  22.8145842  73.8957605 106.2569695
  30.8463313  80.5812063 108.2550094  30.7875859  79.8971283 107.5880677
  31.2482831  81.3231053 107.8030720  21.5705468  70.6309928 107.1539154
  21.0342825  70.1800666 107.8060750  20.9822176  70.7655836 106.4109618
  19.8654011  87.3973977 101.0483813  20.1050610  88.0292501 101.7262831
  19.0223208  87.0462017 101.3349172  20.9807727  70.0898579  89.7165618
  20.1037193  69.9687380  89.3527864  21.4565480  69.2984657  89.4644506
  30.8480720  78.5451647 106.4864073  29.9607499  78.2077569 106.6090472
  31.4179271  77.8134678 106.7232839  12.5009867  74.8775739  99.8107125
  13.1880907  74.5637469  99.2228140  12.3457996  75.7817103  99.5374376
  17.3044589  69.7665935 104.2392148  17.2202778  69.1591605 103.5042558
  16.4827296  70.2574954 104.2401645  24.3781873  83.2053099 103.4525317
  24.3052045  84.0108071 103.9644621  23.9359266  83.4045065 102.6273338
  24.1671653  82.4424869  96.9628138  23.3839175  82.9846550  97.0566363
  24.8664398  82.9598849  97.3622379  27.4768303  68.2519499  99.6062344
  27.9737003  67.4989461  99.2863414  26.7055285  68.2883816  99.0405553
  35.3298060  73.9559864 101.2480635  35.3187937  74.8384580 100.8774568
  34.4615440  73.6031415 101.0535172  26.8380557  83.1039933 105.6083475
  27.5508529  83.7387398 105.5359377  26.3470585  83.2003799 104.7923477
  28.5598084  77.0091186  97.1800767  27.6254362  77.1292649  97.0105471
  28.7374752  76.1063653  96.9160777  24.0603272  70.3936882  99.3334028
  23.6901059  69.8407922 100.0214934  24.5562364  69.7895015  98.7809028
  31.9470635  72.8508505  97.7150801  32.4131087  73.6836497  97.6411104
  32.3978136  72.3853487  98.4196060  21.8892470  80.8534377 106.4289046
  22.5901930  81.4870860 106.5818440  21.4187585  81.1949108 105.6684685
  30.0146866  79.1952327  94.7136953  30.2906710  79.0808921  95.6230827
  29.1451365  78.7969812  94.6749126  29.9187298  65.2189092 101.7541702
  29.0050378  65.4493319 101.9223909  30.3480399  65.3027536 102.6055735
  29.6893756  73.4078984 104.2541596  29.0365207  73.6554892 103.5994049
  30.0674136  72.5943123 103.9204074  26.6500930  83.4438678  98.3569767
  26.8323325  82.6260333  98.8197519  27.4733916  83.6606370  97.9194657
  26.9843096  82.3706863  95.6184815  27.5130862  81.8599317  95.0054977
  27.2471315  82.0549393  96.4830348  25.7381329  74.1498795 110.7407633
  25.0621966  74.0492925 111.4110009  26.5608963  73.9938009 111.2043631
  17.4860188  80.3870732 103.3620149  18.0713625  79.6414420 103.4948053
  17.2885027  80.6974689 104.2456813  20.3398844  83.4221979  98.3782591
  19.6709219  83.9068107  97.8946631  20.2011713  83.6691200  99.2925970
  12.0777843  72.9576332 102.0824592  12.1161943  72.4239923 102.8761710
  11.5718136  72.4311538 101.4635569  24.4804112  85.4565723 104.9765249
  25.0322420  85.6197344 105.7414335  24.8210306  86.0470161 104.3045274
  19.4568605  67.8040873 105.5787134  19.5209932  68.6655704 105.1664532
  19.3935726  67.1914874 104.8459493  18.9320878  69.8764005 109.2260168
  19.5592917  69.4941083 109.8397693  18.0748797  69.6578207 109.5915861
  29.3314987  80.2826980 110.8313904  29.8754891  80.8956939 110.3368859
  28.7501831  80.8406559 111.3480917  15.7086421  71.6840434  95.1578523
  16.0039862  70.7751113  95.1045577  14.8074456  71.6628174  94.8359526
  27.6172499  83.4047698 101.9628932  27.4923639  82.6037438 101.4539877
  28.2751591  83.8993892 101.4742902  19.2380668  69.7596431 101.1406072
  18.5167253  70.3732399 101.0013545  20.0273923  70.2954196 101.0622718
  29.6807408  81.2056718 103.5908482  28.7337743  81.0862070 103.5186808
  30.0290181  80.3179217 103.6734743  22.0406981  67.0950857 107.4146724
  22.5641383  67.3413154 108.1773033  21.8219315  67.9270892 106.9949861
  17.4374262  69.3654532  95.2817848  17.1086968  68.4851911  95.0992954
  17.7913633  69.3102201  96.1694238  26.6853841  81.0009435  99.7912834
  26.5378804  80.0726142  99.9720404  27.5107335  81.0229525  99.3069909
  20.5516085  69.6527502  95.6493326  20.8912158  70.1813423  94.9271934
  20.9988206  69.9907908  96.4251893  30.2887963  81.8237993 100.8777707
  31.2134510  81.6180855 100.7402158  30.1203266  81.5754395 101.7867048
  23.2459526  68.0364552 105.0996394  22.9056347  67.2372366 105.5017074
  22.5398533  68.3366263 104.5273227  23.8975998  65.1213865 103.5523717
  24.7202067  64.6474343 103.4302607  24.1414062  65.9004349 104.0522403
  22.5384233  68.1502123  93.8486619  23.2592595  68.5283376  93.3450336
  21.9149537  68.8691000  93.9521597  26.6815355  68.8547272  94.7844951
  26.8978970  69.7371910  94.4833779  26.2009423  68.4633486  94.0550593
  21.4214577  71.8132986 101.3615696  21.2759158  72.1273289 102.2539977
  20.9439780  72.4317886 100.8086594  23.2810960  68.8035534 101.4096585
  23.2672529  67.9076627 101.0728883  23.9983388  68.8106197 102.0434871
  25.1337090  69.2372874 103.4549713  24.8754868  70.1589944 103.4534043
  24.6022131  68.8403308 104.1450177  30.0783279  82.3423661  96.2339798
  30.2520157  81.7770083  95.4813651  30.5712170  83.1424556  96.0519288
  15.8960239  74.3538330 104.3003357  15.3513707  75.1298138 104.4323631
  16.7739589  74.7009134 104.1422478  22.6847856  67.6849914  96.6784155
  22.8063767  66.7566560  96.8775043  22.3949898  67.6988600  95.7662471
  25.5539046  65.3704824  99.8150875  25.5760743  65.4344157  98.8602855
  25.9707105  64.5309333 100.0091381  35.9322670  75.1060084  97.8530098
  36.3753816  74.3567409  97.4549221  35.0549181  75.0970220  97.4703830
  31.0658452  81.6590425  93.3336696  31.7609356  82.2797118  93.5524011
  31.4081602  80.8085776  93.6089074  16.6826261  73.4808226 107.1933514
  15.9407997  73.6290862 107.7798144  16.3619005  73.7416492 106.3300263
  32.9649875  79.1090131  94.8624027  33.4901199  79.4477404  94.1373347
  32.8772227  78.1737146  94.6787162  24.6269924  83.0224204 106.9913904
  24.9357050  82.7773351 107.8636603  25.4245406  83.2270843 106.5032774
  24.6490536  85.1762114  99.2219280  24.2095526  84.6838493  99.9152137
  25.3998653  84.6335082  98.9811356  17.1282875  81.3673655  99.2243908
  17.9540894  81.0677427  98.8442552  16.7776927  80.5981277  99.6733697
  22.0964408  80.7200123 101.2941582  21.4744417  80.0570828 100.9943810
  22.7669275  80.7461255 100.6115230  15.3291480  79.2859981 100.1832842
  14.4923388  78.8582156 100.0016843  15.3015125  79.4792425 101.1203633
  22.1688935  69.1981911 110.8874088  22.2177091  70.0744034 110.5051858
  22.7111449  68.6559304 110.3145731  32.6543781  79.7423034 110.1675225
  31.8639325  79.7247173 109.6279725  32.4177135  80.2811328 110.9224262
  32.7741656  76.5915501 107.4807954  32.8239661  76.4265508 108.4223476
  32.6655579  75.7242760 107.0905834  21.6577915  79.2704047  94.7700043
  21.8066035  79.9539511  94.1166715  22.4644358  79.2509137  95.2849498
  30.0645418  72.5746429 108.7967260  30.9655281  72.4352894 108.5051258
  30.1393393  72.7400884 109.7365438  24.3988224  69.9513284 107.6420447
  23.5291533  70.2446850 107.3703035  24.6347704  70.5353729 108.3627710
  34.2759853  79.0112442 107.7249975  33.9844661  79.3742423 108.5613436
  33.6631984  78.2979451 107.5463307  35.4755535  76.5765322 100.2452545
  36.3102426  77.0155126 100.4090106  35.6114664  76.1003975  99.4260791
  32.5247041  74.1345057 106.1930033  33.0001163  74.3272703 105.3848885
  31.6012606  74.1904243 105.9473417  19.4130548  75.2969224  95.7761112
  19.1676590  74.3931554  95.9741322  19.5826462  75.2986375  94.8340590
  27.1027258  66.1692901 105.1585867  27.6209201  66.9053927 104.8332356
  26.7482390  66.4756894 105.9932626  18.6826195  71.0297582  93.2747273
  17.9895440  71.1041937  92.6187309  18.4377947  70.2657925  93.7968790
  27.3539852  62.5893183 100.6786764  27.6341605  61.9216372 101.3047190
  28.1390459  62.7822279 100.1661428  25.1573320  81.7652177  92.2411790
  24.5847287  82.3842364  91.7882262  25.7306114  82.3151539  92.7751712
  31.2248710  71.0110817 104.4258339  32.1766133  71.1108915 104.4470563
  31.0552160  70.2189086 104.9356423  29.2463089  68.0966400 104.6117740
  28.6513022  68.3771413 103.9164228  28.9612786  68.5860301 105.3834481
  28.3770580  82.0489327  93.3720372  29.3101253  81.9834889  93.5753248
  28.2893793  82.8845594  92.9134905  31.0058597  81.3655197  90.3324320
  30.9272228  81.0315061  91.2260078  31.8268263  81.8576965  90.3315792
  33.7036788  74.2316937 103.5400638  33.6713108  73.2932937 103.7260322
  34.3137411  74.3100973 102.8066463  25.5420119  73.1012990  89.5827843
  26.4879223  72.9719198  89.6516261  25.1634364  72.3627652  90.0597271
  33.8531276  71.0227980 103.5858922  33.3370325  70.2386437 103.3988851
  34.7371225  70.6946697 103.7505441  31.5142003  64.7668996  99.5454734
  31.3166824  64.4584084 100.4298066  32.1241709  65.4930635  99.6752664
  39.5213338  75.2932944 102.6806675  40.2516726  75.0318232 103.2414379
  38.9120283  74.5561666 102.7208743  37.6028635  73.4340806 103.2781126
  36.8761798  73.2996771 102.6697618  37.1875922  73.7417635 104.0837845
  25.4258811  77.1530736 111.0428499  26.3461821  77.3309335 111.2368546
  25.3908394  76.2086781 110.8908199  23.7263036  71.0262966  89.5182728
  22.8194491  70.7296079  89.5945441  24.0039017  70.7292784  88.6517014
  14.6440976  72.3469330  99.9681774  14.3243761  71.4934638  99.6756148
  14.0974404  72.5617908 100.7239741  18.4220884  75.0631771 103.6851281
  18.6406894  75.9948878 103.7039314  18.8346658  74.7039745 104.4706084
  25.3425102  65.5699856  95.6726969  24.5325830  65.2246941  96.0482215
  26.0309518  65.2607400  96.2614581  27.2715650  64.6477903  97.2951266
  27.8246688  65.0673356  97.9541289  27.5085736  63.7213651  97.3374222
  23.2948749  70.6364976 113.0754030  23.1945476  71.5859333 113.0066121
  23.0770291  70.3083215 112.2030100  22.4961820  67.8849901  89.6594707
  23.3580984  68.2104800  89.9190524  22.6812165  67.0981397  89.1467773
  14.5129236  75.9672241 101.9374896  13.8192708  75.5526194 101.4244850
  15.2602227  76.0092778 101.3408315  30.6494457  66.7578428  96.8029930
  30.0693126  67.4163232  96.4207982  30.3830390  65.9355772  96.3917347
  29.0998023  66.1583485  99.0051250  29.5997802  66.2700020  98.1965569
  29.7433631  65.8544538  99.6452059  23.1580019  74.0662115 111.8919091
  22.6747101  74.8662475 112.0982980  23.2440958  74.0770060 110.9386535
  16.4265979  75.8990495  99.8140911  16.4036667  75.9978182  98.8622794
  16.7366615  76.7455646 100.1358077  19.0853357  77.9566650 103.9287525
  20.0396610  77.9250592 103.8617457  18.8865880  77.4957274 104.7437751
  19.6752739  76.5267766 106.4958323  20.4945628  77.0211845 106.5193160
  19.9489546  75.6099734 106.4675890  29.4319335  68.9178518  95.8586278
  28.5445190  69.2028169  95.6406473  29.8473324  68.7572282  95.0113555
  32.7833871  68.9425039  99.5740617  33.5594261  69.4321492  99.8465234
  32.0582005  69.3683093 100.0312487  35.2206430  69.6552658 100.6314558
  35.8150921  69.4148394  99.9207866  35.2933013  68.9359789 101.2588094
  17.4403585  83.4986269 100.9457723  17.3058053  82.7386670 100.3795721
  17.0235648  84.2227169 100.4786512  28.5762548  78.6823193  89.9534298
  29.2798399  78.8873195  90.5691954  27.8525197  79.2499955  90.2183382
  29.4060359  74.4333054  96.0736568  29.3495560  74.8901606  95.2344201
  29.9588701  73.6723739  95.8959411  33.2165165  70.2222786  96.8986688
  32.9602099  69.8219422  97.7294896  32.5918033  70.9366580  96.7736827
  37.5277502  72.9618859  99.4057979  36.9677060  73.0312049 100.1789541
  36.9221006  72.7859844  98.6857476  20.5972711  84.3955586 101.1576166
  20.4805095  85.3401019 101.0554856  19.7765158  84.0929148 101.5461965
  30.4849246  79.1205722  92.0032758  31.3194850  78.6886921  91.8210233
  30.3233589  78.9487736  92.9309653  30.1395138  75.6237835  93.3689098
  30.0843942  75.4582107  92.4277542  29.5141193  76.3313868  93.5251287
  14.9287653  70.8605900 107.1950520  15.5746517  70.3504854 107.6837745
  14.7204804  71.5974581 107.7693945  27.4541045  77.9286747 112.6942660
  28.3232205  78.1027399 112.3329295  26.9747797  78.7481164 112.5718390
  23.4491263  65.1245944  92.9474416  23.4369933  66.0687784  93.1042687
  24.3414685  64.9416090  92.6533877  21.6227225  85.0483848 104.3732094
  22.5254472  85.0807458 104.6898589  21.3964595  84.1184299 104.3878430
  23.3780827  83.8014835 101.0342173  22.4276458  83.8016696 100.9206545
  23.6813314  83.0547569 100.5178207  27.2643383  61.7188721  97.2020353
  26.4975779  61.1647208  97.3477035  27.6754088  61.7910590  98.0634504
  19.2685144  68.0073517 111.2925534  20.1316606  67.6510322 111.5028859
  18.6950555  67.6687412 111.9800938  39.1133521  89.6375373 102.0987935
  39.7511931  89.5182120 101.3951275  38.9954364  90.5856217 102.1575887
  35.9223227  89.5902801 102.0349460  35.5841739  89.4743866 101.1469995
  36.7912995  89.1893966 102.0150466  31.7810043  91.4438278  98.0246351
  31.2174908  91.3528215  97.2562638  31.6662438  90.6238182  98.5048843
  36.4043010  90.7437653 107.9935665  36.3931651  90.3490451 107.1216169
  36.5663650  90.0103726 108.5869437  29.3274475  92.9389469 100.8630571
  30.1195767  92.5980294 100.4476870  29.5671125  93.0484444 101.7832724
  37.3609602  95.1109245  93.3360816  36.7097581  95.6963326  92.9494829
  38.1553964  95.6415440  93.3955853  31.2865229  92.1998383  93.7347950
  32.0596105  91.6527370  93.5960826  31.6390628  93.0642632  93.9462411
  33.1250271  93.5274765 106.9414849  32.8340137  94.4320396 106.8261516
  33.7607256  93.5691292 107.6558919  34.0506478  90.9051613 103.5316209
  34.6470050  90.6807636 102.8173172  34.1081450  90.1636359 104.1341657
  33.6231507  88.3591049  91.3666400  33.8757027  87.8372570  90.6049863
  32.6856066  88.1957194  91.4693083  38.6674789  87.3626827  99.1741143
  39.4537879  86.9446250  98.8231560  38.9313494  88.2672919  99.3422791
  38.8384867  92.7999677  93.8729800  38.2030700  92.8734304  94.5850704
  38.5082273  93.3893276  93.1948879  44.0683217  87.3002060 100.0774122
  44.8008388  86.7301277 100.3111951  43.3122572  86.9123661 100.5180627
  33.3427795  90.2619155  93.5690775  33.2264053  89.5864058  94.2371859
  33.4530055  89.7751529  92.7522928  35.6859336  89.7229302  97.2737464
  35.3217543  89.1959923  97.9850385  36.5426452  89.3327771  97.1003949
  41.5908637  81.0123634 104.5368730  41.2591962  81.8819045 104.3129945
  40.9954250  80.6959918 105.2162761  35.3264823  84.7519201  92.2698813
  35.4939226  85.6199438  92.6369284  35.1361992  84.9146483  91.3460102
  38.0840156  93.2136180 103.9364643  37.7840879  94.1161219 103.8280450
  37.7391216  92.9468364 104.7885796  31.5352638  89.6649977  99.9701347
  30.6103134  89.5326191 100.1779039  31.7837051  90.4444196 100.4671290
  41.4837300  85.7318720 101.6162080  40.5754178  85.6634129 101.3220841
  41.4324896  86.2090665 102.4443906  35.3054044  87.2076859  93.2545479
  35.1853669  87.6533910  94.0930960  34.6106632  87.5562177  92.6959017
  28.8961449  89.3083251 100.8045136  29.0253830  89.5617730 101.7184548
  28.2158900  89.9010959 100.4849791  33.0660936  99.9780501  96.9035611
  32.9884966 100.9288326  96.9824091  32.4622580  99.6326373  97.5610537
  35.5578166  87.1508366 109.5596977  34.7811500  87.7102286 109.5499842
  36.1968729  87.6365149 110.0811848  43.3498947  83.9335159 103.3939954
  42.7073327  84.2267692 102.7479749  42.8453875  83.8188079 104.1993151
  41.0039110  87.6798332  94.0825813  41.9156966  87.9125719  93.9073511
  40.4948757  88.2635376  93.5200892  33.8124538  89.9593819 109.1214944
  34.5539223  90.4978863 108.8449768  33.1061524  90.5860108 109.2786496
  39.2879878  92.1022960 107.7187106  39.6963234  91.6605370 106.9741738
  38.5657139  91.5275587 107.9721299  35.6410948  87.0395567 105.0920663
  36.4872143  87.4634980 105.2355312  35.5809586  86.3829191 105.7859226
  39.6108693  92.6624151 101.4739395  38.9817555  92.8269865 100.7715463
  39.2234355  93.0765760 102.2450359  43.4897924  93.5978588  98.8283759
  42.8048963  93.9777490  98.2780792  43.5741774  94.2073915  99.5615706
  38.7910393  84.6999935 106.7501837  38.5471325  85.4541996 106.2136112
  39.0670324  85.0785283 107.5849084  40.7448856  91.2438547 105.4279102
  40.9565751  91.8870307 104.7513483  40.6978604  90.4100864 104.9601032
  38.3475085  83.8556368 102.3315674  37.4859564  84.1537622 102.6232412
  38.3737520  84.0726767 101.3996707  35.1636654  92.3998559  98.7389480
  35.6275000  92.6786262  97.9494102  34.8993453  91.4982003  98.5562571
  32.0560736  91.9470040 101.6769243  32.6262093  92.3757309 101.0386728
  32.6468847  91.6652625 102.3753429  34.1005540  88.5221711  95.5479045
  34.8029584  88.9742755  96.0152971  33.7686169  87.8805530  96.1758938
  32.5485902  87.1133468 109.9230254  31.9184563  87.7949748 110.1565651
  32.4421990  87.0016549 108.9783393  27.8430874  86.7805264 100.8496179
  27.0529928  87.0362792 100.3736289  28.3342122  87.5953601 100.9548219
  41.8594684  94.1210503 103.6001459  42.6812128  93.7190690 103.3184141
  41.8557087  94.0178737 104.5517575  29.7945620  87.1449843  97.8079655
  28.9976783  87.2568537  98.3263151  29.5671212  87.4836495  96.9420546
  35.6251287  93.6694546 105.7562170  35.6895720  94.1314953 106.5920342
  34.9162211  93.0391911 105.8844480  26.1268577  87.0335754 103.2811169
  26.3776616  87.9182764 103.5468745  26.6628126  86.8540356 102.5086261
  49.9500677  90.4649251  99.9486431  49.1964385  89.8956649  99.7930435
  50.0848218  90.4311916 100.8957066  35.3399305  95.3362654  95.6241150
  35.2044980  96.1814189  96.0525998  35.8809118  95.5381931  94.8607084
  31.8266645  81.4154233 112.2855506  31.4333590  80.8620432 112.9603150
  32.6432785  81.7264812 112.6762023  28.7928703  92.8538092  96.1969075
  29.3053223  93.6481342  96.3474640  29.4451415  92.1564382  96.1302677
  30.6023587  95.9703848  98.2791829  30.7790216  96.8921813  98.0912812
  31.3980421  95.6562267  98.7086208  34.7434606  82.8312113 109.8775762
  35.4844319  83.4319266 109.7980225  34.9752529  82.0889750 109.3193805
  29.8875944  88.0168480 108.1553992  29.7729459  87.1153737 108.4561091
  29.0320461  88.2632177 107.8038808  36.9667781  95.9586220 109.7541492
  36.5231636  95.1722599 109.4362397  37.6284995  96.1465371 109.0885383
  31.7254903  97.4882022 104.2802171  32.2762328  97.3599085 103.5079165
  30.8866379  97.7876911 103.9297064  39.0649020  96.2389020 107.7822894
  39.0467495  97.0597901 107.2903163  39.9868940  96.1143095 108.0073035
  35.5222074  93.7533150 108.6246402  36.0550411  92.9921438 108.3945710
  34.9936155  93.4606801 109.3670556  38.6891769  78.8593215 104.1540044
  38.3456038  79.7494857 104.0779154  39.0570731  78.6694873 103.2909629
  26.7577619  91.1826746  96.9728646  27.5952841  91.5923754  96.7562354
  26.9355887  90.2426188  96.9428840  38.6542051  88.8501827  92.6612479
  38.1388675  89.6206431  92.9000866  38.3819360  88.1766963  93.2845540
  36.2389162  83.6951527  97.7197717  35.3830759  83.3058378  97.5403356
  36.6516114  83.7743488  96.8597503  37.7688309  81.2297871 102.1189277
  37.2653105  81.1928006 101.3057082  38.0618916  82.1390613 102.1785934
  34.0131195  81.3136600 101.1255459  34.8784192  81.1179409 100.7661348
  34.0808704  81.0846952 102.0524815  43.6276326  91.6034181  94.5965652
  42.8505768  91.2645341  94.1520814  44.3067807  91.6086804  93.9220617
  38.4428355  86.7228919  94.4872260  38.1378490  87.0375068  95.3382403
  39.3958797  86.8010339  94.5299593  36.8874786  92.8819142  96.1365214
  36.3596148  92.1471902  95.8238451  36.3862289  93.6593818  95.8905182
  41.8667632  91.0768162 101.2532260  41.2091307  91.7667424 101.3412389
  42.6708032  91.4664594 101.5966247  31.6193514  83.5438808  98.4971826
  32.1937266  83.3213990  97.7645019  32.2064496  83.6127503  99.2500427
  40.6773091  89.4312535  99.3036202  41.1904973  90.0642527  99.8057912
  41.3274315  88.8313731  98.9379562  31.9463101  85.5743269  92.5167711
  31.1100413  85.9117956  92.8376986  31.8067871  85.4392249  91.5794848
  33.9216182  80.4180057  97.2246895  33.2680594  80.1029074  96.6003510
  33.8796656  79.7955798  97.9506718  35.0327387  90.6999352  89.1400187
  34.1254448  90.4688606  89.3391336  35.5298419  89.9036972  89.3274169
  37.9395465  99.4096859  92.0596873  37.2657164  99.7128556  92.6681831
  38.3261287 100.2125940  91.7102330  37.1553922  86.9061991 101.5494543
  36.2376483  87.1276938 101.3916231  37.5714066  86.9808301 100.6906250
  37.9388970  88.3053406  96.6797223  38.6860789  88.8174804  96.3704345
  38.2080559  87.9837459  97.5401616  36.2115620  90.8011947  93.6624177
  35.3026839  90.5170980  93.7596647  36.2410704  91.2211026  92.8027484
  41.4434887  94.4118537  97.4315345  40.9897215  93.5709447  97.4880535
  40.8128854  95.0479935  97.7690125  40.3867807  85.3410523  98.6616012
  39.6490564  84.8287909  98.9926255  40.6394581  84.9010904  97.8499289
  39.8867827  96.2495033  98.3665163  40.1790801  96.8100090  97.6477528
  40.3966447  96.5423594  99.1218322  40.4879434  78.1186775  99.2557781
  40.7938311  77.2584138  98.9683697  41.2132039  78.7104395  99.0556775
  26.7803790  88.5217461  97.6439379  26.5828190  87.9286822  96.9190446
  26.2250454  88.2169671  98.3615318  34.7600514  88.4140568  99.7633973
  34.8149124  87.4614404  99.6876449  33.9491716  88.5700007 100.2475271
  35.9091708  92.3420691  91.0012256  35.4711138  91.6256550  90.5417893
  36.6502149  92.5696806  90.4397347  32.6992874  87.0317627  97.5224351
  31.8860740  87.3311798  97.9289544  33.1951868  86.6373316  98.2398834
  34.8501452  97.0275384  99.4558616  34.8077631  97.2536231  98.5267148
  35.7664151  96.7938759  99.6044417  38.2967086  87.4959452 106.3539245
  38.6516473  87.7230925 107.2133711  38.9439217  87.8277829 105.7316501
  44.0264823  90.6177888  97.0588574  43.8882721  90.8079484  96.1309764
  43.6701041  91.3797271  97.5156625  32.1906949  84.6035983 103.1385586
  32.8306328  84.4624742 102.4408550  31.3584479  84.3170496 102.7624188
  44.0534202  92.6854415 102.0699846  44.4870709  92.5929704 102.9182900
  44.7665783  92.6611915 101.4319862  32.9667253  93.9038413  99.2520579
  33.7607851  93.4088734  99.0503154  32.2558945  93.3756277  98.8888284
  37.7862097  96.2856509 103.6032946  37.8399119  96.8547445 104.3710662
  36.9176879  96.4558394 103.2386984  29.2750016  88.0481495  95.3280331
  28.3447604  87.9865951  95.5450294  29.3707488  87.5257448  94.5316973
  29.1935565  84.5736308  97.9158573  29.4542382  85.4881641  97.8067734
  30.0152738  84.1060751  98.0655186  30.6660491  85.9874065 105.0857398
  31.3383544  85.7791427 104.4370047  29.8390277  85.7896151 104.6462630
  44.9149752  92.7278115 104.6032731  45.1085642  93.6323926 104.8492006
  44.8150370  92.2685535 105.4371316  36.5686063  82.6136006 107.1023059
  35.9213978  83.3125956 107.0087535  37.3387078  83.0472150 107.4699307
  39.9764860  92.8784858 110.1773612  39.8250367  92.6495410 109.2603696
  39.9669540  93.8355460 110.1904957  36.7450197  90.4516771 105.1619878
  37.6742257  90.6027931 104.9888846  36.3241227  90.5400792 104.3068525
  35.5438529  94.4767435 102.9318416  35.4049614  94.1086220 103.8044354
  34.7553125  94.9915075 102.7602374  36.1386681  99.5776532  94.2743952
  36.3138436  99.1064575  95.0889575  35.4519469 100.2042298  94.5025213
  37.0943744  93.8549038 100.3207254  36.7593576  93.8149808 101.2164904
  36.5947689  93.1893754  99.8477664  31.0687988  89.2616668 105.8459835
  30.9307786  88.5296907 106.4471374  31.9792911  89.1725568 105.5644023
  40.0302935  91.2005072  90.5944313  39.4132106  90.4751901  90.4977366
  39.5619424  91.9614433  90.2511388  33.6970288  88.9736627 105.3343514
  34.4069907  88.3329820 105.2930133  33.6539597  89.2249522 106.2569695
  41.6857067  95.9103981 108.2550094  41.6269613  95.2263201 107.5880677
  42.0876585  96.6522971 107.8030720  32.4099222  85.9601845 107.1539154
  31.8736579  85.5092584 107.8060750  31.8215931  86.0947754 106.4109618
  30.7047766 102.7265895 101.0483813  30.9444364 103.3584419 101.7262831
  29.8616962 102.3753935 101.3349172  31.8201481  85.4190497  89.7165618
  30.9430948  85.2979298  89.3527864  32.2959234  84.6276575  89.4644506
  41.6874474  93.8743565 106.4864073  40.8001253  93.5369487 106.6090472
  42.2573025  93.1426596 106.7232839  23.3403621  90.2067656  99.8107125
  24.0274661  89.8929387  99.2228140  23.1851750  91.1109021  99.5374376
  28.1438344  85.0957853 104.2392148  28.0596532  84.4883523 103.5042558
  27.3221050  85.5866871 104.2401645  35.2175628  98.5345017 103.4525317
  35.1445799  99.3399989 103.9644621  34.7753021  98.7336983 102.6273338
  35.0065407  97.7716787  96.9628138  34.2232929  98.3138467  97.0566363
  35.7058153  98.2890767  97.3622379  38.3162058  83.5811417  99.6062344
  38.8130757  82.8281379  99.2863414  37.5449039  83.6175733  99.0405553
  46.1691815  89.2851782 101.2480635  46.1581691  90.1676498 100.8774568
  45.3009194  88.9323333 101.0535172  37.6774311  98.4331851 105.6083475
  38.3902284  99.0679316 105.5359377  37.1864340  98.5295717 104.7923477
  39.3991838  92.3383104  97.1800767  38.4648117  92.4584566  97.0105471
  39.5768507  91.4355571  96.9160777  34.8997026  85.7228800  99.3334028
  34.5294814  85.1699840 100.0214934  35.3956119  85.1186933  98.7809028
  42.7864390  88.1800423  97.7150801  43.2524842  89.0128415  97.6411104
  43.2371890  87.7145405  98.4196060  32.7286225  96.1826295 106.4289046
  33.4295684  96.8162778 106.5818440  32.2581340  96.5241026 105.6684685
  40.8540621  94.5244244  94.7136953  41.1300465  94.4100839  95.6230827
  39.9845119  94.1261729  94.6749126  40.7581052  80.5481010 101.7541702
  39.8444132  80.7785237 101.9223909  41.1874154  80.6319454 102.6055735
  40.5287511  88.7370902 104.2541596  39.8758961  88.9846809 103.5994049
  40.9067891  87.9235040 103.9204074  37.4894685  98.7730595  98.3569767
  37.6717079  97.9552251  98.8197519  38.3127671  98.9898287  97.9194657
  37.8236850  97.6998780  95.6184815  38.3524617  97.1891235  95.0054977
  38.0865070  97.3841311  96.4830348  36.5775084  89.4790713 110.7407633
  35.9015721  89.3784842 111.4110009  37.4002718  89.3229927 111.2043631
  28.3253943  95.7162650 103.3620149  28.9107380  94.9706338 103.4948053
  28.1278781  96.0266606 104.2456813  31.1792598  98.7513897  98.3782591
  30.5102973  99.2360025  97.8946631  31.0405468  98.9983117  99.2925970
  22.9171598  88.2868250 102.0824592  22.9555697  87.7531841 102.8761710
  22.4111890  87.7603455 101.4635569  35.3197867 100.7857641 104.9765249
  35.8716175 100.9489262 105.7414335  35.6604060 101.3762078 104.3045274
  30.2962360  83.1332790 105.5787134  30.3603686  83.9947621 105.1664532
  30.2329480  82.5206792 104.8459493  29.7714632  85.2055923 109.2260168
  30.3986671  84.8233000 109.8397693  28.9142551  84.9870125 109.5915861
  40.1708741  95.6118898 110.8313904  40.7148645  96.2248856 110.3368859
  39.5895586  96.1698476 111.3480917  26.5480175  87.0132352  95.1578523
  26.8433616  86.1043030  95.1045577  25.6468211  86.9920091  94.8359526
  38.4566254  98.7339616 101.9628932  38.3317393  97.9329356 101.4539877
  39.1145345  99.2285809 101.4742902  30.0774422  85.0888349 101.1406072
  29.3561008  85.7024316 101.0013545  30.8667678  85.6246113 101.0622718
  40.5201162  96.5348636 103.5908482  39.5731498  96.4153987 103.5186808
  40.8683935  95.6471134 103.6734743  32.8800736  82.4242775 107.4146724
  33.4035138  82.6705072 108.1773033  32.6613069  83.2562810 106.9949861
  28.2768017  84.6946450  95.2817848  27.9480723  83.8143829  95.0992954
  28.6307387  84.6394118  96.1694238  37.5247596  96.3301352  99.7912834
  37.3772558  95.4018060  99.9720404  38.3501089  96.3521443  99.3069909
  31.3909840  84.9819419  95.6493326  31.7305912  85.5105341  94.9271934
  31.8381960  85.3199826  96.4251893  41.1281717  97.1529911 100.8777707
  42.0528265  96.9472772 100.7402158  40.9597021  96.9046312 101.7867048
  34.0853281  83.3656470 105.0996394  33.7450101  82.5664283 105.5017074
  33.3792287  83.6658181 104.5273227  34.7369753  80.4505783 103.5523717
  35.5595822  79.9766261 103.4302607  34.9807816  81.2296266 104.0522403
  33.3777987  83.4794041  93.8486619  34.0986350  83.8575294  93.3450336
  32.7543291  84.1982918  93.9521597  37.5209110  84.1839190  94.7844951
  37.7372724  85.0663828  94.4833779  37.0403177  83.7925403  94.0550593
  32.2608331  87.1424903 101.3615696  32.1152912  87.4565206 102.2539977
  31.7833535  87.7609804 100.8086594  34.1204714  84.1327451 101.4096585
  34.1066283  83.2368545 101.0728883  34.8377142  84.1398115 102.0434871
  35.9730845  84.5664791 103.4549713  35.7148623  85.4881862 103.4534043
  35.4415885  84.1695226 104.1450177  40.9177034  97.6715579  96.2339798
  41.0913911  97.1062001  95.4813651  41.4105925  98.4716473  96.0519288
  26.7353994  89.6830248 104.3003357  26.1907462  90.4590056 104.4323631
  27.6133343  90.0301052 104.1422478  33.5241610  83.0141831  96.6784155
  33.6457521  82.0858478  96.8775043  33.2343653  83.0280517  95.7662471
  36.3932801  80.6996742  99.8150875  36.4154497  80.7636075  98.8602855
  36.8100860  79.8601251 100.0091381  46.7716425  90.4352001  97.8530098
  47.2147571  89.6859327  97.4549221  45.8942935  90.4262138  97.4703830
  41.9052206  96.9882343  93.3336696  42.6003111  97.6089036  93.5524011
  42.2475356  96.1377694  93.6089074  27.5220015  88.8100144 107.1933514
  26.7801751  88.9582779 107.7798144  27.2012760  89.0708410 106.3300263
  43.8043629  94.4382048  94.8624027  44.3294953  94.7769321  94.1373347
  43.7165982  93.5029064  94.6787162  35.4663678  98.3516122 106.9913904
  35.7750804  98.1065269 107.8636603  36.2639160  98.5562761 106.5032774
  35.4884290 100.5054032  99.2219280  35.0489280 100.0130410  99.9152137
  36.2392407  99.9626999  98.9811356  27.9676629  96.6965573  99.2243908
  28.7934649  96.3969344  98.8442552  27.6170681  95.9273195  99.6733697
  32.9358162  96.0492041 101.2941582  32.3138172  95.3862746 100.9943810
  33.6063029  96.0753173 100.6115230  26.1685234  94.6151899 100.1832842
  25.3317142  94.1874073 100.0016843  26.1408880  94.8084342 101.1203633
  33.0082690  84.5273829 110.8874088  33.0570845  85.4035952 110.5051858
  33.5505204  83.9851222 110.3145731  43.4937535  95.0714952 110.1675225
  42.7033079  95.0539091 109.6279725  43.2570890  95.6103246 110.9224262
  43.6135410  91.9207418 107.4807954  43.6633415  91.7557426 108.4223476
  43.5049334  91.0534678 107.0905834  32.4971669  94.5995964  94.7700043
  32.6459789  95.2831429  94.1166715  33.3038113  94.5801054  95.2849498
  40.9039173  87.9038347 108.7967260  41.8049036  87.7644811 108.5051258
  40.9787147  88.0692801 109.7365438  35.2381978  85.2805201 107.6420447
  34.3685288  85.5738767 107.3703035  35.4741459  85.8645646 108.3627710
  45.1153607  94.3404360 107.7249975  44.8238416  94.7034341 108.5613436
  44.5025739  93.6271368 107.5463307  46.3149290  91.9057240 100.2452545
  47.1496181  92.3447044 100.4090106  46.4508418  91.4295893  99.4260791
  43.3640796  89.4636975 106.1930033  43.8394917  89.6564621 105.3848885
  42.4406361  89.5196160 105.9473417  30.2524302  90.6261142  95.7761112
  30.0070344  89.7223472  95.9741322  30.4220217  90.6278292  94.8340590
  37.9421012  81.4984818 105.1585867  38.4602956  82.2345845 104.8332356
  37.5876145  81.8048811 105.9932626  29.5219950  86.3589499  93.2747273
  28.8289195  86.4333854  92.6187309  29.2771702  85.5949843  93.7968790
  38.1933606  77.9185101 100.6786764  38.4735360  77.2508290 101.3047190
  38.9784213  78.1114196 100.1661428  35.9967075  97.0944095  92.2411790
  35.4241042  97.7134282  91.7882262  36.5699868  97.6443456  92.7751712
  42.0642465  86.3402735 104.4258339  43.0159887  86.4400832 104.4470563
  41.8945915  85.5481003 104.9356423  40.0856844  83.4258318 104.6117740
  39.4906776  83.7063331 103.9164228  39.8006541  83.9152219 105.3834481
  39.2164334  97.3781245  93.3720372  40.1495008  97.3126806  93.5753248
  39.1287547  98.2137512  92.9134905  41.8452351  96.6947115  90.3324320
  41.7665983  96.3606979  91.2260078  42.6662018  97.1868883  90.3315792
  44.5430542  89.5608854 103.5400638  44.5106862  88.6224855 103.7260322
  45.1531166  89.6392891 102.8066463  36.3813873  88.4304907  89.5827843
  37.3272978  88.3011115  89.6516261  36.0028118  87.6919569  90.0597271
  44.6925031  86.3519898 103.5858922  44.1764079  85.5678354 103.3988851
  45.5764979  86.0238614 103.7505441  42.3535758  80.0960913  99.5454734
  42.1560579  79.7876002 100.4298066  42.9635463  80.8222552  99.6752664
  50.3607092  90.6224861 102.6806675  51.0910481  90.3610149 103.2414379
  49.7514038  89.8853583 102.7208743  48.4422389  88.7632724 103.2781126
  47.7155553  88.6288689 102.6697618  48.0269676  89.0709552 104.0837845
  36.2652566  92.4822654 111.0428499  37.1855575  92.6601253 111.2368546
  36.2302149  91.5378699 110.8908199  34.5656790  86.3554884  89.5182728
  33.6588246  86.0587996  89.5945441  34.8432771  86.0584702  88.6517014
  25.4834731  87.6761247  99.9681774  25.1637515  86.8226555  99.6756148
  24.9368159  87.8909825 100.7239741  29.2614638  90.3923688 103.6851281
  29.4800648  91.3240796 103.7039314  29.6740412  90.0331663 104.4706084
  36.1818856  80.8991773  95.6726969  35.3719584  80.5538858  96.0482215
  36.8703273  80.5899317  96.2614581  38.1109404  79.9769820  97.2951266
  38.6640443  80.3965274  97.9541289  38.3479491  79.0505568  97.3374222
  34.1342504  85.9656894 113.0754030  34.0339230  86.9151251 113.0066121
  33.9164046  85.6375133 112.2030100  33.3355575  83.2141819  89.6594707
  34.1974739  83.5396717  89.9190524  33.5205919  82.4273315  89.1467773
  25.3522991  91.2964159 101.9374896  24.6586462  90.8818111 101.4244850
  26.0995982  91.3384695 101.3408315  41.4888211  82.0870345  96.8029930
  40.9086880  82.7455149  96.4207982  41.2224144  81.2647690  96.3917347
  39.9391778  81.4875403  99.0051250  40.4391556  81.5991938  98.1965569
  40.5827386  81.1836456  99.6452059  33.9973774  89.3954033 111.8919091
  33.5140855  90.1954393 112.0982980  34.0834713  89.4061978 110.9386535
  27.2659733  91.2282412  99.8140911  27.2430421  91.3270100  98.8622794
  27.5760370  92.0747563 100.1358077  29.9247111  93.2858567 103.9287525
  30.8790365  93.2542510 103.8617457  29.7259635  92.8249191 104.7437751
  30.5146493  91.8559684 106.4958323  31.3339382  92.3503762 106.5193160
  30.7883301  90.9391652 106.4675890  40.2713089  84.2470436  95.8586278
  39.3838944  84.5320086  95.6406473  40.6867079  84.0864199  95.0113555
  43.6227626  84.2716957  99.5740617  44.3988016  84.7613409  99.8465234
  42.8975760  84.6975011 100.0312487  46.0600184  84.9844576 100.6314558
  46.6544675  84.7440312  99.9207866  46.1326768  84.2651707 101.2588094
  28.2797340  98.8278187 100.9457723  28.1451808  98.0678588 100.3795721
  27.8629402  99.5519087 100.4786512  39.4156303  94.0115110  89.9534298
  40.1192153  94.2165113  90.5691954  38.6918952  94.5791872  90.2183382
  40.2454113  89.7624972  96.0736568  40.1889315  90.2193523  95.2344201
  40.7982456  89.0015656  95.8959411  44.0558919  85.5514704  96.8986688
  43.7995853  85.1511339  97.7294896  43.4311787  86.2658498  96.7736827
  48.3671257  88.2910777  99.4057979  47.8070815  88.3603966 100.1789541
  47.7614760  88.1151762  98.6857476  31.4366466  99.7247504 101.1576166
  31.3198850 100.6692936 101.0554856  30.6158912  99.4221066 101.5461965
  41.3243000  94.4497640  92.0032758  42.1588604  94.0178838  91.8210233
  41.1627343  94.2779653  92.9309653  40.9788892  90.9529753  93.3689098
  40.9237696  90.7874024  92.4277542  40.3534948  91.6605786  93.5251287
  25.7681407  86.1897817 107.1950520  26.4140271  85.6796771 107.6837745
  25.5598559  86.9266499 107.7693945  38.2934800  93.2578665 112.6942660
  39.1625959  93.4319317 112.3329295  37.8141551  94.0773082 112.5718390
  34.2885018  80.4537862  92.9474416  34.2763688  81.3979702  93.1042687
  35.1808440  80.2708007  92.6533877  32.4620980 100.3775766 104.3732094
  33.3648227 100.4099376 104.6898589  32.2358350  99.4476217 104.3878430
  34.2174582  99.1306752 101.0342173  33.2670213  99.1308614 100.9206545
  34.5207068  98.3839487 100.5178207  38.1037137  77.0480639  97.2020353
  37.3369533  76.4939125  97.3477035  38.5147842  77.1202507  98.0634504
  30.1078898  83.3365434 111.2925534  30.9710360  82.9802239 111.5028859
  29.5344309  82.9979329 111.9800938  49.9527275 104.9667291 102.0987935
  50.5905685 104.8474038 101.3951275  49.8348118 105.9148135 102.1575887
  46.7616982 104.9194719 102.0349460  46.4235493 104.8035784 101.1469995
  47.6306750 104.5185884 102.0150466  42.6203797 106.7730195  98.0246351
  42.0568663 106.6820132  97.2562638  42.5056192 105.9530100  98.5048843
  47.2436765 106.0729571 107.9935665  47.2325405 105.6782369 107.1216169
  47.4057404 105.3395643 108.5869437  40.1668229 108.2681387 100.8630571
  40.9589521 107.9272212 100.4476870  40.4064879 108.3776362 101.7832724
  48.2003356 110.4401163  93.3360816  47.5491336 111.0255243  92.9494829
  48.9947719 110.9707358  93.3955853  42.1258983 107.5290300  93.7347950
  42.8989859 106.9819287  93.5960826  42.4784382 108.3934550  93.9462411
  43.9644026 108.8566682 106.9414849  43.6733892 109.7612313 106.8261516
  44.6001010 108.8983210 107.6558919  44.8900233 106.2343531 103.5316209
  45.4863805 106.0099553 102.8173172  44.9475204 105.4928276 104.1341657
  44.4625261 103.6882966  91.3666400  44.7150782 103.1664488  90.6049863
  43.5249820 103.5249112  91.4693083  49.5068544 102.6918745  99.1741143
  50.2931633 102.2738168  98.8231560  49.7707248 103.5964837  99.3422791
  49.6778621 108.1291595  93.8729800  49.0424454 108.2026221  94.5850704
  49.3476028 108.7185194  93.1948879  54.9076971 102.6293978 100.0774122
  55.6402143 102.0593195 100.3111951  54.1516327 102.2415578 100.5180627
  44.1821550 105.5911072  93.5690775  44.0657808 104.9155976  94.2371859
  44.2923810 105.1043446  92.7522928  46.5253091 105.0521219  97.2737464
  46.1611298 104.5251840  97.9850385  47.3820207 104.6619688  97.1003949
  52.4302391  96.3415552 104.5368730  52.0985716  97.2110963 104.3129945
  51.8348005  96.0251836 105.2162761  46.1658578 100.0811119  92.2698813
  46.3332980 100.9491355  92.6369284  45.9755747 100.2438401  91.3460102
  48.9233911 108.5428098 103.9364643  48.6234634 109.4453137 103.8280450
  48.5784970 108.2760281 104.7885796  42.3746392 104.9941895  99.9701347
  41.4496889 104.8618109 100.1779039  42.6230806 105.7736114 100.4671290
  52.3231055 101.0610638 101.6162080  51.4147932 100.9926047 101.3220841
  52.2718650 101.5382583 102.4443906  46.1447799 102.5368777  93.2545479
  46.0247424 102.9825827  94.0930960  45.4500387 102.8854094  92.6959017
  39.7355203 104.6375168 100.8045136  39.8647585 104.8909647 101.7184548
  39.0552655 105.2302876 100.4849791  43.9054691 115.3072418  96.9035611
  43.8278720 116.2580243  96.9824091  43.3016334 114.9618291  97.5610537
  46.3971920 102.4800284 109.5596977  45.6205255 103.0394204 109.5499842
  47.0362484 102.9657067 110.0811848  54.1892701  99.2627077 103.3939954
  53.5467081  99.5559610 102.7479749  53.6847630  99.1479997 104.1993151
  51.8432865 103.0090250  94.0825813  52.7550721 103.2417636  93.9073511
  51.3342512 103.5927294  93.5200892  44.6518293 105.2885737 109.1214944
  45.3932977 105.8270781 108.8449768  43.9455278 105.9152026 109.2786496
  50.1273632 107.4314878 107.7187106  50.5356988 106.9897288 106.9741738
  49.4050894 106.8567505 107.9721299  46.4804702 102.3687484 105.0920663
  47.3265898 102.7926898 105.2355312  46.4203340 101.7121109 105.7859226
  50.4502447 107.9916068 101.4739395  49.8211309 108.1561782 100.7715463
  50.0628109 108.4057678 102.2450359  54.3291679 108.9270506  98.8283759
  53.6442717 109.3069407  98.2780792  54.4135528 109.5365833  99.5615706
  49.6304148 100.0291853 106.7501837  49.3865080 100.7833913 106.2136112
  49.9064078 100.4077200 107.5849084  51.5842611 106.5730465 105.4279102
  51.7959506 107.2162225 104.7513483  51.5372359 105.7392782 104.9601032
  49.1868840  99.1848286 102.3315674  48.3253319  99.4829539 102.6232412
  49.2131274  99.4018685 101.3996707  46.0030409 107.7290476  98.7389480
  46.4668754 108.0078179  97.9494102  45.7387207 106.8273921  98.5562571
  42.8954490 107.2761958 101.6769243  43.4655847 107.7049226 101.0386728
  43.4862602 106.9944543 102.3753429  44.9399295 103.8513629  95.5479045
  45.6423338 104.3034672  96.0152971  44.6079923 103.2097448  96.1758938
  43.3879657 102.4425385 109.9230254  42.7578317 103.1241666 110.1565651
  43.2815744 102.3308467 108.9783393  38.6824629 102.1097181 100.8496179
  37.8923683 102.3654710 100.3736289  39.1735876 102.9245519 100.9548219
  52.6988438 109.4502420 103.6001459  53.5205882 109.0482608 103.3184141
  52.6950841 109.3470655 104.5517575  40.6339374 102.4741761  97.8079655
  39.8370538 102.5860455  98.3263151  40.4064967 102.8128413  96.9420546
  46.4645042 108.9986464 105.7562170  46.5289474 109.4606871 106.5920342
  45.7555966 108.3683829 105.8844480  36.9662332 102.3627672 103.2811169
  37.2170370 103.2474682 103.5468745  37.5021880 102.1832273 102.5086261
  60.7894432 105.7941169  99.9486431  60.0358140 105.2248567  99.7930435
  60.9241973 105.7603833 100.8957066  46.1793060 110.6654571  95.6241150
  46.0438734 111.5106107  96.0525998  46.7202872 110.8673849  94.8607084
  42.6660399  96.7446151 112.2855506  42.2727345  96.1912350 112.9603150
  43.4826540  97.0556730 112.6762023  39.6322457 108.1830009  96.1969075
  40.1446978 108.9773260  96.3474640  40.2845170 107.4856300  96.1302677
  41.4417342 111.2995766  98.2791829  41.6183970 112.2213730  98.0912812
  42.2374175 110.9854185  98.7086208  45.5828360  98.1604030 109.8775762
  46.3238074  98.7611183 109.7980225  45.8146283  97.4181668 109.3193805
  40.7269698 103.3460397 108.1553992  40.6123213 102.4445655 108.4561091
  39.8714216 103.5924094 107.8038808  47.8061536 111.2878138 109.7541492
  47.3625390 110.5014516 109.4362397  48.4678750 111.4757288 109.0885383
  42.5648657 112.8173939 104.2802171  43.1156082 112.6891003 103.5079165
  41.7260133 113.1168828 103.9297064  49.9042774 111.5680938 107.7822894
  49.8861249 112.3889819 107.2903163  50.8262694 111.4435013 108.0073035
  46.3615828 109.0825067 108.6246402  46.8944165 108.3213355 108.3945710
  45.8329909 108.7898719 109.3670556  49.5285523  94.1885133 104.1540044
  49.1849793  95.0786775 104.0779154  49.8964486  93.9986791 103.2909629
  37.5971374 106.5118664  96.9728646  38.4346596 106.9215672  96.7562354
  37.7749641 105.5718106  96.9428840  49.4935806 104.1793744  92.6612479
  48.9782429 104.9498349  92.9000866  49.2213114 103.5058880  93.2845540
  47.0782917  99.0243445  97.7197717  46.2224513  98.6350295  97.5403356
  47.4909869  99.1035406  96.8597503  48.6082064  96.5589788 102.1189277
  48.1046859  96.5219923 101.3057082  48.9012670  97.4682531 102.1785934
  44.8524949  96.6428518 101.1255459  45.7177946  96.4471327 100.7661348
  44.9202458  96.4138870 102.0524815  54.4670080 106.9326099  94.5965652
  53.6899523 106.5937258  94.1520814  55.1461561 106.9378722  93.9220617
  49.2822109 102.0520836  94.4872260  48.9772245 102.3666986  95.3382403
  50.2352551 102.1302256  94.5299593  47.7268541 108.2111060  96.1365214
  47.1989902 107.4763819  95.8238451  47.2256044 108.9885736  95.8905182
  52.7061387 106.4060080 101.2532260  52.0485061 107.0959342 101.3412389
  53.5101786 106.7956512 101.5966247  42.4587269  98.8730726  98.4971826
  43.0331020  98.6505907  97.7645019  43.0458251  98.9419420  99.2500427
  51.5166846 104.7604453  99.3036202  52.0298727 105.3934445  99.8057912
  52.1668070 104.1605648  98.9379562  42.7856856 100.9035187  92.5167711
  41.9494168 101.2409874  92.8376986  42.6461625 100.7684167  91.5794848
  44.7609936  95.7471975  97.2246895  44.1074349  95.4320992  96.6003510
  44.7190410  95.1247715  97.9506718  45.8721141 106.0291270  89.1400187
  44.9648203 105.7980523  89.3391336  46.3692173 105.2328889  89.3274169
  48.7789220 114.7388777  92.0596873  48.1050919 115.0420474  92.6681831
  49.1655042 115.5417857  91.7102330  47.9947677 102.2353908 101.5494543
  47.0770238 102.4568855 101.3916231  48.4107820 102.3100219 100.6906250
  48.7782724 103.6345324  96.6797223  49.5254543 104.1466721  96.3704345
  49.0474314 103.3129377  97.5401616  47.0509375 106.1303865  93.6624177
  46.1420594 105.8462898  93.7596647  47.0804458 106.5502943  92.8027484
  52.2828642 109.7410454  97.4315345  51.8290969 108.9001364  97.4880535
  51.6522609 110.3771853  97.7690125  51.2261562 100.6702440  98.6616012
  50.4884318 100.1579827  98.9926255  51.4788335 100.2302822  97.8499289
  50.7261581 111.5786951  98.3665163  51.0184556 112.1392008  97.6477528
  51.2360202 111.8715512  99.1218322  51.3273189  93.4478692  99.2557781
  51.6332066  92.5876056  98.9683697  52.0525794  94.0396313  99.0556775
  37.6197545 103.8509379  97.6439379  37.4221945 103.2578740  96.9190446
  37.0644209 103.5461589  98.3615318  45.5994269 103.7432485  99.7633973
  45.6542878 102.7906322  99.6876449  44.7885471 103.8991924 100.2475271
  46.7485462 107.6712608  91.0012256  46.3104892 106.9548467  90.5417893
  47.4895903 107.8988723  90.4397347  43.5386628 102.3609545  97.5224351
  42.7254494 102.6603716  97.9289544  44.0345623 101.9665234  98.2398834
  45.6895206 112.3567302  99.4558616  45.6471385 112.5828148  98.5267148
  46.6057905 112.1230677  99.6044417  49.1360840 102.8251370 106.3539245
  49.4910228 103.0522843 107.2133711  49.7832971 103.1569746 105.7316501
  54.8658577 105.9469806  97.0588574  54.7276476 106.1371401  96.1309764
  54.5094796 106.7089188  97.5156625  43.0300703  99.9327901 103.1385586
  43.6700083  99.7916660 102.4408550  42.1978234  99.6462414 102.7624188
  54.8927957 108.0146333 102.0699846  55.3264463 107.9221622 102.9182900
  55.6059537 107.9903833 101.4319862  43.8061007 109.2330331  99.2520579
  44.6001606 108.7380651  99.0503154  43.0952700 108.7048194  98.8888284
  48.6255852 111.6148427 103.6032946  48.6792874 112.1839363 104.3710662
  47.7570633 111.7850312 103.2386984  40.1143771 103.3773413  95.3280331
  39.1841359 103.3157868  95.5450294  40.2101243 102.8549366  94.5316973
  40.0329320  99.9028226  97.9158573  40.2936137 100.8173559  97.8067734
  40.8546492  99.4352668  98.0655186  41.5054245 101.3165983 105.0857398
  42.1777298 101.1083345 104.4370047  40.6784032 101.1188069 104.6462630
  55.7543506 108.0570033 104.6032731  55.9479396 108.9615844 104.8492006
  55.6544124 107.5977452 105.4371316  47.4079817  97.9427924 107.1023059
  46.7607732  98.6417873 107.0087535  48.1780832  98.3764068 107.4699307
  50.8158615 108.2076776 110.1773612  50.6644121 107.9787328 109.2603696
  50.8063294 109.1647377 110.1904957  47.5843951 105.7808689 105.1619878
  48.5136011 105.9319848 104.9888846  47.1634981 105.8692709 104.3068525
  46.3832283 109.8059353 102.9318416  46.2443369 109.4378137 103.8044354
  45.5946879 110.3206993 102.7602374  46.9780435 114.9068450  94.2743952
  47.1532191 114.4356493  95.0889575  46.2913223 115.5334216  94.5025213
  47.9337498 109.1840956 100.3207254  47.5987331 109.1441726 101.2164904
  47.4341444 108.5185672  99.8477664  41.9081742 104.5908586 105.8459835
  41.7701540 103.8588825 106.4471374  42.8186666 104.5017486 105.5644023
  50.8696690 106.5296990  90.5944313  50.2525861 105.8043818  90.4977366
  50.4013178 107.2906350  90.2511388  44.5364043 104.3028545 105.3343514
  45.2463661 103.6621737 105.2930133  44.4933351 104.5541440 106.2569695
  52.5250822 111.2395898 108.2550094  52.4663368 110.5555119 107.5880677
  52.9270340 111.9814888 107.8030720  43.2492977 101.2893763 107.1539154
  42.7130334 100.8384501 107.8060750  42.6609685 101.4239672 106.4109618
  41.5441520 118.0557812 101.0483813  41.7838119 118.6876336 101.7262831
  40.7010717 117.7045852 101.3349172  42.6595236 100.7482414  89.7165618
  41.7824702 100.6271215  89.3527864  43.1352989  99.9568493  89.4644506
  52.5268229 109.2035482 106.4864073  51.6395008 108.8661404 106.6090472
  53.0966780 108.4718514 106.7232839  34.1797376 105.5359574  99.8107125
  34.8668416 105.2221304  99.2228140  34.0245505 106.4400939  99.5374376
  38.9832098 100.4249771 104.2392148  38.8990287  99.8175440 103.5042558
  38.1614805 100.9158789 104.2401645  46.0569382 113.8636935 103.4525317
  45.9839554 114.6691906 103.9644621  45.6146775 114.0628901 102.6273338
  45.8459162 113.1008705  96.9628138  45.0626684 113.6430385  97.0566363
  46.5451907 113.6182684  97.3622379  49.1555812  98.9103334  99.6062344
  49.6524512  98.1573297  99.2863414  48.3842794  98.9467651  99.0405553
  57.0085569 104.6143700 101.2480635  56.9975446 105.4968415 100.8774568
  56.1402949 104.2615251 101.0535172  48.5168066 113.7623769 105.6083475
  49.2296038 114.3971234 105.5359377  48.0258094 113.8587635 104.7923477
  50.2385593 107.6675021  97.1800767  49.3041871 107.7876484  97.0105471
  50.4162261 106.7647488  96.9160777  45.7390781 101.0520717  99.3334028
  45.3688568 100.4991758 100.0214934  46.2349873 100.4478851  98.7809028
  53.6258144 103.5092341  97.7150801  54.0918596 104.3420332  97.6411104
  54.0765645 103.0437322  98.4196060  43.5679979 111.5118212 106.4289046
  44.2689439 112.1454695 106.5818440  43.0975094 111.8532944 105.6684685
  51.6934375 109.8536162  94.7136953  51.9694219 109.7392757  95.6230827
  50.8238874 109.4553647  94.6749126  51.5974807  95.8772928 101.7541702
  50.6837887  96.1077155 101.9223909  52.0267908  95.9611372 102.6055735
  51.3681265 104.0662820 104.2541596  50.7152716 104.3138727 103.5994049
  51.7461645 103.2526958 103.9204074  48.3288439 114.1022513  98.3569767
  48.5110834 113.2844169  98.8197519  49.1521425 114.3190205  97.9194657
  48.6630605 113.0290698  95.6184815  49.1918371 112.5183153  95.0054977
  48.9258824 112.7133228  96.4830348  47.4168838 104.8082631 110.7407633
  46.7409475 104.7076760 111.4110009  48.2396472 104.6521844 111.2043631
  39.1647697 111.0454567 103.3620149  39.7501134 110.2998255 103.4948053
  38.9672536 111.3558524 104.2456813  42.0186353 114.0805815  98.3782591
  41.3496728 114.5651942  97.8946631  41.8799222 114.3275035  99.2925970
  33.7565352 103.6160168 102.0824592  33.7949452 103.0823758 102.8761710
  33.2505645 103.0895373 101.4635569  46.1591621 116.1149558 104.9765249
  46.7109929 116.2781180 105.7414335  46.4997815 116.7053996 104.3045274
  41.1356114  98.4624708 105.5787134  41.1997441  99.3239539 105.1664532
  41.0723235  97.8498710 104.8459493  40.6108387 100.5347841 109.2260168
  41.2380426 100.1524918 109.8397693  39.7536306 100.3162042 109.5915861
  51.0102496 110.9410816 110.8313904  51.5542399 111.5540774 110.3368859
  50.4289340 111.4990394 111.3480917  37.3873930 102.3424270  95.1578523
  37.6827371 101.4334948  95.1045577  36.4861965 102.3212009  94.8359526
  49.2960008 114.0631534 101.9628932  49.1711148 113.2621274 101.4539877
  49.9539100 114.5577727 101.4742902  40.9168177 100.4180266 101.1406072
  40.1954762 101.0316234 101.0013545  41.7061432 100.9538031 101.0622718
  51.3594917 111.8640554 103.5908482  50.4125252 111.7445905 103.5186808
  51.7077690 110.9763052 103.6734743  43.7194490  97.7534693 107.4146724
  44.2428892  97.9996989 108.1773033  43.5006823  98.5854728 106.9949861
  39.1161771 100.0238367  95.2817848  38.7874477  99.1435746  95.0992954
  39.4701142  99.9686036  96.1694238  48.3641350 111.6593270  99.7912834
  48.2166313 110.7309977  99.9720404  49.1894844 111.6813361  99.3069909
  42.2303594 100.3111337  95.6493326  42.5699667 100.8397258  94.9271934
  42.6775715 100.6491743  96.4251893  51.9675472 112.4821829 100.8777707
  52.8922019 112.2764690 100.7402158  51.7990775 112.2338230 101.7867048
  44.9247035  98.6948388 105.0996394  44.5843856  97.8956201 105.5017074
  44.2186042  98.9950099 104.5273227  45.5763507  95.7797700 103.5523717
  46.3989576  95.3058178 103.4302607  45.8201571  96.5588184 104.0522403
  44.2171742  98.8085959  93.8486619  44.9380104  99.1867211  93.3450336
  43.5937046  99.5274836  93.9521597  48.3602864  99.5131108  94.7844951
  48.5766479 100.3955746  94.4833779  47.8796932  99.1217321  94.0550593
  43.1002086 102.4716821 101.3615696  42.9546667 102.7857124 102.2539977
  42.6227289 103.0901721 100.8086594  44.9598469  99.4619369 101.4096585
  44.9460037  98.5660462 101.0728883  45.6770897  99.4690033 102.0434871
  46.8124599  99.8956709 103.4549713  46.5542377 100.8173780 103.4534043
  46.2809640  99.4987144 104.1450177  51.7570788 113.0007496  96.2339798
  51.9307666 112.4353919  95.4813651  52.2499679 113.8008391  96.0519288
  37.5747748 105.0122165 104.3003357  37.0301216 105.7881973 104.4323631
  38.4527098 105.3592970 104.1422478  44.3635365  98.3433749  96.6784155
  44.4851276  97.4150395  96.8775043  44.0737407  98.3572435  95.7662471
  47.2326555  96.0288660  99.8150875  47.2548252  96.0927993  98.8602855
  47.6494614  95.1893168 100.0091381  57.6110179 105.7643919  97.8530098
  58.0541325 105.0151244  97.4549221  56.7336690 105.7554056  97.4703830
  52.7445961 112.3174261  93.3336696  53.4396865 112.9380953  93.5524011
  53.0869111 111.4669612  93.6089074  38.3613770 104.1392062 107.1933514
  37.6195506 104.2874697 107.7798144  38.0406514 104.4000327 106.3300263
  54.6437384 109.7673966  94.8624027  55.1688708 110.1061239  94.1373347
  54.5559736 108.8320981  94.6787162  46.3057433 113.6808040 106.9913904
  46.6144559 113.4357187 107.8636603  47.1032915 113.8854678 106.5032774
  46.3278045 115.8345949  99.2219280  45.8883035 115.3422328  99.9152137
  47.0786162 115.2918917  98.9811356  38.8070384 112.0257490  99.2243908
  39.6328403 111.7261262  98.8442552  38.4564436 111.2565113  99.6733697
  43.7751917 111.3783959 101.2941582  43.1531926 110.7154664 100.9943810
  44.4456784 111.4045090 100.6115230  37.0078989 109.9443817 100.1832842
  36.1710897 109.5165991 100.0016843  36.9802634 110.1376260 101.1203633
  43.8476444  99.8565747 110.8874088  43.8964600 100.7327869 110.5051858
  44.3898958  99.3143140 110.3145731  54.3331290 110.4006870 110.1675225
  53.5426834 110.3831009 109.6279725  54.0964644 110.9395163 110.9224262
  54.4529165 107.2499336 107.4807954  54.5027170 107.0849344 108.4223476
  54.3443088 106.3826595 107.0905834  43.3365424 109.9287882  94.7700043
  43.4853544 110.6123346  94.1166715  44.1431867 109.9092972  95.2849498
  51.7432927 103.2330264 108.7967260  52.6442790 103.0936729 108.5051258
  51.8180902 103.3984719 109.7365438  46.0775733 100.6097119 107.6420447
  45.2079042 100.9030685 107.3703035  46.3135213 101.1937564 108.3627710
  55.9547362 109.6696278 107.7249975  55.6632170 110.0326258 108.5613436
  55.3419493 108.9563286 107.5463307  57.1543044 107.2349157 100.2452545
  57.9889935 107.6738962 100.4090106  57.2902173 106.7587811  99.4260791
  54.2034550 104.7928892 106.1930033  54.6788672 104.9856539 105.3848885
  53.2800115 104.8488078 105.9473417  41.0918057 105.9553059  95.7761112
  40.8464099 105.0515389  95.9741322  41.2613971 105.9570210  94.8340590
  48.7814766  96.8276736 105.1585867  49.2996710  97.5637763 104.8332356
  48.4269899  97.1340729 105.9932626  40.3613704 101.6881417  93.2747273
  39.6682949 101.7625772  92.6187309  40.1165456 100.9241761  93.7968790
  49.0327361  93.2477018 100.6786764  49.3129114  92.5800207 101.3047190
  49.8177968  93.4406114 100.1661428  46.8360829 112.4236012  92.2411790
  46.2634796 113.0426199  91.7882262  47.4093623 112.9735374  92.7751712
  52.9036219 101.6694652 104.4258339  53.8553642 101.7692750 104.4470563
  52.7339669 100.8772921 104.9356423  50.9250598  98.7550236 104.6117740
  50.3300531  99.0355248 103.9164228  50.6400295  99.2444137 105.3834481
  50.0558089 112.7073162  93.3720372  50.9888762 112.6418724  93.5753248
  49.9681302 113.5429429  92.9134905  52.6846106 112.0239033  90.3324320
  52.6059737 111.6898896  91.2260078  53.5055772 112.5160801  90.3315792
  55.3824297 104.8900772 103.5400638  55.3500617 103.9516773 103.7260322
  55.9924920 104.9684809 102.8066463  47.2207628 103.7596825  89.5827843
  48.1666732 103.6303033  89.6516261  46.8421873 103.0211487  90.0597271
  55.5318785 101.6811816 103.5858922  55.0157834 100.8970272 103.3988851
  56.4158734 101.3530532 103.7505441  53.1929512  95.4252831  99.5454734
  52.9954333  95.1167919 100.4298066  53.8029218  96.1514470  99.6752664
  61.2000847 105.9516779 102.6806675  61.9304235 105.6902067 103.2414379
  60.5907792 105.2145501 102.7208743  59.2816144 104.0924642 103.2781126
  58.5549307 103.9580606 102.6697618  58.8663431 104.4001470 104.0837845
  47.1046320 107.8114571 111.0428499  48.0249330 107.9893170 111.2368546
  47.0695903 106.8670617 110.8908199  45.4050545 101.6846801  89.5182728
  44.4982000 101.3879914  89.5945441  45.6826526 101.3876620  88.6517014
  36.3228485 103.0053165  99.9681774  36.0031270 102.1518473  99.6756148
  35.7761913 103.2201743 100.7239741  40.1008393 105.7215606 103.6851281
  40.3194403 106.6532714 103.7039314  40.5134167 105.3623580 104.4706084
  47.0212611  96.2283691  95.6726969  46.2113339  95.8830776  96.0482215
  47.7097027  95.9191235  96.2614581  48.9503159  95.3061738  97.2951266
  49.5034197  95.7257191  97.9541289  49.1873245  94.3797486  97.3374222
  44.9736258 101.2948812 113.0754030  44.8732985 102.2443169 113.0066121
  44.7557800 100.9667051 112.2030100  44.1749329  98.5433737  89.6594707
  45.0368493  98.8688635  89.9190524  44.3599674  97.7565233  89.1467773
  36.1916745 106.6256076 101.9374896  35.4980217 106.2110029 101.4244850
  36.9389736 106.6676613 101.3408315  52.3281966  97.4162263  96.8029930
  51.7480635  98.0747067  96.4207982  52.0617899  96.5939608  96.3917347
  50.7785532  96.8167321  99.0051250  51.2785311  96.9283855  98.1965569
  51.4221140  96.5128374  99.6452059  44.8367528 104.7245950 111.8919091
  44.3534610 105.5246311 112.0982980  44.9228467 104.7353895 110.9386535
  38.1053488 106.5574330  99.8140911  38.0824176 106.6562017  98.8622794
  38.4154124 107.4039481 100.1358077  40.7640866 108.6150485 103.9287525
  41.7184119 108.5834427 103.8617457  40.5653389 108.1541109 104.7437751
  41.3540248 107.1851601 106.4958323  42.1733137 107.6795680 106.5193160
  41.6277055 106.2683569 106.4675890  51.1106844  99.5762354  95.8586278
  50.2232699  99.8612004  95.6406473  51.5260833  99.4156117  95.0113555
  54.4621380  99.6008874  99.5740617  55.2381770 100.0905327  99.8465234
  53.7369514 100.0266929 100.0312487  56.8993939 100.3136494 100.6314558
  57.4938429 100.0732230  99.9207866  56.9720522  99.5943624 101.2588094
  39.1191094 114.1570105 100.9457723  38.9845562 113.3970506 100.3795721
  38.7023157 114.8811005 100.4786512  50.2550057 109.3407028  89.9534298
  50.9585908 109.5457031  90.5691954  49.5312706 109.9083790  90.2183382
  51.0847868 105.0916889  96.0736568  51.0283069 105.5485441  95.2344201
  51.6376210 104.3307574  95.8959411  54.8952674 100.8806621  96.8986688
  54.6389608 100.4803257  97.7294896  54.2705542 101.5950415  96.7736827
  59.2065011 103.6202695  99.4057979  58.6464569 103.6895884 100.1789541
  58.6008515 103.4443679  98.6857476  42.2760220 115.0539422 101.1576166
  42.1592604 115.9984854 101.0554856  41.4552667 114.7512983 101.5461965
  52.1636755 109.7789557  92.0032758  52.9982359 109.3470756  91.8210233
  52.0021098 109.6071571  92.9309653  51.8182647 106.2821671  93.3689098
  51.7631451 106.1165942  92.4277542  51.1928702 106.9897704  93.5251287
  36.6075162 101.5189735 107.1950520  37.2534026 101.0088689 107.6837745
  36.3992313 102.2558417 107.7693945  49.1328554 108.5870583 112.6942660
  50.0019714 108.7611235 112.3329295  48.6535306 109.4064999 112.5718390
  45.1278772  95.7829780  92.9474416  45.1157442  96.7271620  93.1042687
  46.0202194  95.5999925  92.6533877  43.3014734 115.7067684 104.3732094
  44.2041981 115.7391294 104.6898589  43.0752104 114.7768135 104.3878430
  45.0568336 114.4598670 101.0342173  44.1063967 114.4600532 100.9206545
  45.3600823 113.7131405 100.5178207  48.9430892  92.3772556  97.2020353
  48.1763288  91.8231043  97.3477035  49.3541597  92.4494425  98.0634504
  40.9472653  98.6657352 111.2925534  41.8104115  98.3094157 111.5028859
  40.3738064  98.3271247 111.9800938  60.7921030 120.2959208 102.0987935
  61.4299440 120.1765956 101.3951275  60.6741873 121.2440052 102.1575887
  57.6010736 120.2486637 102.0349460  57.2629248 120.1327701 101.1469995
  58.4700504 119.8477802 102.0150466  53.4597552 122.1022113  98.0246351
  52.8962417 122.0112050  97.2562638  53.3449947 121.2822017  98.5048843
  58.0830519 121.4021488 107.9935665  58.0719160 121.0074287 107.1216169
  58.2451159 120.6687561 108.5869437  51.0061984 123.5973305 100.8630571
  51.7983276 123.2564129 100.4476870  51.2458634 123.7068280 101.7832724
  59.0397111 125.7693081  93.3360816  58.3885090 126.3547161  92.9494829
  59.8341473 126.2999276  93.3955853  52.9652738 122.8582218  93.7347950
  53.7383614 122.3111205  93.5960826  53.3178137 123.7226467  93.9462411
  54.8037780 124.1858600 106.9414849  54.5127646 125.0904231 106.8261516
  55.4394765 124.2275128 107.6558919  55.7293987 121.5635449 103.5316209
  56.3257559 121.3391471 102.8173172  55.7868959 120.8220194 104.1341657
  55.3019016 119.0174884  91.3666400  55.5544536 118.4956405  90.6049863
  54.3643575 118.8541029  91.4693083  60.3462298 118.0210662  99.1741143
  61.1325388 117.6030086  98.8231560  60.6101003 118.9256755  99.3422791
  60.5172376 123.4583513  93.8729800  59.8818209 123.5318139  94.5850704
  60.1869782 124.0477111  93.1948879  65.7470726 117.9585896 100.0774122
  66.4795897 117.3885112 100.3111951  64.9910081 117.5707496 100.5180627
  55.0215304 120.9202990  93.5690775  54.9051562 120.2447893  94.2371859
  55.1317564 120.4335364  92.7522928  57.3646845 120.3813137  97.2737464
  57.0005052 119.8543758  97.9850385  58.2213961 119.9911606  97.1003949
  63.2696146 111.6707470 104.5368730  62.9379471 112.5402881 104.3129945
  62.6741759 111.3543754 105.2162761  57.0052332 115.4103037  92.2698813
  57.1726735 116.2783273  92.6369284  56.8149501 115.5730318  91.3460102
  59.7627665 123.8720016 103.9364643  59.4628388 124.7745054 103.8280450
  59.4178725 123.6052199 104.7885796  53.2140147 120.3233812  99.9701347
  52.2890643 120.1910027 100.1779039  53.4624560 121.1028032 100.4671290
  63.1624809 116.3902556 101.6162080  62.2541687 116.3217964 101.3220841
  63.1112405 116.8674501 102.4443906  56.9841553 117.8660694  93.2545479
  56.8641178 118.3117745  94.0930960  56.2894141 118.2146012  92.6959017
  50.5748958 119.9667086 100.8045136  50.7041339 120.2201565 101.7184548
  49.8946409 120.5594794 100.4849791  54.7448445 130.6364336  96.9035611
  54.6672475 131.5872161  96.9824091  54.1410089 130.2910208  97.5610537
  57.2365675 117.8092201 109.5596977  56.4599009 118.3686122 109.5499842
  57.8756238 118.2948984 110.0811848  65.0286456 114.5918994 103.3939954
  64.3860836 114.8851527 102.7479749  64.5241384 114.4771915 104.1993151
  62.6826619 118.3382167  94.0825813  63.5944475 118.5709554  93.9073511
  62.1736266 118.9219212  93.5200892  55.4912047 120.6177655 109.1214944
  56.2326732 121.1562699 108.8449768  54.7849033 121.2443944 109.2786496
  60.9667387 122.7606795 107.7187106  61.3750743 122.3189206 106.9741738
  60.2444648 122.1859423 107.9721299  57.3198457 117.6979402 105.0920663
  58.1659652 118.1218816 105.2355312  57.2597095 117.0413026 105.7859226
  61.2896202 123.3207986 101.4739395  60.6605064 123.4853700 100.7715463
  60.9021864 123.7349595 102.2450359  65.1685433 124.2562424  98.8283759
  64.4836472 124.6361325  98.2780792  65.2529283 124.8657750  99.5615706
  60.4697902 115.3583770 106.7501837  60.2258834 116.1125831 106.2136112
  60.7457833 115.7369118 107.5849084  62.4236365 121.9022383 105.4279102
  62.6353260 122.5454143 104.7513483  62.3766113 121.0684699 104.9601032
  60.0262594 114.5140203 102.3315674  59.1647073 114.8121457 102.6232412
  60.0525029 114.7310602 101.3996707  56.8424163 123.0582394  98.7389480
  57.3062509 123.3370097  97.9494102  56.5780962 122.1565839  98.5562571
  53.7348244 122.6053875 101.6769243  54.3049602 123.0341144 101.0386728
  54.3256356 122.3236460 102.3753429  55.7793049 119.1805546  95.5479045
  56.4817093 119.6326590  96.0152971  55.4473678 118.5389365  96.1758938
  54.2273411 117.7717303 109.9230254  53.5972072 118.4533584 110.1565651
  54.1209499 117.6600385 108.9783393  49.5218383 117.4389099 100.8496179
  48.7317437 117.6946628 100.3736289  50.0129631 118.2537437 100.9548219
  63.5382193 124.7794338 103.6001459  64.3599637 124.3774525 103.3184141
  63.5344596 124.6762572 104.5517575  51.4733129 117.8033678  97.8079655
  50.6764292 117.9152372  98.3263151  51.2458721 118.1420330  96.9420546
  57.3038796 124.3278381 105.7562170  57.3683229 124.7898789 106.5920342
  56.5949720 123.6975746 105.8844480  47.8056086 117.6919589 103.2811169
  48.0564125 118.5766599 103.5468745  48.3415635 117.5124191 102.5086261
  71.6288186 121.1233087  99.9486431  70.8751894 120.5540485  99.7930435
  71.7635727 121.0895751 100.8957066  57.0186814 125.9946489  95.6241150
  56.8832489 126.8398025  96.0525998  57.5596627 126.1965767  94.8607084
  53.5054154 112.0738069 112.2855506  53.1121099 111.5204267 112.9603150
  54.3220294 112.3848647 112.6762023  50.4716211 123.5121927  96.1969075
  50.9840732 124.3065177  96.3474640  51.1238924 122.8148217  96.1302677
  52.2811096 126.6287683  98.2791829  52.4577725 127.5505648  98.0912812
  53.0767930 126.3146102  98.7086208  56.4222115 113.4895948 109.8775762
  57.1631828 114.0903101 109.7980225  56.6540038 112.7473586 109.3193805
  51.5663453 118.6752315 108.1553992  51.4516968 117.7737572 108.4561091
  50.7107970 118.9216012 107.8038808  58.6455290 126.6170055 109.7541492
  58.2019145 125.8306434 109.4362397  59.3072504 126.8049206 109.0885383
  53.4042412 128.1465857 104.2802171  53.9549837 128.0182920 103.5079165
  52.5653888 128.4460746 103.9297064  60.7436529 126.8972855 107.7822894
  60.7255004 127.7181736 107.2903163  61.6656449 126.7726931 108.0073035
  57.2009583 124.4116985 108.6246402  57.7337919 123.6505273 108.3945710
  56.6723664 124.1190637 109.3670556  60.3679278 109.5177051 104.1540044
  60.0243547 110.4078693 104.0779154  60.7358240 109.3278708 103.2909629
  48.4365128 121.8410581  96.9728646  49.2740350 122.2507590  96.7562354
  48.6143396 120.9010023  96.9428840  60.3329560 119.5085662  92.6612479
  59.8176184 120.2790267  92.9000866  60.0606869 118.8350798  93.2845540
  57.9176671 114.3535363  97.7197717  57.0618268 113.9642213  97.5403356
  58.3303623 114.4327324  96.8597503  59.4475818 111.8881706 102.1189277
  58.9440614 111.8511841 101.3057082  59.7406425 112.7974449 102.1785934
  55.6918704 111.9720436 101.1255459  56.5571701 111.7763244 100.7661348
  55.7596213 111.7430787 102.0524815  65.3063835 122.2618017  94.5965652
  64.5293277 121.9229176  94.1520814  65.9855315 122.2670640  93.9220617
  60.1215864 117.3812754  94.4872260  59.8165999 117.6958903  95.3382403
  61.0746306 117.4594174  94.5299593  58.5662295 123.5402977  96.1365214
  58.0383657 122.8055737  95.8238451  58.0649798 124.3177654  95.8905182
  63.5455141 121.7351998 101.2532260  62.8878816 122.4251259 101.3412389
  64.3495541 122.1248430 101.5966247  53.2981023 114.2022644  98.4971826
  53.8724775 113.9797825  97.7645019  53.8852005 114.2711338  99.2500427
  62.3560600 120.0896371  99.3036202  62.8692482 120.7226362  99.8057912
  63.0061824 119.4897566  98.9379562  53.6250610 116.2327105  92.5167711
  52.7887922 116.5701791  92.8376986  53.4855380 116.0976084  91.5794848
  55.6003691 111.0763893  97.2246895  54.9468103 110.7612910  96.6003510
  55.5584165 110.4539633  97.9506718  56.7114896 121.3583188  89.1400187
  55.8041957 121.1272441  89.3391336  57.2085928 120.5620807  89.3274169
  59.6182974 130.0680695  92.0596873  58.9444673 130.3712392  92.6681831
  60.0048796 130.8709775  91.7102330  58.8341431 117.5645826 101.5494543
  57.9163992 117.7860773 101.3916231  59.2501575 117.6392137 100.6906250
  59.6176479 118.9637242  96.6797223  60.3648298 119.4758639  96.3704345
  59.8868068 118.6421294  97.5401616  57.8903129 121.4595782  93.6624177
  56.9814348 121.1754815  93.7596647  57.9198213 121.8794861  92.8027484
  63.1222396 125.0702372  97.4315345  62.6684724 124.2293282  97.4880535
  62.4916363 125.7063770  97.7690125  62.0655316 115.9994358  98.6616012
  61.3278073 115.4871744  98.9926255  62.3182090 115.5594740  97.8499289
  61.5655336 126.9078869  98.3665163  61.8578310 127.4683926  97.6477528
  62.0753956 127.2007430  99.1218322  62.1666943 108.7770610  99.2557781
  62.4725820 107.9167973  98.9683697  62.8919548 109.3688230  99.0556775
  48.4591299 119.1801297  97.6439379  48.2615699 118.5870657  96.9190446
  47.9037963 118.8753507  98.3615318  56.4388023 119.0724403  99.7633973
  56.4936633 118.1198239  99.6876449  55.6279225 119.2283842 100.2475271
  57.5879217 123.0004526  91.0012256  57.1498647 122.2840385  90.5417893
  58.3289658 123.2280641  90.4397347  54.3780383 117.6901463  97.5224351
  53.5648249 117.9895633  97.9289544  54.8739377 117.2957152  98.2398834
  56.5288961 127.6859220  99.4558616  56.4865140 127.9120066  98.5267148
  57.4451660 127.4522594  99.6044417  59.9754595 118.1543287 106.3539245
  60.3303982 118.3814760 107.2133711  60.6226726 118.4861664 105.7316501
  65.7052332 121.2761723  97.0588574  65.5670230 121.4663319  96.1309764
  65.3488550 122.0381106  97.5156625  53.8694458 115.2619818 103.1385586
  54.5093837 115.1208577 102.4408550  53.0371988 114.9754332 102.7624188
  65.7321711 123.3438250 102.0699846  66.1658218 123.2513539 102.9182900
  66.4453292 123.3195751 101.4319862  54.6454762 124.5622249  99.2520579
  55.4395360 124.0672569  99.0503154  53.9346454 124.0340112  98.8888284
  59.4649606 126.9440344 103.6032946  59.5186628 127.5131281 104.3710662
  58.5964387 127.1142229 103.2386984  50.9537525 118.7065331  95.3280331
  50.0235113 118.6449786  95.5450294  51.0494997 118.1841283  94.5316973
  50.8723074 115.2320143  97.9158573  51.1329891 116.1465477  97.8067734
  51.6940246 114.7644586  98.0655186  52.3447999 116.6457901 105.0857398
  53.0171053 116.4375263 104.4370047  51.5177786 116.4479987 104.6462630
  66.5937261 123.3861951 104.6032731  66.7873151 124.2907761 104.8492006
  66.4937879 122.9269370 105.4371316  58.2473572 113.2719841 107.1023059
  57.6001487 113.9709791 107.0087535  59.0174587 113.7055985 107.4699307
  61.6552369 123.5368694 110.1773612  61.5037876 123.3079245 109.2603696
  61.6457049 124.4939295 110.1904957  58.4237706 121.1100606 105.1619878
  59.3529766 121.2611766 104.9888846  58.0028736 121.1984627 104.3068525
  57.2226038 125.1351271 102.9318416  57.0837123 124.7670055 103.8044354
  56.4340634 125.6498910 102.7602374  57.8174190 130.2360367  94.2743952
  57.9925945 129.7648410  95.0889575  57.1306978 130.8626133  94.5025213
  58.7731253 124.5132873 100.3207254  58.4381085 124.4733643 101.2164904
  58.2735198 123.8477589  99.8477664  52.7475497 119.9200503 105.8459835
  52.6095295 119.1880742 106.4471374  53.6580420 119.8309404 105.5644023
  61.7090444 121.8588908  90.5944313  61.0919615 121.1335736  90.4977366
  61.2406933 122.6198268  90.2511388  55.3757797 119.6320463 105.3343514
  56.0857416 118.9913655 105.2930133  55.3327106 119.8833358 106.2569695
  63.3644576 126.5687816 108.2550094  63.3057122 125.8847036 107.5880677
  63.7664094 127.3106806 107.8030720  54.0886731 116.6185681 107.1539154
  53.5524088 116.1676419 107.8060750  53.5003440 116.7531590 106.4109618
  52.3835275 133.3849730 101.0483813  52.6231873 134.0168254 101.7262831
  51.5404471 133.0337770 101.3349172  53.4988990 116.0774332  89.7165618
  52.6218457 115.9563133  89.3527864  53.9746743 115.2860410  89.4644506
  63.3661983 124.5327400 106.4864073  62.4788762 124.1953322 106.6090472
  63.9360534 123.8010431 106.7232839  45.0191130 120.8651492  99.8107125
  45.7062170 120.5513222  99.2228140  44.8639259 121.7692856  99.5374376
  49.8225853 115.7541688 104.2392148  49.7384041 115.1467358 103.5042558
  49.0008559 116.2450707 104.2401645  56.8963137 129.1928852 103.4525317
  56.8233308 129.9983824 103.9644621  56.4540530 129.3920818 102.6273338
  56.6852916 128.4300622  96.9628138  55.9020438 128.9722303  97.0566363
  57.3845662 128.9474602  97.3622379  59.9949566 114.2395252  99.6062344
  60.4918266 113.4865214  99.2863414  59.2236548 114.2759569  99.0405553
  67.8479324 119.9435617 101.2480635  67.8369200 120.8260333 100.8774568
  66.9796703 119.5907168 101.0535172  59.3561820 129.0915686 105.6083475
  60.0689792 129.7263151 105.5359377  58.8651849 129.1879552 104.7923477
  61.0779347 122.9966939  97.1800767  60.1435626 123.1168402  97.0105471
  61.2556016 122.0939406  96.9160777  56.5784535 116.3812635  99.3334028
  56.2082323 115.8283675 100.0214934  57.0743628 115.7770768  98.7809028
  64.4651899 118.8384258  97.7150801  64.9312351 119.6712250  97.6411104
  64.9159399 118.3729240  98.4196060  54.4073734 126.8410130 106.4289046
  55.1083193 127.4746613 106.5818440  53.9368849 127.1824861 105.6684685
  62.5328130 125.1828080  94.7136953  62.8087974 125.0684674  95.6230827
  61.6632628 124.7845565  94.6749126  62.4368561 111.2064845 101.7541702
  61.5231641 111.4369072 101.9223909  62.8661663 111.2903289 102.6055735
  62.2075020 119.3954737 104.2541596  61.5546470 119.6430645 103.5994049
  62.5855400 118.5818876 103.9204074  59.1682194 129.4314431  98.3569767
  59.3504588 128.6136086  98.8197519  59.9915180 129.6482123  97.9194657
  59.5024359 128.3582616  95.6184815  60.0312126 127.8475070  95.0054977
  59.7652579 128.0425146  96.4830348  58.2562593 120.1374548 110.7407633
  57.5803230 120.0368678 111.4110009  59.0790227 119.9813762 111.2043631
  50.0041452 126.3746485 103.3620149  50.5894889 125.6290173 103.4948053
  49.8066290 126.6850442 104.2456813  52.8580107 129.4097732  98.3782591
  52.1890482 129.8943860  97.8946631  52.7192977 129.6566953  99.2925970
  44.5959107 118.9452085 102.0824592  44.6343206 118.4115676 102.8761710
  44.0899399 118.4187291 101.4635569  56.9985376 131.4441476 104.9765249
  57.5503684 131.6073097 105.7414335  57.3391569 132.0345914 104.3045274
  51.9749869 113.7916626 105.5787134  52.0391195 114.6531457 105.1664532
  51.9116989 113.1790627 104.8459493  51.4502141 115.8639758 109.2260168
  52.0774180 115.4816836 109.8397693  50.5930060 115.6453960 109.5915861
  61.8496250 126.2702733 110.8313904  62.3936154 126.8832692 110.3368859
  61.2683095 126.8282312 111.3480917  48.2267684 117.6716187  95.1578523
  48.5221125 116.7626866  95.1045577  47.3255720 117.6503927  94.8359526
  60.1353763 129.3923451 101.9628932  60.0104902 128.5913191 101.4539877
  60.7932854 129.8869645 101.4742902  51.7561931 115.7472184 101.1406072
  51.0348517 116.3608152 101.0013545  52.5455187 116.2829949 101.0622718
  62.1988671 127.1932471 103.5908482  61.2519007 127.0737823 103.5186808
  62.5471444 126.3054970 103.6734743  54.5588245 113.0826610 107.4146724
  55.0822647 113.3288907 108.1773033  54.3400578 113.9146645 106.9949861
  49.9555526 115.3530285  95.2817848  49.6268232 114.4727664  95.0992954
  50.3094896 115.2977954  96.1694238  59.2035105 126.9885188  99.7912834
  59.0560067 126.0601895  99.9720404  60.0288598 127.0105278  99.3069909
  53.0697349 115.6403255  95.6493326  53.4093421 116.1689176  94.9271934
  53.5169469 115.9783661  96.4251893  62.8069226 127.8113746 100.8777707
  63.7315774 127.6056608 100.7402158  62.6384530 127.5630148 101.7867048
  55.7640790 114.0240306 105.0996394  55.4237610 113.2248119 105.5017074
  55.0579796 114.3242016 104.5273227  56.4157262 111.1089618 103.5523717
  57.2383331 110.6350096 103.4302607  56.6595325 111.8880102 104.0522403
  55.0565496 114.1377876  93.8486619  55.7773859 114.5159129  93.3450336
  54.4330800 114.8566753  93.9521597  59.1996619 114.8423025  94.7844951
  59.4160233 115.7247663  94.4833779  58.7190686 114.4509239  94.0550593
  53.9395840 117.8008739 101.3615696  53.7940421 118.1149042 102.2539977
  53.4621044 118.4193639 100.8086594  55.7992223 114.7911287 101.4096585
  55.7853792 113.8952380 101.0728883  56.5164651 114.7981950 102.0434871
  57.6518354 115.2248627 103.4549713  57.3936132 116.1465697 103.4534043
  57.1203394 114.8279061 104.1450177  62.5964543 128.3299414  96.2339798
  62.7701420 127.7645836  95.4813651  63.0893434 129.1300309  96.0519288
  48.4141502 120.3414083 104.3003357  47.8694971 121.1173891 104.4323631
  49.2920852 120.6884887 104.1422478  55.2029119 113.6725667  96.6784155
  55.3245030 112.7442313  96.8775043  54.9131162 113.6864353  95.7662471
  58.0720310 111.3580577  99.8150875  58.0942006 111.4219910  98.8602855
  58.4888369 110.5185086 100.0091381  68.4503934 121.0935837  97.8530098
  68.8935080 120.3443162  97.4549221  67.5730444 121.0845973  97.4703830
  63.5839715 127.6466178  93.3336696  64.2790620 128.2672871  93.5524011
  63.9262865 126.7961530  93.6089074  49.2007524 119.4683979 107.1933514
  48.4589260 119.6166615 107.7798144  48.8800269 119.7292245 106.3300263
  65.4831138 125.0965884  94.8624027  66.0082462 125.4353157  94.1373347
  65.3953491 124.1612899  94.6787162  57.1451187 129.0099957 106.9913904
  57.4538313 128.7649104 107.8636603  57.9426669 129.2146596 106.5032774
  57.1671799 131.1637867  99.2219280  56.7276789 130.6714246  99.9152137
  57.9179916 130.6210835  98.9811356  49.6464138 127.3549408  99.2243908
  50.4722158 127.0553180  98.8442552  49.2958190 126.5857030  99.6733697
  54.6145671 126.7075876 101.2941582  53.9925680 126.0446581 100.9943810
  55.2850538 126.7337008 100.6115230  47.8472743 125.2735734 100.1832842
  47.0104651 124.8457909 100.0016843  47.8196389 125.4668178 101.1203633
  54.6870199 115.1857664 110.8874088  54.7358354 116.0619787 110.5051858
  55.2292713 114.6435057 110.3145731  65.1725044 125.7298787 110.1675225
  64.3820588 125.7122926 109.6279725  64.9358399 126.2687081 110.9224262
  65.2922919 122.5791254 107.4807954  65.3420924 122.4141261 108.4223476
  65.1836843 121.7118513 107.0905834  54.1759178 125.2579800  94.7700043
  54.3247298 125.9415264  94.1166715  54.9825622 125.2384890  95.2849498
  62.5826682 118.5622182 108.7967260  63.4836545 118.4228647 108.5051258
  62.6574656 118.7276637 109.7365438  56.9169487 115.9389037 107.6420447
  56.0472797 116.2322603 107.3703035  57.1528967 116.5229482 108.3627710
  66.7941116 124.9988195 107.7249975  66.5025925 125.3618176 108.5613436
  66.1813248 124.2855204 107.5463307  67.9936799 122.5641075 100.2452545
  68.8283690 123.0030879 100.4090106  68.1295927 122.0879728  99.4260791
  65.0428304 120.1220810 106.1930033  65.5182426 120.3148456 105.3848885
  64.1193870 120.1779996 105.9473417  51.9311811 121.2844977  95.7761112
  51.6857853 120.3807307  95.9741322  52.1007726 121.2862128  94.8340590
  59.6208521 112.1568654 105.1585867  60.1390465 112.8929680 104.8332356
  59.2663654 112.4632647 105.9932626  51.2007459 117.0173335  93.2747273
  50.5076704 117.0917690  92.6187309  50.9559211 116.2533678  93.7968790
  59.8721115 108.5768936 100.6786764  60.1522869 107.9092125 101.3047190
  60.6571722 108.7698032 100.1661428  57.6754584 127.7527930  92.2411790
  57.1028551 128.3718117  91.7882262  58.2487377 128.3027292  92.7751712
  63.7429973 116.9986570 104.4258339  64.6947396 117.0984668 104.4470563
  63.5733424 116.2064839 104.9356423  61.7644353 114.0842153 104.6117740
  61.1694285 114.3647166 103.9164228  61.4794050 114.5736054 105.3834481
  60.8951843 128.0365080  93.3720372  61.8282517 127.9710642  93.5753248
  60.8075056 128.8721347  92.9134905  63.5239860 127.3530950  90.3324320
  63.4453492 127.0190814  91.2260078  64.3449527 127.8452718  90.3315792
  66.2218051 120.2192690 103.5400638  66.1894371 119.2808690 103.7260322
  66.8318675 120.2976726 102.8066463  58.0601382 119.0888743  89.5827843
  59.0060487 118.9594951  89.6516261  57.6815627 118.3503405  90.0597271
  66.3712540 117.0103733 103.5858922  65.8551588 116.2262190 103.3988851
  67.2552488 116.6822450 103.7505441  64.0323267 110.7544749  99.5454734
  63.8348088 110.4459837 100.4298066  64.6422972 111.4806388  99.6752664
  72.0394601 121.2808697 102.6806675  72.7697990 121.0193985 103.2414379
  71.4301547 120.5437419 102.7208743  70.1209898 119.4216559 103.2781126
  69.3943062 119.2872524 102.6697618  69.7057185 119.7293388 104.0837845
  57.9440075 123.1406489 111.0428499  58.8643084 123.3185088 111.2368546
  57.9089658 122.1962534 110.8908199  56.2444299 117.0138719  89.5182728
  55.3375755 116.7171832  89.5945441  56.5220280 116.7168537  88.6517014
  47.1622240 118.3345083  99.9681774  46.8425024 117.4810391  99.6756148
  46.6155668 118.5493661 100.7239741  50.9402147 121.0507524 103.6851281
  51.1588157 121.9824631 103.7039314  51.3527921 120.6915498 104.4706084
  57.8606365 111.5575609  95.6726969  57.0507093 111.2122694  96.0482215
  58.5490782 111.2483153  96.2614581  59.7896913 110.6353656  97.2951266
  60.3427952 111.0549109  97.9541289  60.0267000 109.7089404  97.3374222
  55.8130013 116.6240729 113.0754030  55.7126739 117.5735086 113.0066121
  55.5951555 116.2958968 112.2030100  55.0143084 113.8725654  89.6594707
  55.8762248 114.1980553  89.9190524  55.1993428 113.0857150  89.1467773
  47.0310500 121.9547994 101.9374896  46.3373971 121.5401947 101.4244850
  47.7783491 121.9968531 101.3408315  63.1675720 112.7454181  96.8029930
  62.5874389 113.4038985  96.4207982  62.9011653 111.9231525  96.3917347
  61.6179287 112.1459239  99.0051250  62.1179065 112.2575773  98.1965569
  62.2614895 111.8420291  99.6452059  55.6761283 120.0537868 111.8919091
  55.1928364 120.8538228 112.0982980  55.7622222 120.0645813 110.9386535
  48.9447242 121.8866248  99.8140911  48.9217930 121.9853935  98.8622794
  49.2547879 122.7331399 100.1358077  51.6034620 123.9442403 103.9287525
  52.5577874 123.9126345 103.8617457  51.4047144 123.4833027 104.7437751
  52.1934002 122.5143519 106.4958323  53.0126891 123.0087598 106.5193160
  52.4670810 121.5975487 106.4675890  61.9500598 114.9054271  95.8586278
  61.0626453 115.1903922  95.6406473  62.3654587 114.7448035  95.0113555
  65.3015135 114.9300792  99.5740617  66.0775525 115.4197245  99.8465234
  64.5763269 115.3558846 100.0312487  67.7387693 115.6428411 100.6314558
  68.3332184 115.4024147  99.9207866  67.8114277 114.9235542 101.2588094
  49.9584849 129.4862022 100.9457723  49.8239317 128.7262423 100.3795721
  49.5416911 130.2102922 100.4786512  61.0943812 124.6698946  89.9534298
  61.7979662 124.8748948  90.5691954  60.3706461 125.2375708  90.2183382
  61.9241622 120.4208807  96.0736568  61.8676824 120.8777359  95.2344201
  62.4769965 119.6599492  95.8959411  65.7346428 116.2098539  96.8986688
  65.4783362 115.8095175  97.7294896  65.1099296 116.9242333  96.7736827
  70.0458766 118.9494612  99.4057979  69.4858324 119.0187802 100.1789541
  69.4402269 118.7735597  98.6857476  53.1153975 130.3831339 101.1576166
  52.9986359 131.3276772 101.0554856  52.2946421 130.0804901 101.5461965
  63.0030509 125.1081475  92.0032758  63.8376113 124.6762674  91.8210233
  62.8414852 124.9363489  92.9309653  62.6576401 121.6113588  93.3689098
  62.6025205 121.4457860  92.4277542  62.0322457 122.3189621  93.5251287
  47.4468916 116.8481653 107.1950520  48.0927780 116.3380607 107.6837745
  47.2386068 117.5850334 107.7693945  59.9722309 123.9162500 112.6942660
  60.8413468 124.0903153 112.3329295  59.4929060 124.7356917 112.5718390
  55.9672527 111.1121697  92.9474416  55.9551197 112.0563537  93.1042687
  56.8595949 110.9291843  92.6533877  54.1408489 131.0359601 104.3732094
  55.0435736 131.0683212 104.6898589  53.9145859 130.1060052 104.3878430
  55.8962091 129.7890588 101.0342173  54.9457722 129.7892449 100.9206545
  56.1994577 129.0423322 100.5178207  59.7824646 107.7064474  97.2020353
  59.0157042 107.1522961  97.3477035  60.1935351 107.7786343  98.0634504
  51.7866407 113.9949270 111.2925534  52.6497869 113.6386075 111.5028859
  51.2131818 113.6563165 111.9800938  71.6314784 135.6251126 102.0987935
  72.2693194 135.5057874 101.3951275  71.5135627 136.5731970 102.1575887
  68.4404491 135.5778554 102.0349460  68.1023002 135.4619619 101.1469995
  69.3094259 135.1769719 102.0150466  64.2991306 137.4314031  98.0246351
  63.7356171 137.3403968  97.2562638  64.1843701 136.6113935  98.5048843
  68.9224274 136.7313406 107.9935665  68.9112914 136.3366204 107.1216169
  69.0844913 135.9979479 108.5869437  61.8455738 138.9265222 100.8630571
  62.6377030 138.5856047 100.4476870  62.0852388 139.0360197 101.7832724
  69.8790865 141.0984998  93.3360816  69.2278845 141.6839079  92.9494829
  70.6735228 141.6291193  93.3955853  63.8046492 138.1874136  93.7347950
  64.5777368 137.6403123  93.5960826  64.1571891 139.0518385  93.9462411
  65.6431535 139.5150518 106.9414849  65.3521401 140.4196149 106.8261516
  66.2788519 139.5567045 107.6558919  66.5687742 136.8927366 103.5316209
  67.1651314 136.6683389 102.8173172  66.6262713 136.1512112 104.1341657
  66.1412770 134.3466802  91.3666400  66.3938291 133.8248323  90.6049863
  65.2037329 134.1832947  91.4693083  71.1856053 133.3502580  99.1741143
  71.9719142 132.9322003  98.8231560  71.4494757 134.2548672  99.3422791
  71.3566130 138.7875430  93.8729800  70.7211963 138.8610057  94.5850704
  71.0263537 139.3769029  93.1948879  76.5864480 133.2877813 100.0774122
  77.3189652 132.7177030 100.3111951  75.8303836 132.8999414 100.5180627
  65.8609059 136.2494908  93.5690775  65.7445317 135.5739811  94.2371859
  65.9711319 135.7627282  92.7522928  68.2040600 135.7105055  97.2737464
  67.8398807 135.1835676  97.9850385  69.0607716 135.3203524  97.1003949
  74.1089900 126.9999387 104.5368730  73.7773225 127.8694798 104.3129945
  73.5135514 126.6835671 105.2162761  67.8446087 130.7394954  92.2698813
  68.0120489 131.6075191  92.6369284  67.6543256 130.9022236  91.3460102
  70.6021420 139.2011933 103.9364643  70.3022143 140.1036972 103.8280450
  70.2572479 138.9344117 104.7885796  64.0533901 135.6525730  99.9701347
  63.1284398 135.5201944 100.1779039  64.3018315 136.4319949 100.4671290
  74.0018564 131.7194474 101.6162080  73.0935441 131.6509882 101.3220841
  73.9506159 132.1966418 102.4443906  67.8235308 133.1952612  93.2545479
  67.7034933 133.6409663  94.0930960  67.1287896 133.5437930  92.6959017
  61.4142712 135.2959004 100.8045136  61.5435094 135.5493483 101.7184548
  60.7340164 135.8886712 100.4849791  65.5842200 145.9656254  96.9035611
  65.5066229 146.9164079  96.9824091  64.9803843 145.6202126  97.5610537
  68.0759429 133.1384119 109.5596977  67.2992763 133.6978039 109.5499842
  68.7149992 133.6240902 110.0811848  73.5220374 133.6674085  94.0825813
  74.4338230 133.9001472  93.9073511  73.0130021 134.2511129  93.5200892
  66.3305802 135.9469572 109.1214944  67.0720486 136.4854616 108.8449768
  65.6242787 136.5735861 109.2786496  71.8061141 138.0898713 107.7187106
  72.2144497 137.6481123 106.9741738  71.0838403 137.5151340 107.9721299
  68.1592211 133.0271320 105.0920663  69.0053407 133.4510733 105.2355312
  68.0990849 132.3704944 105.7859226  72.1289956 138.6499904 101.4739395
  71.4998818 138.8145618 100.7715463  71.7415618 139.0641513 102.2450359
  76.0079188 139.5854341  98.8283759  75.3230226 139.9653243  98.2780792
  76.0923037 140.1949668  99.5615706  71.3091657 130.6875688 106.7501837
  71.0652589 131.4417749 106.2136112  71.5851587 131.0661036 107.5849084
  73.2630120 137.2314300 105.4279102  73.4747015 137.8746060 104.7513483
  73.2159868 136.3976617 104.9601032  70.8656348 129.8432121 102.3315674
  70.0040828 130.1413375 102.6232412  70.8918783 130.0602520 101.3996707
  67.6817918 138.3874312  98.7389480  68.1456263 138.6662015  97.9494102
  67.4174716 137.4857756  98.5562571  64.5741999 137.9345793 101.6769243
  65.1443356 138.3633062 101.0386728  65.1650111 137.6528378 102.3753429
  66.6186804 134.5097464  95.5479045  67.3210847 134.9618508  96.0152971
  66.2867432 133.8681283  96.1758938  65.0667165 133.1009221 109.9230254
  64.4365826 133.7825501 110.1565651  64.9603253 132.9892302 108.9783393
  60.3612138 132.7681017 100.8496179  59.5711192 133.0238545 100.3736289
  60.8523385 133.5829355 100.9548219  74.3775947 140.1086256 103.6001459
  75.1993391 139.7066443 103.3184141  74.3738350 140.0054490 104.5517575
  62.3126883 133.1325596  97.8079655  61.5158047 133.2444290  98.3263151
  62.0852476 133.4712248  96.9420546  68.1432551 139.6570299 105.7562170
  68.2076983 140.1190706 106.5920342  67.4343475 139.0267664 105.8844480
  58.6449841 133.0211507 103.2811169  58.8957879 133.9058517 103.5468745
  59.1809389 132.8416109 102.5086261  82.4681941 136.4525004  99.9486431
  81.7145649 135.8832402  99.7930435  82.6029482 136.4187669 100.8957066
  67.8580569 141.3238407  95.6241150  67.7226243 142.1689942  96.0525998
  68.3990381 141.5257684  94.8607084  64.3447908 127.4029986 112.2855506
  63.9514854 126.8496185 112.9603150  65.1614049 127.7140565 112.6762023
  61.3109966 138.8413845  96.1969075  61.8234487 139.6357095  96.3474640
  61.9632679 138.1440135  96.1302677  63.1204851 141.9579601  98.2791829
  63.2971479 142.8797566  98.0912812  63.9161684 141.6438020  98.7086208
  67.2615869 128.8187866 109.8775762  68.0025583 129.4195019 109.7980225
  67.4933792 128.0765503 109.3193805  62.4057207 134.0044233 108.1553992
  62.2910722 133.1029490 108.4561091  61.5501725 134.2507930 107.8038808
  69.4849045 141.9461973 109.7541492  69.0412899 141.1598352 109.4362397
  70.1466259 142.1341124 109.0885383  64.2436166 143.4757775 104.2802171
  64.7943591 143.3474838 103.5079165  63.4047642 143.7752664 103.9297064
  71.5830283 142.2264773 107.7822894  71.5648758 143.0473654 107.2903163
  72.5050203 142.1018848 108.0073035  68.0403337 139.7408903 108.6246402
  68.5731674 138.9797191 108.3945710  67.5117418 139.4482554 109.3670556
  71.2073032 124.8468969 104.1540044  70.8637302 125.7370610 104.0779154
  71.5751995 124.6570626 103.2909629  59.2758883 137.1702499  96.9728646
  60.1134105 137.5799507  96.7562354  59.4537150 136.2301941  96.9428840
  71.1723315 134.8377580  92.6612479  70.6569938 135.6082184  92.9000866
  70.9000623 134.1642716  93.2845540  68.7570426 129.6827280  97.7197717
  67.9012022 129.2934131  97.5403356  69.1697378 129.7619241  96.8597503
  70.2869573 127.2173624 102.1189277  69.7834368 127.1803759 101.3057082
  70.5800179 128.1266366 102.1785934  66.5312458 127.3012353 101.1255459
  67.3965455 127.1055162 100.7661348  66.5989967 127.0722705 102.0524815
  76.1457589 137.5909934  94.5965652  75.3687032 137.2521094  94.1520814
  76.8249070 137.5962557  93.9220617  70.9609618 132.7104672  94.4872260
  70.6559754 133.0250821  95.3382403  71.9140060 132.7886092  94.5299593
  69.4056050 138.8694895  96.1365214  68.8777411 138.1347655  95.8238451
  68.9043553 139.6469571  95.8905182  74.3848896 137.0643916 101.2532260
  73.7272570 137.7543177 101.3412389  75.1889295 137.4540347 101.5966247
  64.1374777 129.5314561  98.4971826  64.7118529 129.3089743  97.7645019
  64.7245760 129.6003256  99.2500427  73.1954355 135.4188288  99.3036202
  73.7086236 136.0518280  99.8057912  73.8455579 134.8189484  98.9379562
  64.4644365 131.5619022  92.5167711  63.6281677 131.8993709  92.8376986
  64.3249134 131.4268002  91.5794848  66.4397445 126.4055810  97.2246895
  65.7861858 126.0904827  96.6003510  66.3977919 125.7831551  97.9506718
  67.5508650 136.6875105  89.1400187  66.6435712 136.4564359  89.3391336
  68.0479682 135.8912725  89.3274169  70.4576729 145.3972612  92.0596873
  69.7838428 145.7004309  92.6681831  70.8442551 146.2001693  91.7102330
  69.6735186 132.8937744 101.5494543  68.7557747 133.1152691 101.3916231
  70.0895329 132.9684054 100.6906250  70.4570233 134.2929159  96.6797223
  71.2042052 134.8050557  96.3704345  70.7261823 133.9713212  97.5401616
  68.7296884 136.7887700  93.6624177  67.8208103 136.5046733  93.7596647
  68.7591967 137.2086779  92.8027484  73.9616151 140.3994290  97.4315345
  73.5078478 139.5585200  97.4880535  73.3310118 141.0355688  97.7690125
  72.9049070 131.3286276  98.6616012  72.1671827 130.8163662  98.9926255
  73.1575844 130.8886657  97.8499289  72.4049090 142.2370786  98.3665163
  72.6972065 142.7975843  97.6477528  72.9147711 142.5299347  99.1218322
  73.0060698 124.1062528  99.2557781  73.3119575 123.2459891  98.9683697
  73.7313303 124.6980148  99.0556775  59.2985054 134.5093214  97.6439379
  59.1009454 133.9162575  96.9190446  58.7431718 134.2045424  98.3615318
  67.2781778 134.4016321  99.7633973  67.3330387 133.4490157  99.6876449
  66.4672980 134.5575760 100.2475271  68.4272971 138.3296444  91.0012256
  67.9892401 137.6132303  90.5417893  69.1683412 138.5572559  90.4397347
  65.2174137 133.0193380  97.5224351  64.4042003 133.3187551  97.9289544
  65.7133132 132.6249069  98.2398834  67.3682715 143.0151137  99.4558616
  67.3258894 143.2411984  98.5267148  68.2845414 142.7814512  99.6044417
  70.8148349 133.4835205 106.3539245  71.1697737 133.7106678 107.2133711
  71.4620480 133.8153582 105.7316501  76.5446086 136.6053641  97.0588574
  76.4063985 136.7955237  96.1309764  76.1882305 137.3673024  97.5156625
  64.7088212 130.5911736 103.1385586  65.3487592 130.4500495 102.4408550
  63.8765743 130.3046249 102.7624188  76.5715466 138.6730168 102.0699846
  77.0051972 138.5805457 102.9182900  77.2847046 138.6487668 101.4319862
  65.4848516 139.8914166  99.2520579  66.2789115 139.3964487  99.0503154
  64.7740209 139.3632030  98.8888284  70.3043361 142.2732262 103.6032946
  70.3580383 142.8423198 104.3710662  69.4358142 142.4434147 103.2386984
  61.7931280 134.0357248  95.3280331  60.8628868 133.9741704  95.5450294
  61.8888752 133.5133201  94.5316973  61.7116829 130.5612061  97.9158573
  61.9723646 131.4757394  97.8067734  62.5334001 130.0936504  98.0655186
  63.1841754 131.9749818 105.0857398  63.8564807 131.7667180 104.4370047
  62.3571541 131.7771904 104.6462630  77.4331015 138.7153869 104.6032731
  77.6266905 139.6199679 104.8492006  77.3331633 138.2561288 105.4371316
  69.0867326 128.6011759 107.1023059  68.4395241 129.3001709 107.0087535
  69.8568341 129.0347903 107.4699307  72.4946124 138.8660611 110.1773612
  72.3431630 138.6371163 109.2603696  72.4850803 139.8231213 110.1904957
  69.2631460 136.4392524 105.1619878  70.1923520 136.5903684 104.9888846
  68.8422490 136.5276545 104.3068525  68.0619792 140.4643188 102.9318416
  67.9230878 140.0961973 103.8044354  67.2734388 140.9790828 102.7602374
  68.6567944 145.5652285  94.2743952  68.8319700 145.0940328  95.0889575
  67.9700732 146.1918051  94.5025213  69.6125007 139.8424791 100.3207254
  69.2774840 139.8025561 101.2164904  69.1128953 139.1769507  99.8477664
  63.5869251 135.2492421 105.8459835  63.4489049 134.5172660 106.4471374
  64.4974175 135.1601321 105.5644023  72.5484199 137.1880825  90.5944313
  71.9313370 136.4627654  90.4977366  72.0800687 137.9490186  90.2511388
  66.2151552 134.9612380 105.3343514  66.9251170 134.3205573 105.2930133
  66.1720860 135.2125275 106.2569695  74.2038331 141.8979734 108.2550094
  74.1450877 141.2138954 107.5880677  74.6057849 142.6398724 107.8030720
  64.9280486 131.9477598 107.1539154  64.3917843 131.4968337 107.8060750
  64.3397194 132.0823507 106.4109618  64.3382745 131.4066250  89.7165618
  63.4612211 131.2855051  89.3527864  64.8140498 130.6152328  89.4644506
  74.2055738 139.8619318 106.4864073  73.3182517 139.5245240 106.6090472
  74.7754289 139.1302349 106.7232839  55.8584885 136.1943409  99.8107125
  56.5455925 135.8805140  99.2228140  55.7033014 137.0984774  99.5374376
  60.6619607 131.0833606 104.2392148  60.5777796 130.4759276 103.5042558
  59.8402314 131.5742624 104.2401645  67.7356891 144.5220770 103.4525317
  67.6627063 145.3275742 103.9644621  67.2934284 144.7212736 102.6273338
  67.5246671 143.7592540  96.9628138  66.7414193 144.3014220  97.0566363
  68.2239416 144.2766520  97.3622379  70.8343321 129.5687170  99.6062344
  71.3312021 128.8157132  99.2863414  70.0630302 129.6051486  99.0405553
  78.6873078 135.2727535 101.2480635  78.6762955 136.1552251 100.8774568
  77.8190458 134.9199086 101.0535172  70.1955575 144.4207604 105.6083475
  70.9083547 145.0555069 105.5359377  69.7045603 144.5171470 104.7923477
  71.9173102 138.3258857  97.1800767  70.9829380 138.4460319  97.0105471
  72.0949770 137.4231324  96.9160777  67.4178290 131.7104553  99.3334028
  67.0476077 131.1575593 100.0214934  67.9137382 131.1062686  98.7809028
  75.3045653 134.1676176  97.7150801  75.7706105 135.0004168  97.6411104
  75.7553154 133.7021158  98.4196060  65.2467488 142.1702048 106.4289046
  65.9476948 142.8038531 106.5818440  64.7762603 142.5116779 105.6684685
  73.3721884 140.5119997  94.7136953  73.6481728 140.3976592  95.6230827
  72.5026383 140.1137482  94.6749126  73.2762316 126.5356763 101.7541702
  72.3625396 126.7660990 101.9223909  73.7055417 126.6195207 102.6055735
  73.0468774 134.7246655 104.2541596  72.3940225 134.9722562 103.5994049
  73.4249154 133.9110793 103.9204074  70.0075948 144.7606348  98.3569767
  70.1898343 143.9428004  98.8197519  70.8308934 144.9774040  97.9194657
  70.3418114 143.6874533  95.6184815  70.8705880 143.1766988  95.0054977
  70.6046333 143.3717064  96.4830348  69.0956347 135.4666466 110.7407633
  68.4196984 135.3660595 111.4110009  69.9183981 135.3105680 111.2043631
  60.8435206 141.7038403 103.3620149  61.4288643 140.9582091 103.4948053
  60.6460045 142.0142359 104.2456813  63.6973862 144.7389650  98.3782591
  63.0284237 145.2235778  97.8946631  63.5586731 144.9858870  99.2925970
  55.4352861 134.2744003 102.0824592  55.4736961 133.7407594 102.8761710
  54.9293154 133.7479208 101.4635569  67.8379130 146.7733394 104.9765249
  68.3897438 146.9365015 105.7414335  68.1785324 147.3637831 104.3045274
  62.8143623 129.1208543 105.5787134  62.8784950 129.9823374 105.1664532
  62.7510744 128.5082545 104.8459493  62.2895896 131.1931676 109.2260168
  62.9167935 130.8108753 109.8397693  61.4323815 130.9745878 109.5915861
  72.6890004 141.5994651 110.8313904  73.2329908 142.2124609 110.3368859
  72.1076849 142.1574229 111.3480917  59.0661439 133.0008105  95.1578523
  59.3614880 132.0918783  95.1045577  58.1649474 132.9795844  94.8359526
  70.9747517 144.7215369 101.9628932  70.8498657 143.9205109 101.4539877
  71.6326609 145.2161562 101.4742902  62.5955686 131.0764102 101.1406072
  61.8742271 131.6900069 101.0013545  63.3848941 131.6121866 101.0622718
  73.0382426 142.5224389 103.5908482  72.0912761 142.4029740 103.5186808
  73.3865199 141.6346887 103.6734743  65.3981999 128.4118528 107.4146724
  65.9216401 128.6580825 108.1773033  65.1794332 129.2438563 106.9949861
  60.7949280 130.6822203  95.2817848  60.4661986 129.8019582  95.0992954
  61.1488651 130.6269871  96.1694238  70.0428859 142.3177105  99.7912834
  69.8953822 141.3893813  99.9720404  70.8682353 142.3397196  99.3069909
  63.9091103 130.9695172  95.6493326  64.2487176 131.4981094  94.9271934
  64.3563224 131.3075579  96.4251893  73.6462981 143.1405664 100.8777707
  74.5709528 142.9348525 100.7402158  73.4778284 142.8922065 101.7867048
  66.6034544 129.3532223 105.0996394  66.2631365 128.5540036 105.5017074
  65.8973551 129.6533934 104.5273227  67.2551016 126.4381536 103.5523717
  68.0777085 125.9642014 103.4302607  67.4989080 127.2172019 104.0522403
  65.8959251 129.4669794  93.8486619  66.6167613 129.8451047  93.3450336
  65.2724555 130.1858671  93.9521597  70.0390373 130.1714943  94.7844951
  70.2553988 131.0539581  94.4833779  69.5584441 129.7801156  94.0550593
  64.7789595 133.1300656 101.3615696  64.6334176 133.4440959 102.2539977
  64.3014798 133.7485557 100.8086594  66.6385978 130.1203204 101.4096585
  66.6247546 129.2244298 101.0728883  67.3558406 130.1273868 102.0434871
  68.4912108 130.5540544 103.4549713  68.2329886 131.4757615 103.4534043
  67.9597149 130.1570979 104.1450177  73.4358297 143.6591332  96.2339798
  73.6095175 143.0937754  95.4813651  73.9287188 144.4592226  96.0519288
  59.2535257 135.6706001 104.3003357  58.7088725 136.4465809 104.4323631
  60.1314607 136.0176805 104.1422478  66.0422874 129.0017585  96.6784155
  66.1638785 128.0734231  96.8775043  65.7524916 129.0156270  95.7662471
  68.9114064 126.6872495  99.8150875  68.9335761 126.7511828  98.8602855
  69.3282123 125.8477004 100.0091381  79.2897688 136.4227755  97.8530098
  79.7328834 135.6735080  97.4549221  78.4124199 136.4137891  97.4703830
  74.4233470 142.9758096  93.3336696  75.1184374 143.5964789  93.5524011
  74.7656620 142.1253447  93.6089074  60.0401279 134.7975897 107.1933514
  59.2983015 134.9458532 107.7798144  59.7194023 135.0584163 106.3300263
  76.3224893 140.4257802  94.8624027  76.8476217 140.7645074  94.1373347
  76.2347245 139.4904817  94.6787162  67.9844941 144.3391875 106.9913904
  68.2932068 144.0941022 107.8636603  68.7820424 144.5438514 106.5032774
  68.0065554 146.4929785  99.2219280  67.5670544 146.0006163  99.9152137
  68.7573670 145.9502752  98.9811356  60.4857893 142.6841326  99.2243908
  61.3115912 142.3845098  98.8442552  60.1351945 141.9148948  99.6733697
  65.4539426 142.0367794 101.2941582  64.8319435 141.3738499 100.9943810
  66.1244293 142.0628926 100.6115230  58.6866498 140.6027652 100.1832842
  57.8498406 140.1749826 100.0016843  58.6590143 140.7960095 101.1203633
  65.5263953 130.5149582 110.8874088  65.5752109 131.3911705 110.5051858
  66.0686467 129.9726975 110.3145731  76.0118799 141.0590705 110.1675225
  75.2214343 141.0414844 109.6279725  75.7752153 141.5978999 110.9224262
  76.1316674 137.9083172 107.4807954  76.1814679 137.7433179 108.4223476
  76.0230597 137.0410431 107.0905834  65.0152933 140.5871717  94.7700043
  65.1641053 141.2707182  94.1166715  65.8219376 140.5676807  95.2849498
  73.4220436 133.8914100 108.7967260  74.3230299 133.7520564 108.5051258
  73.4968411 134.0568554 109.7365438  67.7563242 131.2680954 107.6420447
  66.8866551 131.5614520 107.3703035  67.9922722 131.8521399 108.3627710
  77.6334871 140.3280113 107.7249975  77.3419679 140.6910094 108.5613436
  77.0207002 139.6147121 107.5463307  78.8330553 137.8932993 100.2452545
  79.6677444 138.3322797 100.4090106  78.9689682 137.4171646  99.4260791
  75.8822059 135.4512728 106.1930033  76.3576181 135.6440374 105.3848885
  74.9587624 135.5071913 105.9473417  62.7705566 136.6136895  95.7761112
  62.5251608 135.7099225  95.9741322  62.9401480 136.6154045  94.8340590
  70.4602275 127.4860571 105.1585867  70.9784219 128.2221598 104.8332356
  70.1057408 127.7924565 105.9932626  62.0401213 132.3465252  93.2747273
  61.3470458 132.4209607  92.6187309  61.7952965 131.5825596  93.7968790
  70.7114870 123.9060854 100.6786764  70.9916623 123.2384043 101.3047190
  71.4965477 124.0989949 100.1661428  68.5148338 143.0819848  92.2411790
  67.9422305 143.7010035  91.7882262  69.0881132 143.6319209  92.7751712
  74.5823728 132.3278488 104.4258339  75.5341151 132.4276585 104.4470563
  74.4127178 131.5356756 104.9356423  72.6038107 129.4134071 104.6117740
  72.0088040 129.6939084 103.9164228  72.3187804 129.9027972 105.3834481
  71.7345598 143.3656998  93.3720372  72.6676271 143.3002559  93.5753248
  71.6468811 144.2013265  92.9134905  74.3633615 142.6822868  90.3324320
  74.2847246 142.3482732  91.2260078  75.1843281 143.1744636  90.3315792
  77.0611806 135.5484607 103.5400638  77.0288126 134.6100608 103.7260322
  77.6712429 135.6268644 102.8066463  68.8995137 134.4180660  89.5827843
  69.8454241 134.2886869  89.6516261  68.5209382 133.6795322  90.0597271
  77.2106294 132.3395651 103.5858922  76.6945343 131.5554108 103.3988851
  78.0946243 132.0114367 103.7505441  82.8788356 136.6100614 102.6806675
  83.6091744 136.3485902 103.2414379  82.2695301 135.8729336 102.7208743
  68.7833829 138.4698407 111.0428499  69.7036839 138.6477006 111.2368546
  68.7483412 137.5254452 110.8908199  67.0838054 132.3430637  89.5182728
  66.1769509 132.0463750  89.5945441  67.3614035 132.0460455  88.6517014
  58.0015994 133.6637000  99.9681774  57.6818779 132.8102308  99.6756148
  57.4549422 133.8785578 100.7239741  61.7795902 136.3799441 103.6851281
  61.9981911 137.3116549 103.7039314  62.1921676 136.0207416 104.4706084
  68.7000120 126.8867527  95.6726969  67.8900848 126.5414611  96.0482215
  69.3884536 126.5775070  96.2614581  70.6290668 125.9645573  97.2951266
  71.1821706 126.3841027  97.9541289  70.8660754 125.0381321  97.3374222
  66.6523767 131.9532647 113.0754030  66.5520494 132.9027004 113.0066121
  66.4345309 131.6250886 112.2030100  65.8536838 129.2017572  89.6594707
  66.7156002 129.5272470  89.9190524  66.0387183 128.4149068  89.1467773
  57.8704254 137.2839912 101.9374896  57.1767726 136.8693864 101.4244850
  58.6177245 137.3260448 101.3408315  74.0069475 128.0746098  96.8029930
  73.4268144 128.7330903  96.4207982  73.7405408 127.2523443  96.3917347
  72.4573041 127.4751156  99.0051250  72.9572820 127.5867691  98.1965569
  73.1008649 127.1712209  99.6452059  66.5155037 135.3829786 111.8919091
  66.0322119 136.1830146 112.0982980  66.6015976 135.3937731 110.9386535
  59.7840997 137.2158165  99.8140911  59.7611685 137.3145853  98.8622794
  60.0941633 138.0623316 100.1358077  62.4428375 139.2734321 103.9287525
  63.3971628 139.2418263 103.8617457  62.2440898 138.8124944 104.7437751
  63.0327757 137.8435437 106.4958323  63.8520646 138.3379515 106.5193160
  63.3064564 136.9267405 106.4675890  72.7894353 130.2346189  95.8586278
  71.9020208 130.5195839  95.6406473  73.2048342 130.0739952  95.0113555
  76.1408889 130.2592710  99.5740617  76.9169279 130.7489162  99.8465234
  75.4157023 130.6850764 100.0312487  60.7978603 144.8153940 100.9457723
  60.6633071 144.0554341 100.3795721  60.3810666 145.5394840 100.4786512
  71.9337566 139.9990864  89.9534298  72.6373416 140.2040866  90.5691954
  71.2100215 140.5667625  90.2183382  72.7635377 135.7500725  96.0736568
  72.7070578 136.2069276  95.2344201  73.3163719 134.9891409  95.8959411
  76.5740183 131.5390457  96.8986688  76.3177117 131.1387092  97.7294896
  75.9493051 132.2534251  96.7736827  63.9547729 145.7123257 101.1576166
  63.8380113 146.6568690 101.0554856  63.1340175 145.4096819 101.5461965
  73.8424264 140.4373393  92.0032758  74.6769868 140.0054591  91.8210233
  73.6808607 140.2655406  92.9309653  73.4970156 136.9405506  93.3689098
  73.4418960 136.7749777  92.4277542  72.8716211 137.6481539  93.5251287
  58.2862671 132.1773570 107.1950520  58.9321535 131.6672524 107.6837745
  58.0779822 132.9142252 107.7693945  70.8116063 139.2454418 112.6942660
  71.6807223 139.4195070 112.3329295  70.3322815 140.0648835 112.5718390
  66.8066281 126.4413615  92.9474416  66.7944951 127.3855455  93.1042687
  67.6989703 126.2583760  92.6533877  64.9802243 146.3651519 104.3732094
  65.8829490 146.3975129 104.6898589  64.7539613 145.4351970 104.3878430
  66.7355845 145.1182505 101.0342173  65.7851476 145.1184367 100.9206545
  67.0388332 144.3715240 100.5178207  70.6218401 123.0356392  97.2020353
  69.8550797 122.4814878  97.3477035  71.0329106 123.1078260  98.0634504
  62.6260162 129.3241187 111.2925534  63.4891623 128.9677992 111.5028859
  62.0525573 128.9855082 111.9800938  82.4708539 150.9543044 102.0987935
  83.1086949 150.8349791 101.3951275  82.3529382 151.9023888 102.1575887
  79.2798245 150.9070472 102.0349460  78.9416757 150.7911537 101.1469995
  80.1488013 150.5061637 102.0150466  75.1385061 152.7605948  98.0246351
  74.5749926 152.6695885  97.2562638  75.0237456 151.9405853  98.5048843
  79.7618028 152.0605324 107.9935665  79.7506669 151.6658122 107.1216169
  79.9238668 151.3271396 108.5869437  77.4081496 152.2219284 103.5316209
  78.0045068 151.9975306 102.8173172  77.4656468 151.4804029 104.1341657
  76.9806525 149.6758719  91.3666400  77.2332045 149.1540241  90.6049863
  76.0431084 149.5124865  91.4693083  82.0249807 148.6794498  99.1741143
  82.8112897 148.2613921  98.8231560  82.2888512 149.5840590  99.3422791
  82.1959885 154.1167348  93.8729800  81.5605718 154.1901975  94.5850704
  81.8657291 154.7060947  93.1948879  87.4258234 148.6169731 100.0774122
  88.1583406 148.0468948 100.3111951  86.6697590 148.2291331 100.5180627
  76.7002813 151.5786825  93.5690775  76.5839071 150.9031729  94.2371859
  76.8105073 151.0919199  92.7522928  79.0434354 151.0396972  97.2737464
  78.6792561 150.5127593  97.9850385  79.9001470 150.6495441  97.1003949
  84.9483655 142.3291305 104.5368730  84.6166980 143.1986716 104.3129945
  84.3529268 142.0127589 105.2162761  78.6839841 146.0686872  92.2698813
  78.8514244 146.9367108  92.6369284  78.4937010 146.2314154  91.3460102
  74.8927656 150.9817648  99.9701347  73.9678152 150.8493862 100.1779039
  75.1412069 151.7611867 100.4671290  84.8412318 147.0486391 101.6162080
  83.9329195 146.9801800 101.3220841  84.7899914 147.5258336 102.4443906
  78.6629062 148.5244530  93.2545479  78.5428687 148.9701580  94.0930960
  77.9681650 148.8729847  92.6959017  72.2536467 150.6250921 100.8045136
  72.3828848 150.8785400 101.7184548  71.5733918 151.2178629 100.4849791
  78.9153184 148.4676037 109.5596977  78.1386518 149.0269957 109.5499842
  79.5543747 148.9532820 110.0811848  86.7073965 145.2502830 103.3939954
  86.0648345 145.5435363 102.7479749  86.2028893 145.1355750 104.1993151
  84.3614128 148.9966003  94.0825813  85.2731984 149.2293390  93.9073511
  83.8523775 149.5803047  93.5200892  77.1699556 151.2761490 109.1214944
  77.9114241 151.8146534 108.8449768  76.4636542 151.9027779 109.2786496
  82.6454896 153.4190631 107.7187106  83.0538252 152.9773041 106.9741738
  81.9232157 152.8443258 107.9721299  78.9985966 148.3563237 105.0920663
  79.8447161 148.7802651 105.2355312  78.9384604 147.6996862 105.7859226
  82.9683711 153.9791821 101.4739395  82.3392573 154.1437535 100.7715463
  82.5809373 154.3933431 102.2450359  86.8472942 154.9146259  98.8283759
  86.1623981 155.2945160  98.2780792  86.9316792 155.5241586  99.5615706
  82.1485411 146.0167606 106.7501837  81.9046343 146.7709666 106.2136112
  82.4245342 146.3952953 107.5849084  84.1023874 152.5606218 105.4279102
  84.3140769 153.2037978 104.7513483  84.0553622 151.7268535 104.9601032
  81.7050103 145.1724039 102.3315674  80.8434582 145.4705292 102.6232412
  81.7312538 145.3894438 101.3996707  78.5211672 153.7166229  98.7389480
  78.9850018 153.9953932  97.9494102  78.2568471 152.8149674  98.5562571
  77.4580558 149.8389382  95.5479045  78.1604602 150.2910425  96.0152971
  77.1261187 149.1973201  96.1758938  75.9060920 148.4301138 109.9230254
  75.2759581 149.1117419 110.1565651  75.7997008 148.3184220 108.9783393
  71.2005892 148.0972934 100.8496179  70.4104946 148.3530463 100.3736289
  71.6917140 148.9121272 100.9548219  85.2169702 155.4378174 103.6001459
  86.0387146 155.0358361 103.3184141  85.2132105 155.3346408 104.5517575
  73.1520638 148.4617514  97.8079655  72.3551801 148.5736208  98.3263151
  72.9246230 148.8004166  96.9420546  69.4843595 148.3503425 103.2811169
  69.7351634 149.2350435 103.5468745  70.0203144 148.1708026 102.5086261
  93.3075695 151.7816922  99.9486431  92.5539403 151.2124320  99.7930435
  93.4423236 151.7479586 100.8957066  75.1841663 142.7321904 112.2855506
  74.7908608 142.1788103 112.9603150  76.0007803 143.0432483 112.6762023
  78.1009624 144.1479783 109.8775762  78.8419337 144.7486936 109.7980225
  78.3327547 143.4057421 109.3193805  73.2450962 149.3336151 108.1553992
  73.1304477 148.4321408 108.4561091  72.3895479 149.5799847 107.8038808
  82.0466787 140.1760886 104.1540044  81.7031056 141.0662528 104.0779154
  82.4145749 139.9862544 103.2909629  82.0117069 150.1669497  92.6612479
  81.4963693 150.9374102  92.9000866  81.7394378 149.4934633  93.2845540
  79.5964180 145.0119198  97.7197717  78.7405777 144.6226048  97.5403356
  80.0091132 145.0911159  96.8597503  81.1263327 142.5465541 102.1189277
  80.6228123 142.5095676 101.3057082  81.4193934 143.4558284 102.1785934
  77.3706213 142.6304271 101.1255459  78.2359210 142.4347080 100.7661348
  77.4383722 142.4014623 102.0524815  86.9851343 152.9201852  94.5965652
  86.2080786 152.5813011  94.1520814  87.6642824 152.9254475  93.9220617
  81.8003373 148.0396589  94.4872260  81.4953508 148.3542739  95.3382403
  82.7533815 148.1178009  94.5299593  85.2242650 152.3935833 101.2532260
  84.5666325 153.0835095 101.3412389  86.0283050 152.7832265 101.5966247
  74.9768532 144.8606479  98.4971826  75.5512284 144.6381660  97.7645019
  75.5639514 144.9295173  99.2500427  84.0348109 150.7480206  99.3036202
  84.5479991 151.3810198  99.8057912  84.6849333 150.1481401  98.9379562
  75.3038119 146.8910940  92.5167711  74.4675431 147.2285627  92.8376986
  75.1642889 146.7559920  91.5794848  77.2791200 141.7347728  97.2246895
  76.6255612 141.4196745  96.6003510  77.2371674 141.1123468  97.9506718
  78.3902405 152.0167023  89.1400187  77.4829466 151.7856276  89.3391336
  78.8873437 151.2204642  89.3274169  80.5128940 148.2229661 101.5494543
  79.5951501 148.4444608 101.3916231  80.9289084 148.2975972 100.6906250
  81.2963988 149.6221077  96.6797223  82.0435807 150.1342474  96.3704345
  81.5655577 149.3005130  97.5401616  79.5690638 152.1179618  93.6624177
  78.6601857 151.8338651  93.7596647  79.5985722 152.5378696  92.8027484
  83.7442825 146.6578193  98.6616012  83.0065582 146.1455580  98.9926255
  83.9969599 146.2178575  97.8499289  83.8454452 139.4354445  99.2557781
  84.1513329 138.5751809  98.9683697  84.5707057 140.0272066  99.0556775
  70.1378808 149.8385132  97.6439379  69.9403208 149.2454493  96.9190446
  69.5825472 149.5337342  98.3615318  78.1175532 149.7308238  99.7633973
  78.1724142 148.7782075  99.6876449  77.3066734 149.8867678 100.2475271
  79.2666726 153.6588362  91.0012256  78.8286156 152.9424220  90.5417893
  80.0077167 153.8864476  90.4397347  76.0567892 148.3485298  97.5224351
  75.2435757 148.6479469  97.9289544  76.5526886 147.9540987  98.2398834
  81.6542104 148.8127123 106.3539245  82.0091491 149.0398596 107.2133711
  82.3014235 149.1445499 105.7316501  87.3839841 151.9345559  97.0588574
  87.2457739 152.1247155  96.1309764  87.0276059 152.6964941  97.5156625
  75.5481967 145.9203654 103.1385586  76.1881346 145.7792413 102.4408550
  74.7159497 145.6338167 102.7624188  87.4109220 154.0022086 102.0699846
  87.8445727 153.9097375 102.9182900  88.1240801 153.9779586 101.4319862
  72.6325034 149.3649166  95.3280331  71.7022622 149.3033621  95.5450294
  72.7282506 148.8425119  94.5316973  72.5510583 145.8903979  97.9158573
  72.8117400 146.8049312  97.8067734  73.3727755 145.4228421  98.0655186
  74.0235508 147.3041736 105.0857398  74.6958562 147.0959098 104.4370047
  73.1965295 147.1063822 104.6462630  88.2724770 154.0445786 104.6032731
  88.4660660 154.9491597 104.8492006  88.1725388 153.5853205 105.4371316
  79.9261080 143.9303677 107.1023059  79.2788996 144.6293626 107.0087535
  80.6962096 144.3639821 107.4699307  83.3339878 154.1952529 110.1773612
  83.1825385 153.9663081 109.2603696  83.3244558 155.1523130 110.1904957
  80.1025215 151.7684442 105.1619878  81.0317275 151.9195601 104.9888846
  79.6816245 151.8568462 104.3068525  74.4263006 150.5784339 105.8459835
  74.2882804 149.8464578 106.4471374  75.3367929 150.4893239 105.5644023
  83.3877953 152.5172743  90.5944313  82.7707124 151.7919571  90.4977366
  82.9194442 153.2782103  90.2511388  77.0545306 150.2904298 105.3343514
  77.7644925 149.6497490 105.2930133  77.0114615 150.5417193 106.2569695
  75.7674240 147.2769516 107.1539154  75.2311597 146.8260254 107.8060750
  75.1790949 147.4115425 106.4109618  75.1776499 146.7358167  89.7165618
  74.3005966 146.6146968  89.3527864  75.6534252 145.9444246  89.4644506
  85.0449492 155.1911235 106.4864073  84.1576271 154.8537157 106.6090472
  85.6148043 154.4594267 106.7232839  71.5013362 146.4125524 104.2392148
  71.4171550 145.8051193 103.5042558  70.6796068 146.9034542 104.2401645
  81.6737075 144.8979087  99.6062344  82.1705775 144.1449050  99.2863414
  80.9024057 144.9343404  99.0405553  89.5266833 150.6019453 101.2480635
  89.5156709 151.4844168 100.8774568  88.6584212 150.2491004 101.0535172
  82.7566856 153.6550774  97.1800767  81.8223135 153.7752237  97.0105471
  82.9343525 152.7523241  96.9160777  78.2572044 147.0396470  99.3334028
  77.8869832 146.4867511 100.0214934  78.7531137 146.4354604  98.7809028
  86.1439408 149.4968094  97.7150801  86.6099860 150.3296085  97.6411104
  86.5946908 149.0313075  98.4196060  84.2115639 155.8411915  94.7136953
  84.4875483 155.7268510  95.6230827  83.3420137 155.4429400  94.6749126
  84.1156070 141.8648681 101.7541702  83.2019150 142.0952908 101.9223909
  84.5449172 141.9487125 102.6055735  83.8862529 150.0538573 104.2541596
  83.2333979 150.3014480 103.5994049  84.2642909 149.2402711 103.9204074
  79.9350102 150.7958384 110.7407633  79.2590739 150.6952513 111.4110009
  80.7577736 150.6397598 111.2043631  66.2746616 149.6035921 102.0824592
  66.3130715 149.0699511 102.8761710  65.7686908 149.0771126 101.4635569
  73.6537378 144.4500461 105.5787134  73.7178704 145.3115292 105.1664532
  73.5904498 143.8374463 104.8459493  73.1289650 146.5223594 109.2260168
  73.7561689 146.1400671 109.8397693  72.2717569 146.3037796 109.5915861
  69.9055193 148.3300023  95.1578523  70.2008634 147.4210701  95.1045577
  69.0043229 148.3087762  94.8359526  73.4349440 146.4056019 101.1406072
  72.7136026 147.0191987 101.0013545  74.2242696 146.9413784 101.0622718
  76.2375754 143.7410446 107.4146724  76.7610156 143.9872742 108.1773033
  76.0188087 144.5730481 106.9949861  71.6343035 146.0114120  95.2817848
  71.3055741 145.1311499  95.0992954  71.9882405 145.9561789  96.1694238
  74.7484858 146.2987090  95.6493326  75.0880930 146.8273011  94.9271934
  75.1956978 146.6367496  96.4251893  77.4428299 144.6824141 105.0996394
  77.1025119 143.8831954 105.5017074  76.7367305 144.9825852 104.5273227
  78.0944771 141.7673453 103.5523717  78.9170840 141.2933931 103.4302607
  78.3382834 142.5463937 104.0522403  76.7353005 144.7961712  93.8486619
  77.4561368 145.1742965  93.3450336  76.1118309 145.5150589  93.9521597
  80.8784128 145.5006861  94.7844951  81.0947742 146.3831499  94.4833779
  80.3978195 145.1093074  94.0550593  75.6183349 148.4592574 101.3615696
  75.4727930 148.7732877 102.2539977  75.1408553 149.0777474 100.8086594
  77.4779732 145.4495122 101.4096585  77.4641301 144.5536215 101.0728883
  78.1952160 145.4565786 102.0434871  79.3305863 145.8832462 103.4549713
  79.0723641 146.8049533 103.4534043  78.7990903 145.4862897 104.1450177
  76.8816628 144.3309502  96.6784155  77.0032539 143.4026148  96.8775043
  76.5918670 144.3448188  95.7662471  79.7507819 142.0164413  99.8150875
  79.7729515 142.0803746  98.8602855  80.1675878 141.1768921 100.0091381
  90.1291443 151.7519672  97.8530098  90.5722589 151.0026997  97.4549221
  89.2517953 151.7429809  97.4703830  70.8795033 150.1267815 107.1933514
  70.1376769 150.2750450 107.7798144  70.5587778 150.3876080 106.3300263
  87.1618647 155.7549719  94.8624027  87.6869971 156.0936992  94.1373347
  87.0741000 154.8196735  94.6787162  76.3657708 145.8441500 110.8874088
  76.4145863 146.7203622 110.5051858  76.9080222 145.3018893 110.3145731
  86.8512553 156.3882623 110.1675225  86.0608097 156.3706762 109.6279725
  86.6145908 156.9270917 110.9224262  86.9710428 153.2375089 107.4807954
  87.0208433 153.0725097 108.4223476  86.8624352 152.3702348 107.0905834
  84.2614191 149.2206017 108.7967260  85.1624054 149.0812482 108.5051258
  84.3362165 149.3860472 109.7365438  78.5956996 146.5972872 107.6420447
  77.7260306 146.8906438 107.3703035  78.8316476 147.1813317 108.3627710
  88.4728625 155.6572031 107.7249975  88.1813434 156.0202011 108.5613436
  87.8600757 154.9439039 107.5463307  89.6724308 153.2224910 100.2452545
  90.5071199 153.6614715 100.4090106  89.8083436 152.7463564  99.4260791
  86.7215813 150.7804645 106.1930033  87.1969935 150.9732292 105.3848885
  85.7981379 150.8363831 105.9473417  73.6099320 151.9428813  95.7761112
  73.3645362 151.0391143  95.9741322  73.7795235 151.9445963  94.8340590
  81.2996030 142.8152489 105.1585867  81.8177974 143.5513516 104.8332356
  80.9451163 143.1216482 105.9932626  72.8794968 147.6757170  93.2747273
  72.1864213 147.7501525  92.6187309  72.6346720 146.9117514  93.7968790
  81.5508624 139.2352771 100.6786764  81.8310378 138.5675961 101.3047190
  82.3359231 139.4281867 100.1661428  85.4217482 147.6570405 104.4258339
  86.3734905 147.7568503 104.4470563  85.2520933 146.8648674 104.9356423
  83.4431862 144.7425989 104.6117740  82.8481794 145.0231001 103.9164228
  83.1581559 145.2319890 105.3834481  87.9005560 150.8776525 103.5400638
  87.8681880 149.9392526 103.7260322  88.5106184 150.9560562 102.8066463
  79.7388891 149.7472578  89.5827843  80.6847996 149.6178786  89.6516261
  79.3603136 149.0087240  90.0597271  88.0500049 147.6687569 103.5858922
  87.5339097 146.8846025 103.3988851  88.9339997 147.3406285 103.7505441
  85.7110776 141.4128584  99.5454734  85.5135597 141.1043672 100.4298066
  86.3210481 142.1390223  99.6752664  93.7182110 151.9392532 102.6806675
  94.4485499 151.6777820 103.2414379  93.1089056 151.2021254 102.7208743
  91.7997407 150.0800395 103.2781126  91.0730571 149.9456359 102.6697618
  91.3844694 150.3877223 104.0837845  79.6227584 153.7990324 111.0428499
  80.5430593 153.9768923 111.2368546  79.5877167 152.8546370 110.8908199
  77.9231808 147.6722554  89.5182728  77.0163264 147.3755667  89.5945441
  78.2007789 147.3752373  88.6517014  68.8409749 148.9928918  99.9681774
  68.5212533 148.1394226  99.6756148  68.2943177 149.2077496 100.7239741
  79.5393874 142.2159444  95.6726969  78.7294602 141.8706529  96.0482215
  80.2278291 141.9066988  96.2614581  81.4684422 141.2937491  97.2951266
  82.0215461 141.7132944  97.9541289  81.7054509 140.3673239  97.3374222
  77.4917522 147.2824565 113.0754030  77.3914248 148.2318922 113.0066121
  77.2739064 146.9542804 112.2030100  76.6930593 144.5309490  89.6594707
  77.5549757 144.8564388  89.9190524  76.8780937 143.7440986  89.1467773
  84.8463229 143.4038016  96.8029930  84.2661898 144.0622820  96.4207982
  84.5799162 142.5815361  96.3917347  83.2966796 142.8043074  99.0051250
  83.7966574 142.9159608  98.1965569  83.9402404 142.5004127  99.6452059
  77.3548792 150.7121703 111.8919091  76.8715873 151.5122064 112.0982980
  77.4409731 150.7229648 110.9386535  83.6288107 145.5638107  95.8586278
  82.7413962 145.8487757  95.6406473  84.0442096 145.4031870  95.0113555
  86.9802644 145.5884628  99.5740617  87.7563034 146.0781080  99.8465234
  86.2550778 146.0142682 100.0312487  89.4175202 146.3012247 100.6314558
  90.0119693 146.0607983  99.9207866  89.4901786 145.5819377 101.2588094
  83.6029131 151.0792642  96.0736568  83.5464333 151.5361194  95.2344201
  84.1557474 150.3183327  95.8959411  87.4133937 146.8682374  96.8986688
  87.1570871 146.4679010  97.7294896  86.7886805 147.5826168  96.7736827
  91.7246275 149.6078448  99.4057979  91.1645833 149.6771637 100.1789541
  91.1189778 149.4319432  98.6857476  84.6818018 155.7665310  92.0032758
  85.5163622 155.3346509  91.8210233  84.5202361 155.5947324  92.9309653
  84.3363910 152.2697424  93.3689098  84.2812714 152.1041695  92.4277542
  83.7109966 152.9773457  93.5251287  69.1256425 147.5065488 107.1950520
  69.7715289 146.9964442 107.6837745  68.9173577 148.2434170 107.7693945
  77.6460036 141.7705533  92.9474416  77.6338706 142.7147373  93.1042687
  78.5383458 141.5875678  92.6533877  81.4612155 138.3648309  97.2020353
  80.6944551 137.8106796  97.3477035  81.8722860 138.4370178  98.0634504
  73.4653916 144.6533105 111.2925534  74.3285378 144.2969910 111.5028859
  72.8919327 144.3147000 111.9800938  95.7877409 157.6583223 104.5368730
  95.4560734 158.5278634 104.3129945  95.1923023 157.3419507 105.2162761
  92.8860541 155.5052804 104.1540044  92.5424811 156.3954446 104.0779154
  93.2539504 155.3154461 103.2909629  91.9657082 157.8757459 102.1189277
  91.4621877 157.8387594 101.3057082  92.2587688 158.7850202 102.1785934
  88.1184954 157.0639646  97.2246895  87.4649367 156.7488663  96.6003510
  88.0765428 156.4415386  97.9506718  94.6848207 154.7646363  99.2557781
  94.9907084 153.9043726  98.9683697  95.4100812 155.3563983  99.0556775
  94.9549825 157.1940598 101.7541702  94.0412905 157.4244825 101.9223909
  95.3842926 157.2779043 102.6055735  88.9338525 157.0965371 103.5523717
  89.7564594 156.6225849 103.4302607  89.1776589 157.8755855 104.0522403
  90.5901573 157.3456330  99.8150875  90.6123270 157.4095663  98.8602855
  91.0069632 156.5060839 100.0091381  92.1389784 158.1444407 105.1585867
  92.6571728 158.8805434 104.8332356  91.7844917 158.4508400 105.9932626
  92.3902379 154.5644689 100.6786764  92.6704132 153.8967878 101.3047190
  93.1752986 154.7573785 100.1661428  96.5504530 156.7420502  99.5454734
  96.3529351 156.4335590 100.4298066  97.1604236 157.4682141  99.6752664
  90.3787628 157.5451362  95.6726969  89.5688357 157.1998447  96.0482215
  91.0672045 157.2358906  96.2614581  92.3078177 156.6229409  97.2951266
  92.8609215 157.0424862  97.9541289  92.5448263 155.6965157  97.3374222
  95.6856984 158.7329934  96.8029930  95.1055653 159.3914738  96.4207982
  95.4192917 157.9107278  96.3917347  94.1360550 158.1334992  99.0051250
  94.6360329 158.2451526  98.1965569  94.7796158 157.8296044  99.6452059
  92.3005910 153.6940227  97.2020353  91.5338306 153.1398714  97.3477035
  92.7116615 153.7662096  98.0634504   6.5952259  20.6561743  88.8233242
   7.2330669  20.5368490  88.1196582   6.4773102  21.6042587  88.8821194
   3.4041965  20.6089171  88.7594766   3.0660476  20.4930236  87.8715301
   4.2731733  20.2080336  88.7395772   3.8861748  21.7624023  94.7180972
   3.8750389  21.3676821  93.8461476   4.0482387  21.0290095  95.3114743
   4.8428339  26.1295615  80.0606122   4.1916319  26.7149695  79.6740136
   5.6372702  26.6601810  80.1201160   6.1493527  18.3813197  85.8986450
   6.9356616  17.9632620  85.5476867   6.4132231  19.2859289  86.0668098
   6.3203605  23.8186047  80.5975106   5.6849438  23.8920673  81.3096011
   5.9901011  24.4079646  79.9194186  11.5501954  18.3188430  86.8019428
  12.2827126  17.7487647  87.0357258  10.7941310  17.9310030  87.2425934
   5.5658894  24.2322550  90.6609950   5.2659617  25.1347589  90.5525757
   5.2209954  23.9654733  91.5131102   8.4857848  18.6984702  80.8071120
   9.3975704  18.9312088  80.6318818   7.9767495  19.2821746  80.2446199
   6.7698616  23.1209329  94.4432413   7.1781972  22.6791740  93.6987045
   6.0475877  22.5461957  94.6966605   7.0927430  23.6810520  88.1984701
   6.4636293  23.8456234  87.4960769   6.7053092  24.0952130  88.9695666
  10.9716662  24.6164958  85.5529065  10.2867700  24.9963859  85.0026099
  11.0560512  25.2260285  86.2861013   8.2267594  22.2624917  92.1524409
   8.4384489  22.9056677  91.4758790   8.1797342  21.4287234  91.6846339
   2.6455392  23.4184928  85.4634787   3.1093738  23.6972631  84.6739409
   2.3812190  22.5168373  85.2807877   9.3413422  25.1396872  90.3246766
  10.1630866  24.7377060  90.0429448   9.3375825  25.0365107  91.2762882
   3.1070025  24.6880916  92.4807477   3.1714458  25.1501323  93.3165648
   2.3980949  24.0578281  92.6089786  17.4319415  21.4835621  86.6731738
  16.6783123  20.9143019  86.5175742  17.5666956  21.4498285  87.6202372
   2.8218043  26.3549023  82.3486457   2.6863718  27.2000559  82.7771305
   3.3627855  26.5568301  81.5852391   4.4486519  26.9772590  96.4786799
   4.0050373  26.1908968  96.1607704   5.1103733  27.1651740  95.8130690
   6.5467757  27.2575390  94.5068200   6.5286233  28.0784271  94.0148469
   7.4687677  27.1329465  94.7318341   3.0040812  24.7719519  95.3491709
   3.5369148  24.0107807  95.1191017   2.4754893  24.4793171  96.0915863
   6.1360789  19.8688196  79.3857786   5.6207413  20.6392801  79.6246173
   5.8638098  19.1953332  80.0090847  11.1095063  22.6220551  81.3210959
  10.3324506  22.2831710  80.8766121  11.7886544  22.6273174  80.6465924
   4.3693524  23.9005512  82.8610521   3.8414886  23.1658271  82.5483758
   3.8681027  24.6780188  82.6150489   9.3486370  22.0954532  87.9777567
   8.6910045  22.7853793  88.0657696  10.1526769  22.4850964  88.3211553
   8.1591829  20.4498905  86.0281509   8.6723711  21.0828897  86.5303218
   8.8093053  19.8500100  85.6624869   2.5146124  21.7185722  75.8645494
   1.6073186  21.4874975  76.0636643   3.0117156  20.9223341  76.0519475
   5.4214203  30.4283229  78.7842180   4.7475902  30.7314926  79.3927138
   5.8080025  31.2312309  78.4347637   5.4207708  19.3239776  83.4042530
   6.1679527  19.8361173  83.0949652   5.6899297  19.0023829  84.2646923
   3.6934358  21.8198317  80.3869484   2.7845577  21.5357350  80.4841954
   3.7229442  22.2397395  79.5272791   8.9253625  25.4304906  84.1560651
   8.4715952  24.5895816  84.2125842   8.2947592  26.0666305  84.4935432
   7.3686564  27.2681403  85.0910470   7.6609539  27.8286460  84.3722835
   7.8785185  27.5609964  85.8463629   3.3910446  23.3607060  77.7257562
   2.9529876  22.6442919  77.2663200   4.1320886  23.5883175  77.1642654
   2.3320190  28.0461754  86.1803923   2.2896368  28.2722600  85.2512455
   3.2482889  27.8125129  86.3289724   5.7785823  18.5145822  93.0784552
   6.1335211  18.7417295  93.9379018   6.4257955  18.8464198  92.4561807
  11.5083560  21.6364257  83.7833881  11.3701459  21.8265853  82.8555070
  11.1519779  22.3983640  84.2401932  11.5352940  23.7040784  88.7945152
  11.9689447  23.6116074  89.6428206  12.2484521  23.6798285  88.1565168
   5.2680835  27.3042879  90.3278253   5.3217857  27.8733815  91.0955969
   4.3995616  27.4744764  89.9632290  12.3968490  23.7464485  91.3278038
  12.5904380  24.6510296  91.5737313  12.2969108  23.2871904  92.1616623
   7.4583598  23.8971228  96.9018918   7.3069105  23.6681780  95.9849002
   7.4488278  24.8541829  96.9150263   4.2268935  21.4703141  91.8865185
   5.1560995  21.6214300  91.7134152   3.8059965  21.5587161  91.0313831
   3.0257266  25.4953805  89.6563723   2.8868352  25.1272589  90.5289661
   2.2371863  26.0101444  89.4847680   3.6205418  30.5962901  80.9989259
   3.7957174  30.1250945  81.8134882   2.9338206  31.2228668  81.2270520
   4.5762482  24.8735408  87.0452560   4.2412314  24.8336178  87.9410210
   4.0766427  24.2080124  86.5722971   7.5121673  22.2191442  77.3189620
   6.8950844  21.4938270  77.2222673   7.0438162  22.9800802  76.9756694
   9.1675805  26.9290350  94.9795400   9.1088351  26.2449570  94.3125983
   9.5695323  27.6709340  94.5276026   9.1693212  24.8929934  93.2109380
   8.2819991  24.5555856  93.3335779   9.7391763  24.1612966  93.4478145
   2.6994366  29.5531387  90.1770623   2.6264537  30.3586358  90.6889928
   2.2571759  29.7523352  89.3518645   2.4884145  28.7903157  83.6873445
   1.7051667  29.3324837  83.7811669   3.1876890  29.3077136  84.0867686
  13.6510553  20.3038152  87.9725942  13.6400429  21.1862867  87.6019875
  12.7827932  19.9509702  87.7780479   5.1593049  29.4518221  92.3328782
   5.8721021  30.0865685  92.2604683   4.6683078  29.5482087  91.5168784
   6.8810576  23.3569473  83.9046074   5.9466855  23.4770936  83.7350778
   7.0587244  22.4541940  83.6406083  10.2683127  19.1986793  84.4396108
  10.7343580  20.0314784  84.3656410  10.7190628  18.7331774  85.1441366
   8.3359358  25.5430614  81.4382260   8.6119202  25.4287209  82.3476134
   7.4663857  25.1448099  81.3994433   8.0106249  19.7557272  90.9786903
   7.3577699  20.0033179  90.3239356   8.3886628  18.9421410  90.6449380
   4.9713422  29.7916965  85.0815073   5.1535817  28.9738621  85.5442826
   5.7946408  30.0084657  84.6439963   5.3055588  28.7185150  82.3430122
   5.8343354  28.2077604  81.7300284   5.5683808  28.4027680  83.2075655
   4.0593822  20.4977083  97.4652940   3.3834459  20.3971212  98.1355315
   4.8821455  20.3416296  97.9288937   2.8016604  31.8044010  91.7010556
   3.3534913  31.9675632  92.4659641   3.1422798  32.3948448  91.0290581
   7.6527479  26.6305268  97.5559211   8.1967383  27.2435226  97.0614165
   7.0714324  27.1884846  98.0726224   5.9384992  29.7525986  88.6874238
   5.8136131  28.9515725  88.1785184   6.5964083  30.2472179  88.1988208
   8.0019900  27.5535006  90.3153788   7.0550236  27.4340357  90.2432115
   8.3502673  26.6657504  90.3980050   5.0066333  27.3487722  86.5158141
   4.8591296  26.4204429  86.6965711   5.8319827  27.3707813  86.0315216
   8.6100455  28.1716281  87.6023013   9.5347003  27.9659142  87.4647464
   8.4415759  27.9232682  88.5112355   8.3995772  28.6901948  82.9585105
   8.5732649  28.1248371  82.2058957   8.8924663  29.4902843  82.7764595
  14.2535163  21.4538371  84.5775405  14.6966309  20.7045696  84.1794528
  13.3761673  21.4448507  84.1949137   9.3870944  28.0068713  80.0582003
  10.0821849  28.6275405  80.2769318   9.7294094  27.1564064  80.3334381
  11.2862367  25.4568418  81.5869334  11.8113691  25.7955691  80.8618654
  11.1984720  24.5215433  81.4032468   2.9482416  29.3702492  93.7159210
   3.2569542  29.1251638  94.5881910   3.7457898  29.5749130  93.2278081
   2.9703028  31.5240401  85.9464587   2.5308018  31.0316780  86.6397444
   3.7211145  30.9813369  85.7056662  10.9756273  26.0901322  96.8920532
  10.1851817  26.0725461  96.3525031  10.7389628  26.6289615  97.6469568
  11.0954148  22.9393788  94.2053260  11.1452153  22.7743795  95.1468783
  10.9868072  22.0721047  93.8151141   8.3857911  18.9224716  95.5212567
   9.2867773  18.7831181  95.2296565   8.4605885  19.0879171  96.4610744
  12.5972345  25.3590730  94.4495282  12.3057153  25.7220710  95.2858743
  11.9844476  24.6457738  94.2708614  13.7968027  22.9243609  86.9697852
  14.6314919  23.3633413  87.1335412  13.9327156  22.4482263  86.1506098
  10.8459533  20.4823344  92.9175340  11.3213655  20.6750991  92.1094191
   9.9225099  20.5382530  92.6718724   3.4785812  28.1130464  78.9657097
   2.9059780  28.7320651  78.5127569   4.0518606  28.6629826  79.4997019
   9.5461202  17.3589104  91.1503645  10.4978625  17.4587202  91.1715870
   9.3764653  16.5667373  91.6601730   6.6983072  28.3967614  80.0965679
   7.6313745  28.3313176  80.2998554   6.6106285  29.2323881  79.6380212
   9.3271089  27.7133485  77.0569627   9.2484720  27.3793348  77.9505384
  10.1480756  28.2055253  77.0561099  12.0249280  20.5795224  90.2645945
  11.9925600  19.6411225  90.4505629  12.6349904  20.6579261  89.5311770
  12.1743769  17.3706267  90.3104228  11.6582817  16.5864724  90.1234157
  13.0583717  17.0424984  90.4750748  17.8425830  21.6411231  89.4051982
  18.5729218  21.3796519  89.9659685  17.2332775  20.9039953  89.4454050
  15.9241127  19.7819093  90.0026433  15.1974291  19.6475058  89.3942925
  15.5088414  20.0895922  90.8083151   3.7471303  23.5009023  97.7673806
   4.6674313  23.6787622  97.9613853   3.7120887  22.5565068  97.6153505
  11.1046363  15.2903326  86.2985924  11.8806753  15.7799779  86.5710541
  10.3794498  15.7161381  86.7557794  13.5418922  16.0030946  87.3559865
  14.1363413  15.7626682  86.6453173  13.6145506  15.2838076  87.9833401
   6.8975041  25.0301480  76.6779605   7.6010891  25.2351483  77.2937260
   6.1737689  25.5978242  76.9428688   7.7272851  20.7811341  82.7981875
   7.6708052  21.2379893  81.9589507   8.2801193  20.0202026  82.6204718
  11.5377657  16.5701073  83.6231994  11.2814591  16.1697709  84.4540202
  10.9130525  17.2844867  83.4982134  15.8489995  19.3097146  86.1303286
  15.2889553  19.3790336  86.9034848  15.2433498  19.1338131  85.4102782
   8.8061738  25.4684009  78.7278065   9.6407342  25.0365208  78.5455540
   8.6446081  25.2966023  79.6554959   8.4607630  21.9716123  80.0934404
   8.4056434  21.8060394  79.1522848   7.8353686  22.6792155  80.2496594
   5.7753537  24.2765034  99.4187967   6.6444697  24.4505687  99.0574602
   5.2960289  25.0959451  99.2963696   1.6993320  30.1493122  87.7587479
   0.7488951  30.1494984  87.6451852   2.0025806  29.4025857  87.2423514
  17.4346013  35.9853660  88.8233242  18.0724423  35.8660408  88.1196582
  17.3166856  36.9334504  88.8821194  14.2435719  35.9381088  88.7594766
  13.9054231  35.8222153  87.8715301  15.1125488  35.5372254  88.7395772
  10.1022535  37.7916565  84.7491657   9.5387400  37.7006502  83.9807945
   9.9874930  36.9716469  85.2294150  14.7255502  37.0915940  94.7180972
  14.7144143  36.6968738  93.8461476  14.8876142  36.3582013  95.3114743
   7.6486967  39.2867756  87.5875878   8.4408259  38.9458581  87.1722177
   7.8883617  39.3962732  88.5078031  15.6822094  41.4587533  80.0606122
  15.0310074  42.0441613  79.6740136  16.4766457  41.9893728  80.1201160
   9.6077721  38.5476670  80.4593257  10.3808597  38.0005657  80.3206132
   9.9603120  39.4120919  80.6707718  11.4462764  39.8753052  93.6660156
  11.1552630  40.7798683  93.5506822  12.0819748  39.9169580  94.3804225
  12.3718970  37.2529901  90.2561515  12.9682543  37.0285923  89.5418478
  12.4293942  36.5114646  90.8586963  11.9443999  34.7069336  78.0911706
  12.1969520  34.1850857  77.3295169  11.0068558  34.5435481  78.1938390
  16.9887282  33.7105114  85.8986450  17.7750371  33.2924537  85.5476867
  17.2525986  34.6151206  86.0668098  17.1597359  39.1477965  80.5975106
  16.5243192  39.2212591  81.3096011  16.8294765  39.7371563  79.9194186
  22.3895709  33.6480347  86.8019428  23.1220881  33.0779564  87.0357258
  21.6335064  33.2601948  87.2425934  11.6640288  36.6097442  80.2936081
  11.5476546  35.9342345  80.9617166  11.7742547  36.1229816  79.4768234
  14.0071829  36.0707589  83.9982771  13.6430036  35.5438210  84.7095692
  14.8638944  35.6806058  83.8249256  19.9121129  27.3601922  91.2614037
  19.5804454  28.2297333  91.0375252  19.3166743  27.0438206  91.9408067
  13.6477315  31.0997489  78.9944119  13.8151718  31.9677725  79.3614590
  13.4574485  31.2624770  78.0705408  16.4052649  39.5614468  90.6609950
  16.1053372  40.4639506  90.5525757  16.0603708  39.2946651  91.5131102
   9.8565130  36.0128264  86.6946654   8.9315627  35.8804478  86.9024346
  10.1049543  36.7922484  87.1916596  19.8049792  32.0797008  88.3407387
  18.8966670  32.0112416  88.0466148  19.7537388  32.5568953  89.1689212
  13.6266536  33.5555146  79.9790786  13.5066162  34.0012197  80.8176266
  12.9319125  33.9040464  79.4204324   7.2173941  35.6561538  87.5290443
   7.3466322  35.9096017  88.4429855   6.5371393  36.2489246  87.2095098
  11.3873428  46.3258788  83.6280917  11.3097458  47.2766613  83.7069398
  10.7835072  45.9804660  84.2855844  13.8790658  33.4986653  96.2842284
  13.1023992  34.0580573  96.2745149  14.5181221  33.9843436  96.8057154
  21.6711439  30.2813446  90.1185261  21.0285819  30.5745979  89.4725055
  21.1666367  30.1666366  90.9238457  19.3251603  34.0276619  80.8071120
  20.2369459  34.2604006  80.6318818  18.8161250  34.6113664  80.2446199
  12.1337031  36.3072107  95.8460251  12.8751715  36.8457151  95.5695075
  11.4274016  36.9338395  96.0031803  17.6092370  38.4501247  94.4432413
  18.0175726  38.0083658  93.6987045  16.8869632  37.8753875  94.6966605
  13.9623440  33.3873854  91.8165970  14.8084635  33.8113267  91.9600619
  13.9022078  32.7307478  92.5104533  17.9321185  39.0102438  88.1984701
  17.3030047  39.1748152  87.4960769  17.5446847  39.4244047  88.9695666
  21.8110417  39.9456876  85.5529065  21.1261455  40.3255777  85.0026099
  21.8954266  40.5552202  86.2861013  17.1122886  31.0478222  93.4747143
  16.8683817  31.8020283  92.9381419  17.3882816  31.4263570  94.3094390
  19.0661348  37.5916835  92.1524409  19.2778244  38.2348595  91.4758790
  19.0191097  36.7579151  91.6846339  16.6687577  30.2034655  89.0560981
  15.8072056  30.5015909  89.3477718  16.6950012  30.4205054  88.1242014
  13.4849147  38.7476846  85.4634787  13.9487492  39.0264549  84.6739409
  13.2205945  37.8460290  85.2807877  10.3773228  38.2948327  88.4014550
  10.9474585  38.7235596  87.7632034  10.9681340  38.0130912  89.0998735
  12.4218033  34.8699998  82.2724352  13.1242076  35.3221042  82.7398278
  12.0898661  34.2283817  82.9004245  10.8698394  33.4611755  96.6475561
  10.2397055  34.1428036  96.8810958  10.7634482  33.3494836  95.7028699
   6.1643367  33.1283551  87.5741485   5.3742421  33.3841079  87.0981596
   6.6554614  33.9431889  87.6793526  20.1807176  40.4688790  90.3246766
  21.0024620  40.0668977  90.0429448  20.1769579  40.3657024  91.2762882
   8.1158112  33.4928130  84.5324962   7.3189275  33.6046824  85.0508458
   7.8883704  33.8314782  83.6665853  13.9463780  40.0172833  92.4807477
  14.0108212  40.4793241  93.3165648  13.2374704  39.3870198  92.6089786
   4.4481070  33.3814041  90.0056476   4.6989108  34.2661051  90.2714052
   4.9840618  33.2018643  89.2331568  28.2713169  36.8127539  86.6731738
  27.5176878  36.2434937  86.5175742  28.4060711  36.7790203  87.6202372
  13.6611797  41.6840941  82.3486457  13.5257472  42.5292477  82.7771305
  14.2021610  41.8860218  81.5852391  10.1479137  27.7632521  99.0100812
   9.7546083  27.2098719  99.6848456  10.9645277  28.0743099  99.4007330
   7.1141195  39.2016379  82.9214382   7.6265715  39.9959629  83.0719947
   7.7663908  38.5042669  82.8547983   8.9236079  42.3182135  85.0037135
   9.1002708  43.2400100  84.8158119   9.7192913  42.0040554  85.4331515
  13.0647098  29.1790400  96.6021069  13.8056811  29.7797553  96.5225531
  13.2965021  28.4368038  96.0439111   8.2088436  34.3646767  94.8799298
   8.0941951  33.4632024  95.1806397   7.3532954  34.6110464  94.5284115
  15.2880274  42.3064507  96.4786799  14.8444128  41.5200886  96.1607704
  15.9497487  42.4943658  95.8130690  10.0467395  43.8360309  91.0047478
  10.5974820  43.7077372  90.2324471   9.2078871  44.1355198  90.6542370
  17.3861512  42.5867307  94.5068200  17.3679987  43.4076188  94.0148469
  18.3081432  42.4621382  94.7318341  13.8434566  40.1011437  95.3491709
  14.3762903  39.3399725  95.1191017  13.3148647  39.8085089  96.0915863
  17.0104261  25.2071503  90.8785350  16.6668530  26.0973144  90.8024461
  17.3783224  25.0173160  90.0154935   5.0790112  37.5305033  83.6973953
   5.9165334  37.9402042  83.4807660   5.2568379  36.5904475  83.6674146
  16.9754544  35.1980114  79.3857786  16.4601167  35.9684718  79.6246173
  16.7031852  34.5245250  80.0090847  14.5601655  30.0429815  84.4443024
  13.7043251  29.6536665  84.2648663  14.9728606  30.1221775  83.5842809
  16.0900801  27.5776158  88.8434584  15.5865597  27.5406293  88.0302389
  16.3831408  28.4868901  88.9031240  12.3343687  27.6614888  87.8500765
  13.1996684  27.4657696  87.4906655  12.4021196  27.4325239  88.7770122
  21.9488818  37.9512468  81.3210959  21.1718261  37.6123628  80.8766121
  22.6280299  37.9565092  80.6465924  16.7640847  33.0707206  81.2117567
  16.4590982  33.3853355  82.0627710  17.7171289  33.1488626  81.2544900
  15.2087279  39.2297429  82.8610521  14.6808640  38.4950189  82.5483758
  14.7074781  40.0072106  82.6150489  20.1880125  37.4246450  87.9777567
  19.5303799  38.1145711  88.0657696  20.9920524  37.8142882  88.3211553
   9.9406006  29.8917096  85.2217132  10.5149758  29.6692277  84.4890325
  10.5276989  29.9605790  85.9745733  18.9985584  35.7790822  86.0281509
  19.5117465  36.4120814  86.5303218  19.6486807  35.1792018  85.6624869
  10.2675593  31.9221557  79.2413017   9.4312906  32.2596243  79.5622292
  10.1280363  31.7870536  78.3040154  12.2428674  26.7658344  83.9492202
  11.5893086  26.4507362  83.3248816  12.2009148  26.1434085  84.6752025
  13.3539879  37.0477640  75.8645494  12.4466941  36.8166893  76.0636643
  13.8510911  36.2515259  76.0519475  16.2607958  45.7575147  78.7842180
  15.5869657  46.0606843  79.3927138  16.6473780  46.5604227  78.4347637
  15.4766414  33.2540278  88.2739849  14.5588976  33.4755225  88.1161537
  15.8926558  33.3286588  87.4151557  16.2601462  34.6531694  83.4042530
  17.0073281  35.1653091  83.0949652  16.5293052  34.3315746  84.2646923
  14.5328112  37.1490234  80.3869484  13.6239332  36.8649267  80.4841954
  14.5623196  37.5689313  79.5272791  19.7647380  40.7596824  84.1560651
  19.3109707  39.9187734  84.2125842  19.1341346  41.3958222  84.4935432
  18.7080299  31.6888810  85.3861319  17.9703056  31.1766196  85.7171561
  18.9607073  31.2489192  84.5744596  18.2080319  42.5973321  85.0910470
  18.5003293  43.1578378  84.3722835  18.7178940  42.8901882  85.8463629
  18.8091927  24.4665062  85.9803088  19.1150803  23.6062425  85.6929003
  19.5344531  25.0582682  85.7802082   5.1016283  34.8695748  84.3684686
   4.9040683  34.2765109  83.6435753   4.5462947  34.5647959  85.0860625
  13.0813006  34.7618855  86.4879279  13.1361616  33.8092691  86.4121756
  12.2704208  34.9178294  86.9720578  14.2304200  38.6898978  77.7257562
  13.7923630  37.9734837  77.2663200  14.9714641  38.9175093  77.1642654
  11.0205366  33.3795915  84.2469658  10.2073232  33.6790085  84.6534850
  11.5164360  32.9851603  84.9644140  13.1713944  43.3753672  86.1803923
  13.1290123  43.6014518  85.2512455  14.0876643  43.1417046  86.3289724
  16.6179578  33.8437739  93.0784552  16.9728966  34.0709212  93.9379018
  17.2651709  34.1756116  92.4561807  22.3477315  36.9656175  83.7833881
  22.2095213  37.1557771  82.8555070  21.9913534  37.7275558  84.2401932
  10.5119441  30.9514270  89.8630893  11.1518820  30.8103029  89.1653856
   9.6796972  30.6648784  89.4869495  22.3746695  39.0332702  88.7945152
  22.8083201  38.9407991  89.6428206  23.0878275  39.0090203  88.1565168
  11.2879745  40.2516701  85.9765885  12.0820343  39.7567021  85.7748460
  10.5771437  39.7234564  85.6133591  16.1074589  42.6334796  90.3278253
  16.1611612  43.2025733  91.0955969  15.2389371  42.8036681  89.9632290
   7.5962508  34.3959782  82.0525638   6.6660097  34.3344238  82.2695600
   7.6919980  33.8735735  81.2562279   7.5148057  30.9214595  84.6403880
   7.7754875  31.8359928  84.5313040   8.3365230  30.4539038  84.7900493
   8.9872983  32.3352352  91.8102704   9.6596036  32.1269715  91.1615353
   8.1602769  32.1374438  91.3707937  23.2362244  39.0756403  91.3278038
  23.4298134  39.9802213  91.5737313  23.1362862  38.6163822  92.1616623
  14.8898555  28.9614293  93.8268365  14.2426470  29.6604243  93.7332842
  15.6599570  29.3950437  94.1944613  18.2977353  39.2263145  96.9018918
  18.1462859  38.9973697  95.9849002  18.2882032  40.1833747  96.9150263
  15.0662689  36.7995058  91.8865185  15.9954749  36.9506218  91.7134152
  14.6453719  36.8879079  91.0313831  13.8651021  40.8245723  89.6563723
  13.7262107  40.4564507  90.5289661  13.0765617  41.3393362  89.4847680
  14.4599173  45.9254819  80.9989259  14.6350929  45.4542862  81.8134882
  13.7731961  46.5520585  81.2270520  15.4156236  40.2027325  87.0452560
  15.0806069  40.1628095  87.9410210  14.9160182  39.5372041  86.5722971
   9.3900480  35.6094955  92.5705141   9.2520278  34.8775194  93.1716681
  10.3005404  35.5203855  92.2889329  18.3515428  37.5483360  77.3189620
  17.7344598  36.8230188  77.2222673  17.8831916  38.3092720  76.9756694
  12.0182781  35.3214915  92.0588821  12.7282399  34.6808107  92.0175440
  11.9752089  35.5727810  92.9815002  20.0069559  42.2582268  94.9795400
  19.9482106  41.5741488  94.3125983  20.4089078  43.0001258  94.5276026
  10.7311715  32.3080133  93.8784461  10.1949072  31.8570871  94.5306057
  10.1428423  32.4426041  93.1354925   9.0260258  49.0744182  87.7729119
   9.2656856  49.7062706  88.4508138   8.1829455  48.7232222  88.0594478
  10.1413974  31.7668784  76.4410924   9.2643440  31.6457585  76.0773171
  10.6171727  30.9754862  76.1889813  20.0086967  40.2221852  93.2109380
  19.1213745  39.8847774  93.3335779  20.5785518  39.4904883  93.4478145
   1.6616114  36.5545944  86.5352431   2.3487154  36.2407674  85.9473447
   1.5064242  37.4587308  86.2619683   6.4650836  31.4436140  90.9637455
   6.3809025  30.8361810  90.2287865   5.6433542  31.9345159  90.9646951
  13.5388120  44.8823304  90.1770623  13.4658292  45.6878276  90.6889928
  13.0965513  45.0815270  89.3518645  13.3277900  44.1195074  83.6873445
  12.5445422  44.6616755  83.7811669  14.0270645  44.6369054  84.0867686
  16.6374550  29.9289704  86.3307650  17.1343249  29.1759666  86.0108720
  15.8661531  29.9654020  85.7650859  24.4904307  35.6330069  87.9725942
  24.4794183  36.5154785  87.6019875  23.6221687  35.2801620  87.7780479
  15.9986804  44.7810138  92.3328782  16.7114776  45.4157603  92.2604683
  15.5076832  44.8774004  91.5168784  17.7204330  38.6861391  83.9046074
  16.7860609  38.8062853  83.7350778  17.8980999  37.7833858  83.6406083
  13.2209519  32.0707087  86.0579335  12.8507306  31.5178127  86.7460240
  13.7168611  31.4665220  85.5054335  21.1076882  34.5278710  84.4396108
  21.5737334  35.3606702  84.3656410  21.5584382  34.0623692  85.1441366
  11.0498717  42.5304582  93.1534353  11.7508177  43.1641065  93.3063747
  10.5793832  42.8719313  92.3929992  19.1753113  40.8722532  81.4382260
  19.4512957  40.7579126  82.3476134  18.3057612  40.4740016  81.3994433
  19.0793545  26.8959297  88.4787009  18.1656624  27.1263524  88.6469216
  19.5086646  26.9797741  89.3301041  18.8500003  35.0849189  90.9786903
  18.1971453  35.3325097  90.3239356  19.2280383  34.2713327  90.6449380
  15.8107177  45.1208882  85.0815073  15.9929571  44.3030538  85.5442826
  16.6340163  45.3376575  84.6439963  16.1449342  44.0477068  82.3430122
  16.6737109  43.5369522  81.7300284  16.4077562  43.7319598  83.2075655
  14.8987576  35.8269000  97.4652940  14.2228213  35.7263130  98.1355315
  15.7215210  35.6708214  97.9288937   6.6466435  42.0640937  90.0865455
   7.2319872  41.3184625  90.2193360   6.4491274  42.3744894  90.9702119
   9.5005090  45.0992184  85.1027898   8.8315466  45.5838312  84.6191938
   9.3617960  45.3461405  86.0171276   1.2384090  34.6346537  88.8069899
   1.2768189  34.1010128  89.6007017   0.7324383  34.1081743  88.1880876
  13.6410359  47.1335928  91.7010556  14.1928667  47.2967549  92.4659641
  13.9816552  47.7240366  91.0290581   8.6174852  29.4811078  92.3032441
   8.6816179  30.3425908  91.8909839   8.5541972  28.8685079  91.5704799
   8.0927125  31.5534210  95.9505475   8.7199164  31.1711287  96.5642999
   7.2355044  31.3348412  96.3161168  18.4921233  41.9597185  97.5559211
  19.0361137  42.5727144  97.0614165  17.9108078  42.5176764  98.0726224
   4.8692667  33.3610639  81.8823830   5.1646109  32.4521318  81.8290884
   3.9680703  33.3398379  81.5604832  16.7778746  45.0817903  88.6874238
  16.6529886  44.2807643  88.1785184  17.4357837  45.5764097  88.1988208
   8.3986914  31.4366636  87.8651379   7.6773500  32.0502604  87.7258852
   9.1880170  31.9724401  87.7868024  18.8413655  42.8826923  90.3153788
  17.8943990  42.7632275  90.2432115  19.1896428  41.9949421  90.3980050
  11.2013228  28.7721062  94.1392030  11.7247630  29.0183359  94.9018340
  10.9825561  29.6041097  93.7195168   6.5980509  31.0424737  82.0063155
   6.2693215  30.1622116  81.8238261   6.9519880  30.9872406  82.8939544
  15.8460088  42.6779640  86.5158141  15.6985050  41.7496347  86.6965711
  16.6713581  42.6999730  86.0315216   9.7122332  31.3297707  82.3738633
  10.0518405  31.8583628  81.6517241  10.1594453  31.6678113  83.1497199
  19.4494210  43.5008198  87.6023013  20.3740757  43.2951060  87.4647464
  19.2809513  43.2524599  88.5112355  12.4065773  29.7134757  91.8241701
  12.0662593  28.9142570  92.2262381  11.7004779  30.0136468  91.2518534
  13.0582245  26.7984070  90.2769024  13.8808314  26.3244548  90.1547914
  13.3020308  27.5774554  90.7767710  11.6990479  29.8272328  80.5731925
  12.4198842  30.2053581  80.0695642  11.0755783  30.5461205  80.6766903
  15.8421602  30.5317477  81.5090258  16.0585217  31.4142115  81.2079086
  15.3615669  30.1403691  80.7795900  10.5820824  33.4903190  88.0861002
  10.4365404  33.8043494  88.9785284  10.1046027  34.1088091  87.5331901
  12.4417207  30.4805738  88.1341892  12.4278775  29.5846832  87.7974190
  13.1589635  30.4876402  88.7680178  14.2943337  30.9143079  90.1795019
  14.0361115  31.8360149  90.1779350  13.7628378  30.5173513  90.8695484
  19.2389526  44.0193866  82.9585105  19.4126404  43.4540288  82.2058957
  19.7318417  44.8194761  82.7764595   5.0566486  36.0308535  91.0248664
   4.5119954  36.8068343  91.1568938   5.9345836  36.3779339  90.8667785
  11.8454102  29.3620119  83.4029462  11.9670014  28.4336765  83.6020350
  11.5556145  29.3758805  82.4907778  14.7145293  27.0475029  86.5396182
  14.7366990  27.1114362  85.5848162  15.1313352  26.2079538  86.7336688
  25.0928917  36.7830289  84.5775405  25.5360063  36.0337614  84.1794528
  24.2155427  36.7740425  84.1949137  20.2264698  43.3360630  80.0582003
  20.9215603  43.9567323  80.2769318  20.5687849  42.4855981  80.3334381
   5.8432508  35.1578431  93.9178820   5.1014244  35.3061066  94.5043451
   5.5225252  35.4186697  93.0545570  22.1256122  40.7860336  81.5869334
  22.6507446  41.1247608  80.8618654  22.0378474  39.8507351  81.4032468
  13.7876170  44.6994409  93.7159210  14.0963297  44.4543556  94.5881910
  14.5851652  44.9041048  93.2278081  13.8096782  46.8532319  85.9464587
  13.3701773  46.3608698  86.6397444  14.5604899  46.3105287  85.7056662
   6.2889121  43.0443860  85.9489215   7.1147141  42.7447632  85.5687859
   5.9383173  42.2751482  86.3979004  11.2570655  42.3970328  88.0186889
  10.6350664  41.7341033  87.7189117  11.9275521  42.4231460  87.3360536
   4.4897726  40.9630186  86.9078149   3.6529635  40.5352361  86.7262150
   4.4621372  41.1562630  87.8448940  11.3295182  30.8752116  97.6119395
  11.3783337  31.7514239  97.2297164  11.8717696  30.3329509  97.0391038
  21.8150028  41.4193239  96.8920532  21.0245571  41.4017378  96.3525031
  21.5783382  41.9581533  97.6469568  21.9347903  38.2685706  94.2053260
  21.9845908  38.1035713  95.1468783  21.8261826  37.4012965  93.8151141
  10.8184161  40.9474251  81.4945349  10.9672282  41.6309716  80.8412022
  11.6250605  40.9279341  82.0094805  19.2251665  34.2516634  95.5212567
  20.1261528  34.1123099  95.2296565  19.2999640  34.4171089  96.4610744
  13.5594470  31.6283489  94.3665753  12.6897780  31.9217055  94.0948342
  13.7953951  32.2123934  95.0873017  23.4366100  40.6882647  94.4495282
  23.1450908  41.0512628  95.2858743  22.8238231  39.9749656  94.2708614
  24.6361782  38.2535527  86.9697852  25.4708673  38.6925331  87.1335412
  24.7720911  37.7774180  86.1506098  21.6853288  35.8115262  92.9175340
  22.1607409  36.0042908  92.1094191  20.7618853  35.8674448  92.6718724
   8.5736794  36.9739429  82.5006418   8.3282836  36.0701759  82.6986628
   8.7432709  36.9756580  81.5585896  16.2633504  27.8463105  91.8831174
  16.7815448  28.5824132  91.5577662  15.9088637  28.1527099  92.7177933
   7.8432442  32.7067787  79.9992580   7.1501687  32.7812142  79.3432616
   7.5984194  31.9428130  80.5214097  16.5146098  24.2663388  87.4032070
  16.7947852  23.5986577  88.0292497  17.2996705  24.4592484  86.8906734
  14.3179567  43.4422382  78.9657097  13.7453534  44.0612569  78.5127569
  14.8912361  43.9921744  79.4997019  20.3854957  32.6881022  91.1503645
  21.3372380  32.7879120  91.1715870  20.2158407  31.8959291  91.6601730
  18.4069336  29.7736605  91.3363046  17.8119268  30.0541618  90.6409535
  18.1219033  30.2630506  92.1079787  17.5376827  43.7259532  80.0965679
  18.4707500  43.6605094  80.2998554  17.4500040  44.5615799  79.6380212
  20.1664843  43.0425402  77.0569627  20.0878475  42.7085266  77.9505384
  20.9874510  43.5347170  77.0561099  22.8643035  35.9087142  90.2645945
  22.8319355  34.9703142  90.4505629  23.4743658  35.9871178  89.5311770
  14.7026365  34.7783195  76.3073149  15.6485470  34.6489403  76.3761567
  14.3240610  34.0397857  76.7842577  23.0137523  32.6998185  90.3104228
  22.4976572  31.9156642  90.1234157  23.8977472  32.3716902  90.4750748
  20.6748250  26.4439201  86.2700041  20.4773071  26.1354289  87.1543373
  21.2847956  27.1700840  86.3997971  28.6819584  36.9703148  89.4051982
  29.4122973  36.7088437  89.9659685  28.0726530  36.2331870  89.4454050
  26.7634882  35.1111011  90.0026433  26.0368045  34.9766976  89.3942925
  26.3482168  35.4187840  90.8083151  14.5865058  38.8300941  97.7673806
  15.5068067  39.0079540  97.9613853  14.5514641  37.8856986  97.6153505
  12.8869283  32.7033171  76.2428034  11.9800738  32.4066284  76.3190748
  13.1645264  32.4062989  75.3762321   3.8047223  34.0239534  86.6927081
   3.4850007  33.1704843  86.4001455   3.2580651  34.2388113  87.4485048
   7.5827131  36.7401975  90.4096587   7.8013140  37.6719083  90.4284621
   7.9952904  36.3809950  91.1951391  14.5031348  27.2470061  82.3972276
  13.6932077  26.9017146  82.7727522  15.1915765  26.9377604  82.9859887
  16.4321897  26.3248108  84.0196572  16.9852935  26.7443561  84.6786595
  16.6691983  25.3983856  84.0619528  12.4554996  32.3135181  99.7999336
  12.3551723  33.2629538  99.7311427  12.2376538  31.9853420  98.9275406
  11.6568067  29.5620106  76.3840014  12.5187231  29.8875005  76.6435831
  11.8418411  28.7751602  75.8713079   3.6735483  37.6442446  88.6620202
   2.9798954  37.2296399  88.1490157   4.4208474  37.6862982  88.0653621
  19.8100704  28.4348633  83.5275237  19.2299373  29.0933437  83.1453289
  19.5436636  27.6125977  83.1162654  18.2604270  27.8353690  85.7296557
  18.7604048  27.9470225  84.9210876  18.9039878  27.5314743  86.3697365
  12.3186266  35.7432320  98.6164398  11.8353348  36.5432680  98.8228287
  12.4047205  35.7540265  97.6631842   5.5872225  37.5760700  86.5386217
   5.5642914  37.6748387  85.5868100   5.8972862  38.4225850  86.8603383
   8.2459603  39.6336855  90.6532832   9.2002857  39.6020797  90.5862763
   8.0472127  39.1727478  91.4683058   8.8358985  38.2037971  93.2203629
   9.6551874  38.6982049  93.2438467   9.1095793  37.2869939  93.1921197
  18.5925582  30.5948723  82.5831585  17.7051437  30.8798374  82.3651780
  19.0079571  30.4342486  81.7358862  21.9440118  30.6195244  86.2985924
  22.7200508  31.1091697  86.5710541  21.2188252  31.0453298  86.7557794
  24.3812676  31.3322863  87.3559865  24.9757167  31.0918599  86.6453173
  24.4539260  30.6129994  87.9833401   6.6009832  45.1756474  87.6703030
   6.4664300  44.4156875  87.1041028   6.1841894  45.8997374  87.2031818
  17.7368795  40.3593398  76.6779605  18.4404645  40.5643400  77.2937260
  17.0131444  40.9270160  76.9428688  18.5666605  36.1103259  82.7981875
  18.5101807  36.5671810  81.9589507  19.1194948  35.3493944  82.6204718
  22.3771411  31.8992991  83.6231994  22.1208346  31.4989627  84.4540202
  21.7524279  32.6136785  83.4982134  26.6883749  34.6389064  86.1303286
  26.1283307  34.7082253  86.9034848  26.0827253  34.4630049  85.4102782
   9.7578958  46.0725791  87.8821472   9.6411342  47.0171224  87.7800162
   8.9371404  45.7699353  88.2707271  19.6455493  40.7975927  78.7278065
  20.4801097  40.3657125  78.5455540  19.4839835  40.6257941  79.6554959
  19.3001385  37.3008040  80.0934404  19.2450189  37.1352312  79.1522848
  18.6747440  38.0084073  80.2496594   4.0893900  32.5376105  93.9195826
   4.7352763  32.0275059  94.4083052   3.8811051  33.2744786  94.4939252
  16.6147292  39.6056952  99.4187967  17.4838452  39.7797604  99.0574602
  16.1354043  40.4251369  99.2963696  12.6097510  26.8016149  79.6719723
  12.5976180  27.7457989  79.8287993  13.5020932  26.6186295  79.3779184
  10.7833472  46.7254053  91.0977401  11.6860719  46.7577663  91.4143896
  10.5570842  45.7954504  91.1123736  12.5387074  45.4785040  87.7587479
  11.5882705  45.4786901  87.6451852  12.8419560  44.7317774  87.2423514
  16.4249630  23.3958926  83.9265659  15.6582025  22.8417413  84.0722342
  16.8360335  23.4680795  84.7879811   8.4291391  29.6843722  98.0170841
   9.2922852  29.3280527  98.2274165   7.8556801  29.3457617  98.7046245
  28.2739768  51.3145578  88.8233242  28.9118178  51.1952325  88.1196582
  28.1560611  52.2626422  88.8821194  25.0829474  51.2673006  88.7594766
  24.7447985  51.1514071  87.8715301  25.9519242  50.8664171  88.7395772
  20.9416290  53.1208483  84.7491657  20.3781155  53.0298420  83.9807945
  20.8268685  52.3008387  85.2294150  25.5649257  52.4207858  94.7180972
  25.5537898  52.0260656  93.8461476  25.7269896  51.6873931  95.3114743
  18.4880722  54.6159674  87.5875878  19.2802013  54.2750499  87.1722177
  18.7277372  54.7254649  88.5078031  26.5215848  56.7879450  80.0606122
  25.8703828  57.3733531  79.6740136  27.3160211  57.3185645  80.1201160
  20.4471476  53.8768587  80.4593257  21.2202352  53.3297575  80.3206132
  20.7996874  54.7412837  80.6707718  22.2856518  55.2044970  93.6660156
  21.9946384  56.1090601  93.5506822  22.9213502  55.2461497  94.3804225
  23.2112725  52.5821818  90.2561515  23.8076297  52.3577841  89.5418478
  23.2687696  51.8406564  90.8586963  22.7837753  50.0361254  78.0911706
  23.0363274  49.5142775  77.3295169  21.8462312  49.8727399  78.1938390
  27.8281036  49.0397032  85.8986450  28.6144125  48.6216455  85.5476867
  28.0919740  49.9443124  86.0668098  22.5034042  51.9389360  80.2936081
  22.3870300  51.2634263  80.9617166  22.6136302  51.4521733  79.4768234
  30.7514884  42.6893839  91.2614037  30.4198208  43.5589250  91.0375252
  30.1560497  42.3730123  91.9408067  24.4871070  46.4289406  78.9944119
  24.6545472  47.2969643  79.3614590  24.2968239  46.5916688  78.0705408
  27.2446403  54.8906385  90.6609950  26.9447126  55.7931424  90.5525757
  26.8997463  54.6238568  91.5131102  20.6958885  51.3420182  86.6946654
  19.7709381  51.2096396  86.9024346  20.9443298  52.1214401  87.1916596
  30.6443547  47.4088925  88.3407387  29.7360424  47.3404334  88.0466148
  30.5931143  47.8860870  89.1689212  24.4660291  48.8847064  79.9790786
  24.3459916  49.3304115  80.8176266  23.7712879  49.2332381  79.4204324
  18.0567696  50.9853456  87.5290443  18.1860077  51.2387935  88.4429855
  17.3765147  51.5781164  87.2095098  24.7184413  48.8278571  96.2842284
  23.9417747  49.3872491  96.2745149  25.3574976  49.3135354  96.8057154
  32.5105193  45.6105364  90.1185261  31.8679574  45.9037897  89.4725055
  32.0060122  45.4958284  90.9238457  22.9730785  51.6364024  95.8460251
  23.7145469  52.1749068  95.5695075  22.2667771  52.2630313  96.0031803
  28.4486125  53.7793165  94.4432413  28.8569481  53.3375575  93.6987045
  27.7263386  53.2045792  94.6966605  24.8017195  48.7165772  91.8165970
  25.6478390  49.1405185  91.9600619  24.7415832  48.0599396  92.5104533
  27.9516640  46.3770140  93.4747143  27.7077572  47.1312200  92.9381419
  28.2276571  46.7555488  94.3094390  27.5081332  45.5326573  89.0560981
  26.6465811  45.8307827  89.3477718  27.5343766  45.7496972  88.1242014
  24.3242901  54.0768764  85.4634787  24.7881247  54.3556467  84.6739409
  24.0599699  53.1752208  85.2807877  21.2166982  53.6240245  88.4014550
  21.7868339  54.0527513  87.7632034  21.8075094  53.3422830  89.0998735
  23.2611787  50.1991916  82.2724352  23.9635831  50.6512960  82.7398278
  22.9292416  49.5575735  82.9004245  21.7092149  48.7903673  96.6475561
  21.0790809  49.4719953  96.8810958  21.6028237  48.6786754  95.7028699
  17.0037121  48.4575469  87.5741485  16.2136175  48.7132997  87.0981596
  17.4948369  49.2723806  87.6793526  18.9551867  48.8220048  84.5324962
  18.1583030  48.9338742  85.0508458  18.7277459  49.1606700  83.6665853
  24.7857534  55.3464751  92.4807477  24.8501967  55.8085158  93.3165648
  24.0768458  54.7162116  92.6089786  15.2874824  48.7105959  90.0056476
  15.5382863  49.5952969  90.2714052  15.8234373  48.5310561  89.2331568
  24.5005552  57.0132859  82.3486457  24.3651227  57.8584394  82.7771305
  25.0415364  57.2152136  81.5852391  20.9872892  43.0924438  99.0100812
  20.5939837  42.5390637  99.6848456  21.8039032  43.4035017  99.4007330
  17.9534949  54.5308297  82.9214382  18.4659470  55.3251547  83.0719947
  18.6057662  53.8334587  82.8547983  19.7629834  57.6474053  85.0037135
  19.9396462  58.5692018  84.8158119  20.5586667  57.3332472  85.4331515
  23.9040853  44.5082317  96.6021069  24.6450566  45.1089471  96.5225531
  24.1358775  43.7659955  96.0439111  19.0482191  49.6938685  94.8799298
  18.9335706  48.7923942  95.1806397  18.1926708  49.9402381  94.5284115
  26.1274028  57.6356425  96.4786799  25.6837882  56.8492804  96.1607704
  26.7891242  57.8235576  95.8130690  20.8861149  59.1652227  91.0047478
  21.4368575  59.0369290  90.2324471  20.0472625  59.4647116  90.6542370
  28.2255266  57.9159225  94.5068200  28.2073742  58.7368106  94.0148469
  29.1475186  57.7913300  94.7318341  24.6828320  55.4303354  95.3491709
  25.2156657  54.6691643  95.1191017  24.1542402  55.1377006  96.0915863
  27.8498015  40.5363420  90.8785350  27.5062285  41.4265062  90.8024461
  28.2176978  40.3465078  90.0154935  15.9183866  52.8596951  83.6973953
  16.7559088  53.2693959  83.4807660  16.0962134  51.9196393  83.6674146
  25.3995409  45.3721732  84.4443024  24.5437006  44.9828583  84.2648663
  25.8122361  45.4513693  83.5842809  26.9294556  42.9068076  88.8434584
  26.4259351  42.8698211  88.0302389  27.2225163  43.8160818  88.9031240
  23.1737442  42.9906805  87.8500765  24.0390438  42.7949614  87.4906655
  23.2414951  42.7617157  88.7770122  27.6034601  48.3999124  81.2117567
  27.2984737  48.7145273  82.0627710  28.5565043  48.4780543  81.2544900
  20.7799761  45.2209013  85.2217132  21.3543513  44.9984195  84.4890325
  21.3670743  45.2897708  85.9745733  21.1069348  47.2513474  79.2413017
  20.2706660  47.5888161  79.5622292  20.9674118  47.1162454  78.3040154
  23.0822429  42.0950262  83.9492202  22.4286841  41.7799279  83.3248816
  23.0402903  41.4726003  84.6752025  24.1933633  52.3769557  75.8645494
  23.2860695  52.1458811  76.0636643  24.6904665  51.5807176  76.0519475
  26.3160169  48.5832196  88.2739849  25.3982730  48.8047143  88.1161537
  26.7320312  48.6578506  87.4151557  25.3721867  52.4782152  80.3869484
  24.4633086  52.1941185  80.4841954  25.4016951  52.8981231  79.5272791
  29.6485681  39.7956980  85.9803088  29.9544558  38.9354343  85.6929003
  30.3738286  40.3874600  85.7802082  15.9410037  50.1987666  84.3684686
  15.7434437  49.6057027  83.6435753  15.3856701  49.8939876  85.0860625
  23.9206761  50.0910773  86.4879279  23.9755371  49.1384609  86.4121756
  23.1097963  50.2470212  86.9720578  25.0697955  54.0190896  77.7257562
  24.6317385  53.3026755  77.2663200  25.8108395  54.2467011  77.1642654
  21.8599121  48.7087832  84.2469658  21.0466986  49.0082003  84.6534850
  22.3558115  48.3143521  84.9644140  27.4573332  49.1729657  93.0784552
  27.8122720  49.4001130  93.9379018  28.1045464  49.5048034  92.4561807
  21.3513196  46.2806188  89.8630893  21.9912575  46.1394947  89.1653856
  20.5190726  45.9940701  89.4869495  22.1273499  55.5808618  85.9765885
  22.9214098  55.0858938  85.7748460  21.4165192  55.0526481  85.6133591
  26.9468344  57.9626714  90.3278253  27.0005366  58.5317650  91.0955969
  26.0783125  58.1328599  89.9632290  18.4356263  49.7251700  82.0525638
  17.5053851  49.6636156  82.2695600  18.5313735  49.2027653  81.2562279
  18.3541812  46.2506513  84.6403880  18.6148629  47.1651846  84.5313040
  19.1758984  45.7830955  84.7900493  19.8266737  47.6644270  91.8102704
  20.4989791  47.4561632  91.1615353  18.9996524  47.4666356  91.3707937
  25.7292309  44.2906211  93.8268365  25.0820224  44.9896161  93.7332842
  26.4993325  44.7242355  94.1944613  29.1371107  54.5555063  96.9018918
  28.9856614  54.3265615  95.9849002  29.1275787  55.5125665  96.9150263
  25.9056444  52.1286976  91.8865185  26.8348504  52.2798136  91.7134152
  25.4847474  52.2170997  91.0313831  24.7044775  56.1537640  89.6563723
  24.5655861  55.7856425  90.5289661  23.9159372  56.6685280  89.4847680
  26.2549991  55.5319243  87.0452560  25.9199823  55.4920013  87.9410210
  25.7553936  54.8663959  86.5722971  20.2294235  50.9386873  92.5705141
  20.0914032  50.2067112  93.1716681  21.1399158  50.8495773  92.2889329
  29.1909182  52.8775277  77.3189620  28.5738353  52.1522106  77.2222673
  28.7225671  53.6384638  76.9756694  22.8576535  50.6506832  92.0588821
  23.5676154  50.0100025  92.0175440  22.8145843  50.9019727  92.9815002
  21.5705469  47.6372050  93.8784461  21.0342826  47.1862789  94.5306057
  20.9822178  47.7717959  93.1354925  19.8654013  64.4036100  87.7729119
  20.1050611  65.0354624  88.4508138  19.0223209  64.0524140  88.0594478
  20.9807728  47.0960702  76.4410924  20.1037194  46.9749502  76.0773171
  21.4565481  46.3046780  76.1889813  12.5009868  51.8837861  86.5352431
  13.1880908  51.5699591  85.9473447  12.3457997  52.7879226  86.2619683
  17.3044590  46.7728058  90.9637455  17.2202779  46.1653728  90.2287865
  16.4827297  47.2637076  90.9646951  24.3781875  60.2115222  90.1770623
  24.3052046  61.0170193  90.6889928  23.9359268  60.4107188  89.3518645
  27.4768304  45.2581621  86.3307650  27.9737004  44.5051584  86.0108720
  26.7055286  45.2945938  85.7650859  26.8380558  60.1102056  92.3328782
  27.5508530  60.7449521  92.2604683  26.3470587  60.2065922  91.5168784
  24.0603273  47.3999004  86.0579335  23.6901061  46.8470045  86.7460240
  24.5562365  46.7957138  85.5054335  21.8892472  57.8596499  93.1534353
  22.5901931  58.4932982  93.3063747  21.4187587  58.2011231  92.3929992
  29.9187299  42.2251215  88.4787009  29.0050379  42.4555442  88.6469216
  30.3480401  42.3089659  89.3301041  25.7381331  51.1560918  97.4652940
  25.0621968  51.0555047  98.1355315  26.5608964  51.0000132  97.9288937
  17.4860190  57.3932855  90.0865455  18.0713626  56.6476542  90.2193360
  17.2885028  57.7036811  90.9702119  12.0777844  49.9638455  88.8069899
  12.1161944  49.4302045  89.6007017  11.5718137  49.4373660  88.1880876
  24.4804113  62.4627845  91.7010556  25.0322421  62.6259467  92.4659641
  24.8210307  63.0532283  91.0290581  19.4568607  44.8102995  92.3032441
  19.5209933  45.6717826  91.8909839  19.3935727  44.1976997  91.5704799
  18.9320879  46.8826128  95.9505475  19.5592918  46.5003205  96.5642999
  18.0748798  46.6640330  96.3161168  29.3314988  57.2889103  97.5559211
  29.8754892  57.9019061  97.0614165  28.7501833  57.8468681  98.0726224
  15.7086422  48.6902557  81.8823830  16.0039863  47.7813235  81.8290884
  14.8074458  48.6690296  81.5604832  19.2380669  46.7658553  87.8651379
  18.5167255  47.3794521  87.7258852  20.0273925  47.3016318  87.7868024
  22.0406983  44.1012980  94.1392030  22.5641384  44.3475277  94.9018340
  21.8219316  44.9333015  93.7195168  17.4374264  46.3716655  82.0063155
  17.1086970  45.4914033  81.8238261  17.7913634  46.3164323  82.8939544
  20.5516087  46.6589624  82.3738633  20.8912159  47.1875546  81.6517241
  20.9988207  46.9970030  83.1497199  23.2459528  45.0426675  91.8241701
  22.9056348  44.2434488  92.2262381  22.5398534  45.3428386  91.2518534
  23.8975999  42.1275987  90.2769024  24.7202069  41.6536466  90.1547914
  24.1414063  42.9066471  90.7767710  22.5384234  45.1564246  80.5731925
  23.2592596  45.5345499  80.0695642  21.9149538  45.8753123  80.6766903
  26.6815357  45.8609395  81.5090258  26.8978971  46.7434033  81.2079086
  26.2009424  45.4695608  80.7795900  21.4214578  48.8195108  88.0861002
  21.2759159  49.1335411  88.9785284  20.9439782  49.4380008  87.5331901
  23.2810961  45.8097656  88.1341892  23.2672530  44.9138749  87.7974190
  23.9983389  45.8168320  88.7680178  25.1337092  46.2434996  90.1795019
  24.8754870  47.1652067  90.1779350  24.6022132  45.8465431  90.8695484
  15.8960240  51.3600453  91.0248664  15.3513708  52.1360261  91.1568938
  16.7739590  51.7071257  90.8667785  22.6847857  44.6912036  83.4029462
  22.8063768  43.7628683  83.6020350  22.3949899  44.7050722  82.4907778
  25.5539047  42.3766947  86.5396182  25.5760744  42.4406280  85.5848162
  25.9707106  41.5371455  86.7336688  16.6826262  50.4870349  93.9178820
  15.9407998  50.6352984  94.5043451  16.3619006  50.7478614  93.0545570
  24.6269925  60.0286327  93.7159210  24.9357051  59.7835474  94.5881910
  25.4245407  60.2332966  93.2278081  17.1282876  58.3735778  85.9489215
  17.9540896  58.0739549  85.5687859  16.7776928  57.6043400  86.3979004
  22.0964409  57.7262246  88.0186889  21.4744418  57.0632951  87.7189117
  22.7669276  57.7523378  87.3360536  15.3291481  56.2922104  86.9078149
  14.4923389  55.8644278  86.7262150  15.3015126  56.4854547  87.8448940
  22.1688936  46.2044034  97.6119395  22.2177092  47.0806157  97.2297164
  22.7111451  45.6621427  97.0391038  32.6543782  56.7485157  96.8920532
  31.8639326  56.7309296  96.3525031  32.4177137  57.2873451  97.6469568
  21.6577916  56.2766169  81.4945349  21.8066036  56.9601633  80.8412022
  22.4644359  56.2571259  82.0094805  30.0645420  49.5808551  95.5212567
  30.9655282  49.4415016  95.2296565  30.1393394  49.7463006  96.4610744
  24.3988225  46.9575406  94.3665753  23.5291534  47.2508972  94.0948342
  24.6347705  47.5415851  95.0873017  19.4130549  52.3031347  82.5006418
  19.1676591  51.3993677  82.6986628  19.5826463  52.3048497  81.5585896
  27.1027259  43.1755023  91.8831174  27.6209203  43.9116050  91.5577662
  26.7482392  43.4819016  92.7177933  18.6826196  48.0359704  79.9992580
  17.9895441  48.1104059  79.3432616  18.4377948  47.2720048  80.5214097
  27.3539853  39.5955306  87.4032070  27.6341607  38.9278495  88.0292497
  28.1390460  39.7884401  86.8906734  25.1573321  58.7714300  78.9657097
  24.5847289  59.3904487  78.5127569  25.7306115  59.3213661  79.4997019
  31.2248711  48.0172940  91.1503645  32.1766134  48.1171037  91.1715870
  31.0552162  47.2251208  91.6601730  29.2463091  45.1028523  91.3363046
  28.6513023  45.3833536  90.6409535  28.9612787  45.5922424  92.1079787
  25.5420120  50.1075112  76.3073149  26.4879225  49.9781320  76.3761567
  25.1634365  49.3689774  76.7842577  33.8531278  48.0290103  90.3104228
  33.3370326  47.2448559  90.1234157  34.7371226  47.7008819  90.4750748
  31.5142004  41.7731118  86.2700041  31.3166826  41.4646207  87.1543373
  32.1241710  42.4992757  86.3997971  25.4258812  54.1592858  97.7673806
  26.3461822  54.3371457  97.9613853  25.3908395  53.2148904  97.6153505
  23.7263037  48.0325089  76.2428034  22.8194492  47.7358201  76.3190748
  24.0039018  47.7354907  75.3762321  14.6440977  49.3531452  86.6927081
  14.3243762  48.4996760  86.4001455  14.0974406  49.5680030  87.4485048
  18.4220885  52.0693893  90.4096587  18.6406895  53.0011001  90.4284621
  18.8346659  51.7101867  91.1951391  25.3425103  42.5761978  82.3972276
  24.5325831  42.2309063  82.7727522  26.0309520  42.2669522  82.9859887
  27.2715651  41.6540025  84.0196572  27.8246690  42.0735479  84.6786595
  27.5085737  40.7275773  84.0619528  23.2948750  47.6427099  99.7999336
  23.1945477  48.5921456  99.7311427  23.0770292  47.3145338  98.9275406
  22.4961822  44.8912024  76.3840014  23.3580986  45.2166922  76.6435831
  22.6812166  44.1043520  75.8713079  14.5129237  52.9734364  88.6620202
  13.8192709  52.5588316  88.1490157  15.2602228  53.0154900  88.0653621
  30.6494458  43.7640550  83.5275237  30.0693127  44.4225354  83.1453289
  30.3830391  42.9417895  83.1162654  29.0998025  43.1645608  85.7296557
  29.5997803  43.2762143  84.9210876  29.7433632  42.8606661  86.3697365
  23.1580020  51.0724238  98.6164398  22.6747102  51.8724598  98.8228287
  23.2440959  51.0832183  97.6631842  16.4265980  52.9052617  86.5386217
  16.4036668  53.0040305  85.5868100  16.7366616  53.7517768  86.8603383
  19.0853358  54.9628772  90.6532832  20.0396611  54.9312715  90.5862763
  18.8865881  54.5019396  91.4683058  19.6752740  53.5329888  93.2203629
  20.4945629  54.0273967  93.2438467  19.9489548  52.6161857  93.1921197
  17.4403587  60.5048392  87.6703030  17.3058055  59.7448793  87.1041028
  17.0235649  61.2289292  87.2031818  28.5762550  55.6885315  76.6779605
  29.2798400  55.8935318  77.2937260  27.8525198  56.2562077  76.9428688
  30.4849247  56.1267845  78.7278065  31.3194851  55.6949043  78.5455540
  30.3233590  55.9549858  79.6554959  14.9287654  47.8668022  93.9195826
  15.5746518  47.3566976  94.4083052  14.7204805  48.6036704  94.4939252
  27.4541046  54.9348870  99.4187967  28.3232206  55.1089522  99.0574602
  26.9747798  55.7543287  99.2963696  23.4491265  42.1308067  79.6719723
  23.4369935  43.0749907  79.8287993  24.3414687  41.9478212  79.3779184
  21.6227227  62.0545971  91.0977401  22.5254473  62.0869581  91.4143896
  21.3964597  61.1246422  91.1123736  27.2643384  38.7250844  83.9265659
  26.4975780  38.1709330  84.0722342  27.6754089  38.7972712  84.7879811
  19.2685145  45.0135639  98.0170841  20.1316607  44.6572444  98.2274165
  18.6950556  44.6749534  98.7046245  36.4043011  67.7499776  94.7180972
  36.3931652  67.3552574  93.8461476  36.5663651  67.0165848  95.3114743
  29.3274476  69.9451592  87.5875878  30.1195768  69.6042416  87.1722177
  29.5671126  70.0546567  88.5078031  37.3609603  72.1171368  80.0606122
  36.7097583  72.7025448  79.6740136  38.1553966  72.6477563  80.1201160
  33.1250273  70.5336887  93.6660156  32.8340139  71.4382518  93.5506822
  33.7607257  70.5753415  94.3804225  38.0840158  70.2198303  90.6609950
  37.7840881  71.1223342  90.5525757  37.7391217  69.9530486  91.5131102
  33.0660937  76.9842623  83.6280917  32.9884967  77.9350448  83.7069398
  32.4622581  76.6388496  84.2855844  35.5578167  64.1570489  96.2842284
  34.7811501  64.7164409  96.2745149  36.1968730  64.6427272  96.8057154
  33.8124540  66.9655942  95.8460251  34.5539224  67.5040986  95.5695075
  33.1061525  67.5922231  96.0031803  39.2879879  69.1085082  94.4432413
  39.6963235  68.6667493  93.6987045  38.5657141  68.5337710  94.6966605
  38.7910395  61.7062058  93.4747143  38.5471326  62.4604118  92.9381419
  39.0670325  62.0847405  94.3094390  40.7448857  68.2500670  92.1524409
  40.9565753  68.8932430  91.4758790  40.6978606  67.4162987  91.6846339
  32.0560737  68.9532163  88.4014550  32.6262094  69.3819431  87.7632034
  32.6468849  68.6714747  89.0998735  32.5485903  64.1195590  96.6475561
  31.9184564  64.8011871  96.8810958  32.4421991  64.0078672  95.7028699
  41.8594685  71.1272625  90.3246766  42.6812129  70.7252813  90.0429448
  41.8557088  71.0240860  91.2762882  35.6251289  70.6756669  92.4807477
  35.6895721  71.1377076  93.3165648  34.9162213  70.0454034  92.6089786
  31.8266646  58.4216356  99.0100812  31.4333592  57.8682555  99.6848456
  32.6432786  58.7326935  99.4007330  30.6023588  72.9765971  85.0037135
  30.7790217  73.8983935  84.8158119  31.3980422  72.6624390  85.4331515
  34.7434607  59.8374235  96.6021069  35.4844320  60.4381388  96.5225531
  34.9752530  59.0951873  96.0439111  29.8875945  65.0230602  94.8799298
  29.7729460  64.1215860  95.1806397  29.0320463  65.2694299  94.5284115
  36.9667783  72.9648343  96.4786799  36.5231637  72.1784721  96.1607704
  37.6284996  73.1527493  95.8130690  31.7254904  74.4944144  91.0047478
  32.2762329  74.3661208  90.2324471  30.8866380  74.7939033  90.6542370
  39.0649021  73.2451143  94.5068200  39.0467496  74.0660024  94.0148469
  39.9868941  73.1205218  94.7318341  35.5222075  70.7595272  95.3491709
  36.0550412  69.9983560  95.1191017  34.9936156  70.4668924  96.0915863
  37.9395467  76.4158982  78.7842180  37.2657166  76.7190679  79.3927138
  38.3261289  77.2188062  78.4347637  41.4434889  71.4180659  84.1560651
  40.9897216  70.5771569  84.2125842  40.8128855  72.0542058  84.4935432
  39.8867828  73.2557156  85.0910470  40.1790802  73.8162213  84.3722835
  40.3966449  73.5485717  85.8463629  38.2967087  64.5021575  93.0784552
  38.6516475  64.7293048  93.9379018  38.9439218  64.8339951  92.4561807
  37.7862098  73.2918632  90.3278253  37.8399121  73.8609568  91.0955969
  36.9176880  73.4620517  89.9632290  30.6660492  62.9936188  91.8102704
  31.3383545  62.7853550  91.1615353  29.8390278  62.7958274  91.3707937
  39.9764862  69.8846981  96.9018918  39.8250368  69.6557533  95.9849002
  39.9669541  70.8417582  96.9150263  35.5438530  71.4829558  89.6563723
  35.4049616  71.1148342  90.5289661  34.7553126  71.9977197  89.4847680
  36.1386682  76.5838654  80.9989259  36.3138438  76.1126698  81.8134882
  35.4519470  77.2104421  81.2270520  31.0687989  66.2678791  92.5705141
  30.9307787  65.5359030  93.1716681  31.9792912  66.1787691  92.2889329
  41.6857068  72.9166103  94.9795400  41.6269615  72.2325324  94.3125983
  42.0876587  73.6585093  94.5276026  32.4099224  62.9663968  93.8784461
  31.8736581  62.5154706  94.5306057  31.8215932  63.1009877  93.1354925
  30.7047767  79.7328017  87.7729119  30.9444365  80.3646541  88.4508138
  29.8616964  79.3816057  88.0594478  41.6874476  70.8805687  93.2109380
  40.8001254  70.5431609  93.3335779  42.2573027  70.1488719  93.4478145
  35.2175629  75.5407140  90.1770623  35.1445801  76.3462111  90.6889928
  34.7753022  75.7399105  89.3518645  37.6774313  75.4393974  92.3328782
  38.3902285  76.0741439  92.2604683  37.1864341  75.5357840  91.5168784
  32.7286226  73.1888417  93.1534353  33.4295686  73.8224900  93.3063747
  32.2581341  73.5303149  92.3929992  40.8540622  71.5306367  81.4382260
  41.1300466  71.4162962  82.3476134  39.9845121  71.1323852  81.3994433
  37.4894686  75.7792718  85.0815073  37.6717080  74.9614374  85.5442826
  38.3127672  75.9960410  84.6439963  37.8236851  74.7060903  82.3430122
  38.3524618  74.1953358  81.7300284  38.0865071  74.3903433  83.2075655
  36.5775085  66.4852836  97.4652940  35.9015722  66.3846965  98.1355315
  37.4002719  66.3292049  97.9288937  28.3253944  72.7224772  90.0865455
  28.9107381  71.9768460  90.2193360  28.1278783  73.0328729  90.9702119
  31.1792599  75.7576020  85.1027898  30.5102975  76.2422147  84.6191938
  31.0405469  76.0045240  86.0171276  35.3197868  77.7919763  91.7010556
  35.8716176  77.9551385  92.4659641  35.6604061  78.3824201  91.0290581
  30.2962361  60.1394913  92.3032441  30.3603688  61.0009744  91.8909839
  30.2329481  59.5268915  91.5704799  29.7714634  62.2118045  95.9505475
  30.3986673  61.8295123  96.5642999  28.9142553  61.9932247  96.3161168
  40.1708742  72.6181021  97.5559211  40.7148646  73.2310979  97.0614165
  39.5895587  73.1760599  98.0726224  38.4566255  75.7401739  88.6874238
  38.3317395  74.9391478  88.1785184  39.1145346  76.2347932  88.1988208
  40.5201164  73.5410759  90.3153788  39.5731499  73.4216110  90.2432115
  40.8683937  72.6533257  90.3980050  32.8800737  59.4304898  94.1392030
  33.4035139  59.6767194  94.9018340  32.6613070  60.2624932  93.7195168
  41.1281719  74.1592034  87.6023013  42.0528266  73.9534895  87.4647464
  40.9597022  73.9108435  88.5112355  40.9177035  74.6777701  82.9585105
  41.0913913  74.1124124  82.2058957  41.4105926  75.4778596  82.7764595
  26.7353995  66.6892370  91.0248664  26.1907463  67.4652178  91.1568938
  27.6133345  67.0363175  90.8667785  41.9052207  73.9944466  80.0582003
  42.6003112  74.6151158  80.2769318  42.2475358  73.1439817  80.3334381
  27.5220017  65.8162266  93.9178820  26.7801753  65.9644902  94.5043451
  27.2012761  66.0770532  93.0545570  35.4663679  75.3578245  93.7159210
  35.7750806  75.1127391  94.5881910  36.2639161  75.5624883  93.2278081
  35.4884291  77.5116154  85.9464587  35.0489282  77.0192533  86.6397444
  36.2392408  76.9689122  85.7056662  27.9676630  73.7027695  85.9489215
  28.7934650  73.4031467  85.5687859  27.6170682  72.9335318  86.3979004
  32.9358163  73.0554163  88.0186889  32.3138173  72.3924868  87.7189117
  33.6063030  73.0815295  87.3360536  26.1685235  71.6214022  86.9078149
  25.3317144  71.1936196  86.7262150  26.1408881  71.8146465  87.8448940
  33.0082691  61.5335951  97.6119395  33.0570846  62.4098074  97.2297164
  33.5505205  60.9913345  97.0391038  43.4937537  72.0777075  96.8920532
  42.7033080  72.0601214  96.3525031  43.2570891  72.6165368  97.6469568
  32.4971670  71.6058087  81.4945349  32.6459791  72.2893551  80.8412022
  33.3038114  71.5863177  82.0094805  35.2381979  62.2867324  94.3665753
  34.3685289  62.5800890  94.0948342  35.4741460  62.8707769  95.0873017
  45.1153609  71.3466483  94.4495282  44.8238417  71.7096463  95.2858743
  44.5025740  70.6333491  94.2708614  35.9967076  74.1006217  78.9657097
  35.4241043  74.7196404  78.5127569  36.5699870  74.6505579  79.4997019
  39.2164336  74.3843367  80.0965679  40.1495009  74.3188929  80.2998554
  39.1287549  75.2199634  79.6380212  36.2652567  69.4884776  97.7673806
  37.1855576  69.6663375  97.9613853  36.2302150  68.5440821  97.6153505
  29.2614639  67.3985811  90.4096587  29.4800649  68.3302919  90.4284621
  29.6740413  67.0393785  91.1951391  34.1342505  62.9719017  99.7999336
  34.0339232  63.9213373  99.7311427  33.9164047  62.6437255  98.9275406
  25.3522992  68.3026281  88.6620202  24.6586463  67.8880234  88.1490157
  26.0995983  68.3446818  88.0653621  33.9973775  66.4016155  98.6164398
  33.5140857  67.2016515  98.8228287  34.0834714  66.4124100  97.6631842
  29.9247112  70.2920690  90.6532832  30.8790366  70.2604632  90.5862763
  29.7259636  69.8311314  91.4683058  30.5146494  68.8621806  93.2203629
  31.3339383  69.3565885  93.2438467  30.7883302  67.9453774  93.1921197
  28.2797341  75.8340310  87.6703030  28.1451809  75.0740710  87.1041028
  27.8629403  76.5581209  87.2031818  31.4366467  76.7309627  87.8821472
  31.3198851  77.6755059  87.7800162  30.6158913  76.4283188  88.2707271
  25.7681409  63.1959940  93.9195826  26.4140272  62.6858894  94.4083052
  25.5598560  63.9328622  94.4939252  38.2934801  70.2640787  99.4187967
  39.1625961  70.4381440  99.0574602  37.8141552  71.0835204  99.2963696
  32.4620981  77.3837888  91.0977401  33.3648228  77.4161499  91.4143896
  32.2358351  76.4538339  91.1123736  34.2174583  76.1368875  87.7587479
  33.2670214  76.1370737  87.6451852  34.5207069  75.3901610  87.2423514
  30.1078900  60.3427557  98.0170841  30.9710361  59.9864362  98.2274165
  29.5344310  60.0041452  98.7046245  49.9527277  81.9729413  88.8233242
  50.5905687  81.8536161  88.1196582  49.8348120  82.9210257  88.8821194
  46.7616983  81.9256842  88.7594766  46.4235494  81.8097906  87.8715301
  47.6306751  81.5248007  88.7395772  42.6203799  83.7792318  84.7491657
  42.0568664  83.6882255  83.9807945  42.5056194  82.9592222  85.2294150
  47.2436766  83.0791693  94.7180972  47.2325407  82.6844492  93.8461476
  47.4057405  82.3457766  95.3114743  40.1668231  85.2743510  87.5875878
  40.9589522  84.9334334  87.1722177  40.4064881  85.3838485  88.5078031
  48.2003357  87.4463286  80.0606122  47.5491337  88.0317366  79.6740136
  48.9947720  87.9769481  80.1201160  42.1258984  84.5352423  80.4593257
  42.8989860  83.9881410  80.3206132  42.4784383  85.3996672  80.6707718
  43.9644027  85.8628805  93.6660156  43.6733893  86.7674436  93.5506822
  44.6001011  85.9045333  94.3804225  44.8900234  83.2405654  90.2561515
  45.4863806  83.0161676  89.5418478  44.9475205  82.4990399  90.8586963
  44.4625262  80.6945089  78.0911706  44.7150783  80.1726610  77.3295169
  43.5249821  80.5311234  78.1938390  49.5068545  79.6980867  85.8986450
  50.2931634  79.2800290  85.5476867  49.7707249  80.6026959  86.0668098
  49.6778622  85.1353718  80.5975106  49.0424455  85.2088344  81.3096011
  49.3476029  85.7247316  79.9194186  54.9076972  79.6356100  86.8019428
  55.6402144  79.0655317  87.0357258  54.1516328  79.2477701  87.2425934
  44.1821551  82.5973195  80.2936081  44.0657809  81.9218098  80.9617166
  44.2923811  82.1105569  79.4768234  46.5253092  82.0583342  83.9982771
  46.1611299  81.5313963  84.7095692  47.3820208  81.6681811  83.8249256
  52.4302393  73.3477675  91.2614037  52.0985717  74.2173086  91.0375252
  51.8348006  73.0313959  91.9408067  46.1658579  77.0873242  78.9944119
  46.3332981  77.9553478  79.3614590  45.9755748  77.2500523  78.0705408
  48.9233912  85.5490221  90.6609950  48.6234635  86.4515259  90.5525757
  48.5784972  85.2822404  91.5131102  42.3746394  82.0004017  86.6946654
  41.4496890  81.8680232  86.9024346  42.6230807  82.7798237  87.1916596
  52.3231056  78.0672761  88.3407387  51.4147933  77.9988169  88.0466148
  52.2718652  78.5444706  89.1689212  46.1447800  79.5430899  79.9790786
  46.0247425  79.9887950  80.8176266  45.4500388  79.8916217  79.4204324
  39.7355205  81.6437291  87.5290443  39.8647586  81.8971770  88.4429855
  39.0552656  82.2364999  87.2095098  43.9054692  92.3134541  83.6280917
  43.8278722  93.2642366  83.7069398  43.3016336  91.9680413  84.2855844
  46.3971922  79.4862406  96.2842284  45.6205256  80.0456326  96.2745149
  47.0362485  79.9719189  96.8057154  54.1892702  76.2689199  90.1185261
  53.5467083  76.5621732  89.4725055  53.6847631  76.1542119  90.9238457
  51.8432866  80.0152372  80.8071120  52.7550722  80.2479759  80.6318818
  51.3342513  80.5989417  80.2446199  44.6518294  82.2947860  95.8460251
  45.3932978  82.8332904  95.5695075  43.9455279  82.9214148  96.0031803
  50.1273634  84.4377000  94.4432413  50.5356990  83.9959411  93.6987045
  49.4050895  83.8629628  94.6966605  46.4804704  79.3749607  91.8165970
  47.3265899  79.7989020  91.9600619  46.4203341  78.7183231  92.5104533
  50.4502448  84.9978191  88.1984701  49.8211311  85.1623905  87.4960769
  50.0628110  85.4119800  88.9695666  54.3291680  85.9332629  85.5529065
  53.6442718  86.3131530  85.0026099  54.4135530  86.5427955  86.2861013
  49.6304149  77.0353975  93.4747143  49.3865081  77.7896036  92.9381419
  49.9064080  77.4139323  94.3094390  51.5842612  83.5792588  92.1524409
  51.7959507  84.2224348  91.4758790  51.5372360  82.7454904  91.6846339
  49.1868841  76.1910408  89.0560981  48.3253320  76.4891662  89.3477718
  49.2131275  76.4080807  88.1242014  46.0030410  84.7352599  85.4634787
  46.4668756  85.0140302  84.6739409  45.7387208  83.8336043  85.2807877
  42.8954491  84.2824080  88.4014550  43.4655848  84.7111349  87.7632034
  43.4862603  84.0006665  89.0998735  44.9399296  80.8575751  82.2724352
  45.6423340  81.3096795  82.7398278  44.6079925  80.2159570  82.9004245
  43.3879658  79.4487508  96.6475561  42.7578318  80.1303789  96.8810958
  43.2815746  79.3370589  95.7028699  38.6824630  79.1159304  87.5741485
  37.8923684  79.3716832  87.0981596  39.1735878  79.9307642  87.6793526
  52.6988440  86.4564543  90.3246766  53.5205883  86.0544730  90.0429448
  52.6950843  86.3532777  91.2762882  40.6339376  79.4803883  84.5324962
  39.8370539  79.5922577  85.0508458  40.4064968  79.8190535  83.6665853
  46.4645043  86.0048586  92.4807477  46.5289476  86.4668994  93.3165648
  45.7555967  85.3745951  92.6089786  36.9662333  79.3689794  90.0056476
  37.2170372  80.2536804  90.2714052  37.5021882  79.1894396  89.2331568
  60.7894433  82.8003292  86.6731738  60.0358141  82.2310690  86.5175742
  60.9241974  82.7665956  87.6202372  46.1793061  87.6716694  82.3486457
  46.0438736  88.5168230  82.7771305  46.7202873  87.8735972  81.5852391
  42.6660400  73.7508274  99.0100812  42.2727346  73.1974472  99.6848456
  43.4826541  74.0618852  99.4007330  39.6322458  85.1892132  82.9214382
  40.1446979  85.9835382  83.0719947  40.2845171  84.4918422  82.8547983
  41.4417343  88.3057888  85.0037135  41.6183971  89.2275853  84.8158119
  42.2374176  87.9916307  85.4331515  45.5828361  75.1666153  96.6021069
  46.3238075  75.7673306  96.5225531  45.8146284  74.4243791  96.0439111
  40.7269699  80.3522520  94.8799298  40.6123215  79.4507777  95.1806397
  39.8714217  80.5986217  94.5284115  47.8061537  88.2940260  96.4786799
  47.3625391  87.5076639  96.1607704  48.4678751  88.4819411  95.8130690
  42.5648658  89.8236062  91.0047478  43.1156084  89.6953125  90.2324471
  41.7260134  90.1230951  90.6542370  49.9042775  88.5743060  94.5068200
  49.8861251  89.3951941  94.0148469  50.8262695  88.4497136  94.7318341
  46.3615829  86.0887190  95.3491709  46.8944166  85.3275478  95.1191017
  45.8329911  85.7960842  96.0915863  37.5971375  83.5180786  83.6973953
  38.4346597  83.9277795  83.4807660  37.7749643  82.5780228  83.6674146
  49.4935807  81.1855867  79.3857786  48.9782431  81.9560471  79.6246173
  49.2213116  80.5121003  80.0090847  47.0782918  76.0305568  84.4443024
  46.2224515  75.6412418  84.2648663  47.4909870  76.1097528  83.5842809
  48.6082065  73.5651911  88.8434584  48.1046860  73.5282046  88.0302389
  48.9012672  74.4744654  88.9031240  44.8524951  73.6490641  87.8500765
  45.7177947  73.4533449  87.4906655  44.9202460  73.4200992  88.7770122
  54.4670081  83.9388222  81.3210959  53.6899524  83.5999381  80.8766121
  55.1461562  83.9440845  80.6465924  49.2822110  79.0582959  81.2117567
  48.9772246  79.3729108  82.0627710  50.2352552  79.1364379  81.2544900
  47.7268542  85.2173182  82.8610521  47.1989904  84.4825942  82.5483758
  47.2256045  85.9947859  82.6150489  52.7061388  83.4122203  87.9777567
  52.0485063  84.1021464  88.0657696  53.5101787  83.8018635  88.3211553
  42.4587270  75.8792849  85.2217132  43.0331022  75.6568030  84.4890325
  43.0458252  75.9481543  85.9745733  51.5166847  81.7666575  86.0281509
  52.0298729  82.3996567  86.5303218  52.1668071  81.1667771  85.6624869
  42.7856857  77.9097310  79.2413017  41.9494169  78.2471996  79.5622292
  42.6461627  77.7746289  78.3040154  45.8721142  83.0353393  75.8645494
  44.9648204  82.8042646  76.0636643  46.3692174  82.2391012  76.0519475
  48.7789221  91.7450900  78.7842180  48.1050920  92.0482596  79.3927138
  49.1655043  92.5479980  78.4347637  47.9947678  79.2416031  88.2739849
  47.0770239  79.4630978  88.1161537  48.4107821  79.3162341  87.4151557
  48.7782726  80.6407447  83.4042530  49.5254545  81.1528844  83.0949652
  49.0474315  80.3191499  84.2646923  47.0509376  83.1365987  80.3869484
  46.1420595  82.8525020  80.4841954  47.0804460  83.5565066  79.5272791
  52.2828643  86.7472577  84.1560651  51.8290970  85.9063487  84.2125842
  51.6522610  87.3833975  84.4935432  51.2261563  77.6764563  85.3861319
  50.4884320  77.1641949  85.7171561  51.4788336  77.2364945  84.5744596
  50.7261582  88.5849074  85.0910470  51.0184557  89.1454131  84.3722835
  51.2360203  88.8777635  85.8463629  37.6197546  80.8571502  84.3684686
  37.4221946  80.2640862  83.6435753  37.0644210  80.5523712  85.0860625
  45.5994270  80.7494608  86.4879279  45.6542880  79.7968444  86.4121756
  44.7885472  80.9054047  86.9720578  46.7485464  84.6774731  77.7257562
  46.3104894  83.9610590  77.2663200  47.4895904  84.9050846  77.1642654
  43.5386630  79.3671668  84.2469658  42.7254495  79.6665838  84.6534850
  44.0345624  78.9727357  84.9644140  45.6895208  89.3629425  86.1803923
  45.6471386  89.5890271  85.2512455  46.6057906  89.1292799  86.3289724
  49.1360841  79.8313492  93.0784552  49.4910229  80.0584965  93.9379018
  49.7832973  80.1631869  92.4561807  54.8658578  82.9531928  83.7833881
  54.7276477  83.1433524  82.8555070  54.5094797  83.7151311  84.2401932
  43.0300705  76.9390023  89.8630893  43.6700084  76.7978782  89.1653856
  42.1978235  76.6524537  89.4869495  54.8927958  85.0208455  88.7945152
  55.3264465  84.9283744  89.6428206  55.6059539  84.9965956  88.1565168
  43.8061008  86.2392454  85.9765885  44.6001607  85.7442774  85.7748460
  43.0952701  85.7110317  85.6133591  48.6255853  88.6210549  90.3278253
  48.6792875  89.1901486  91.0955969  47.7570634  88.7912434  89.9632290
  40.1143772  80.3835535  82.0525638  39.1841360  80.3219991  82.2695600
  40.2101244  79.8611488  81.2562279  40.0329321  76.9090348  84.6403880
  40.2936138  77.8235682  84.5313040  40.8546493  76.4414791  84.7900493
  41.5054246  78.3228105  91.8102704  42.1777300  78.1145468  91.1615353
  40.6784033  78.1250191  91.3707937  55.7543508  85.0632156  91.3278038
  55.9479398  85.9677966  91.5737313  55.6544126  84.6039575  92.1616623
  47.4079818  74.9490046  93.8268365  46.7607733  75.6479996  93.7332842
  48.1780834  75.3826190  94.1944613  50.8158616  85.2138899  96.9018918
  50.6644123  84.9849450  95.9849002  50.8063296  86.1709500  96.9150263
  47.5843953  82.7870811  91.8865185  48.5136013  82.9381971  91.7134152
  47.1634983  82.8754832  91.0313831  46.3832284  86.8121476  89.6563723
  46.2443370  86.4440260  90.5289661  45.5946881  87.3269115  89.4847680
  46.9780436  91.9130572  80.9989259  47.1532192  91.4418615  81.8134882
  46.2913224  92.5396338  81.2270520  47.9337500  86.1903078  87.0452560
  47.5987332  86.1503848  87.9410210  47.4341445  85.5247794  86.5722971
  41.9081744  81.5970708  92.5705141  41.7701541  80.8650947  93.1716681
  42.8186667  81.5079609  92.2889329  50.8696691  83.5359113  77.3189620
  50.2525862  82.8105941  77.2222673  50.4013180  84.2968473  76.9756694
  44.5364044  81.3090668  92.0588821  45.2463663  80.6683860  92.0175440
  44.4933352  81.5603563  92.9815002  52.5250823  88.2458021  94.9795400
  52.4663369  87.5617241  94.3125983  52.9270341  88.9877011  94.5276026
  43.2492978  78.2955886  93.8784461  42.7130335  77.8446624  94.5306057
  42.6609687  78.4301794  93.1354925  41.5441522  95.0619935  87.7729119
  41.7838120  95.6938459  88.4508138  40.7010718  94.7107975  88.0594478
  42.6595237  77.7544537  76.4410924  41.7824703  77.6333338  76.0773171
  43.1352990  76.9630615  76.1889813  52.5268230  86.2097605  93.2109380
  51.6395009  85.8723527  93.3335779  53.0966781  85.4780636  93.4478145
  34.1797377  82.5421697  86.5352431  34.8668417  82.2283427  85.9473447
  34.0245506  83.4463061  86.2619683  38.9832099  77.4311893  90.9637455
  38.8990288  76.8237563  90.2287865  38.1614806  77.9220912  90.9646951
  46.0569384  90.8699057  90.1770623  45.9839555  91.6754029  90.6889928
  45.6146777  91.0691023  89.3518645  45.8459163  90.1070827  83.6873445
  45.0626685  90.6492508  83.7811669  46.5451908  90.6244807  84.0867686
  49.1555813  75.9165457  86.3307650  49.6524513  75.1635419  86.0108720
  48.3842795  75.9529773  85.7650859  57.0085571  81.6205822  87.9725942
  56.9975447  82.5030538  87.6019875  56.1402950  81.2677373  87.7780479
  48.5168067  90.7685891  92.3328782  49.2296039  91.4033356  92.2604683
  48.0258096  90.8649757  91.5168784  50.2385594  84.6737144  83.9046074
  49.3041873  84.7938607  83.7350778  50.4162262  83.7709611  83.6406083
  45.7390782  78.0582840  86.0579335  45.3688570  77.5053880  86.7460240
  46.2349874  77.4540973  85.5054335  53.6258145  80.5154463  84.4396108
  54.0918598  81.3482455  84.3656410  54.0765646  80.0499445  85.1441366
  43.5679981  88.5180335  93.1534353  44.2689440  89.1516818  93.3063747
  43.0975096  88.8595066  92.3929992  51.6934376  86.8598285  81.4382260
  51.9694220  86.7454879  82.3476134  50.8238875  86.4615769  81.3994433
  51.5974808  72.8835050  88.4787009  50.6837888  73.1139277  88.6469216
  52.0267910  72.9673494  89.3301041  51.3681267  81.0724942  90.9786903
  50.7152717  81.3200850  90.3239356  51.7461646  80.2589080  90.6449380
  48.3288440  91.1084635  85.0815073  48.5110835  90.2906291  85.5442826
  49.1521426  91.3252328  84.6439963  48.6630606  90.0352821  82.3430122
  49.1918372  89.5245275  81.7300284  48.9258826  89.7195351  83.2075655
  47.4168840  81.8144753  97.4652940  46.7409477  81.7138883  98.1355315
  48.2396473  81.6583967  97.9288937  39.1647699  88.0516690  90.0865455
  39.7501135  87.3060378  90.2193360  38.9672537  88.3620647  90.9702119
  42.0186354  91.0867937  85.1027898  41.3496729  91.5714065  84.6191938
  41.8799224  91.3337158  86.0171276  33.7565353  80.6222290  88.8069899
  33.7949453  80.0885881  89.6007017  33.2505646  80.0957496  88.1880876
  46.1591622  93.1211681  91.7010556  46.7109930  93.2843302  92.4659641
  46.4997816  93.7116119  91.0290581  41.1356116  75.4686831  92.3032441
  41.1997442  76.3301662  91.8909839  41.0723236  74.8560832  91.5704799
  40.6108388  77.5409963  95.9505475  41.2380427  77.1587040  96.5642999
  39.7536307  77.3224165  96.3161168  51.0102497  87.9472938  97.5559211
  51.5542401  88.5602897  97.0614165  50.4289342  88.5052517  98.0726224
  37.3873931  79.3486392  81.8823830  37.6827372  78.4397071  81.8290884
  36.4861967  79.3274132  81.5604832  49.2960010  91.0693656  88.6874238
  49.1711149  90.2683396  88.1785184  49.9539101  91.5639850  88.1988208
  40.9168178  77.4242389  87.8651379  40.1954764  78.0378357  87.7258852
  41.7061434  77.9600154  87.7868024  51.3594918  88.8702676  90.3153788
  50.4125254  88.7508028  90.2432115  51.7077691  87.9825174  90.3980050
  43.7194491  74.7596815  94.1392030  44.2428893  75.0059112  94.9018340
  43.5006825  75.5916850  93.7195168  39.1161773  77.0300490  82.0063155
  38.7874479  76.1497869  81.8238261  39.4701143  76.9748159  82.8939544
  48.3641351  88.6655393  86.5158141  48.2166314  87.7372100  86.6965711
  49.1894845  88.6875483  86.0315216  42.2303596  77.3173460  82.3738633
  42.5699668  77.8459381  81.6517241  42.6775716  77.6553866  83.1497199
  51.9675473  89.4883951  87.6023013  52.8922021  89.2826813  87.4647464
  51.7990777  89.2400353  88.5112355  44.9247037  75.7010510  91.8241701
  44.5843857  74.9018324  92.2262381  44.2186043  76.0012221  91.2518534
  45.5763508  72.7859823  90.2769024  46.3989578  72.3120301  90.1547914
  45.8201572  73.5650307  90.7767710  44.2171743  75.8148081  80.5731925
  44.9380105  76.1929334  80.0695642  43.5937047  76.5336958  80.6766903
  48.3602866  76.5193230  81.5090258  48.5766480  77.4017868  81.2079086
  47.8796933  76.1279444  80.7795900  43.1002087  79.4778944  88.0861002
  42.9546668  79.7919247  88.9785284  42.6227291  80.0963844  87.5331901
  44.9598470  76.4681491  88.1341892  44.9460039  75.5722585  87.7974190
  45.6770898  76.4752155  88.7680178  46.8124601  76.9018832  90.1795019
  46.5542379  77.8235902  90.1779350  46.2809641  76.5049266  90.8695484
  51.7570789  90.0069619  82.9585105  51.9307667  89.4416041  82.2058957
  52.2499681  90.8070514  82.7764595  37.5747749  82.0184288  91.0248664
  37.0301217  82.7944096  91.1568938  38.4527099  82.3655092  90.8667785
  44.3635366  75.3495872  83.4029462  44.4851277  74.4212518  83.6020350
  44.0737408  75.3634558  82.4907778  47.2326556  73.0350782  86.5396182
  47.2548253  73.0990115  85.5848162  47.6494615  72.1955291  86.7336688
  57.6110181  82.7706042  84.5775405  58.0541327  82.0213367  84.1794528
  56.7336691  82.7616178  84.1949137  52.7445962  89.3236383  80.0582003
  53.4396867  89.9443076  80.2769318  53.0869112  88.4731734  80.3334381
  38.3613771  81.1454184  93.9178820  37.6195507  81.2936820  94.5043451
  38.0406515  81.4062450  93.0545570  46.3057434  90.6870162  93.7159210
  46.6144560  90.4419309  94.5881910  47.1032916  90.8916801  93.2278081
  46.3278046  92.8408072  85.9464587  45.8883036  92.3484451  86.6397444
  47.0786163  92.2981040  85.7056662  38.8070385  89.0319613  85.9489215
  39.6328405  88.7323385  85.5687859  38.4564437  88.2627235  86.3979004
  43.7751918  88.3846081  88.0186889  43.1531927  87.7216786  87.7189117
  44.4456785  88.4107213  87.3360536  37.0078990  86.9505939  86.9078149
  36.1710898  86.5228114  86.7262150  36.9802635  87.1438383  87.8448940
  43.8476445  76.8627869  97.6119395  43.8964601  77.7389992  97.2297164
  44.3898960  76.3205262  97.0391038  54.3331291  87.4068992  96.8920532
  53.5426835  87.3893131  96.3525031  54.0964646  87.9457286  97.6469568
  54.4529166  84.2561459  94.2053260  54.5027171  84.0911466  95.1468783
  54.3443090  83.3888718  93.8151141  43.3365425  86.9350004  81.4945349
  43.4853545  87.6185469  80.8412022  44.1431868  86.9155095  82.0094805
  51.7432929  80.2392387  95.5212567  52.6442791  80.0998852  95.2296565
  51.8180903  80.4046842  96.4610744  46.0775734  77.6159242  94.3665753
  45.2079043  77.9092808  94.0948342  46.3135214  78.1999687  95.0873017
  55.9547363  86.6758400  94.4495282  55.6632171  87.0388381  95.2858743
  55.3419494  85.9625409  94.2708614  57.1543045  84.2411280  86.9697852
  57.9889937  84.6801084  87.1335412  57.2902174  83.7649933  86.1506098
  54.2034551  81.7991015  92.9175340  54.6788673  81.9918661  92.1094191
  53.2800117  81.8550201  92.6718724  41.0918058  82.9615182  82.5006418
  40.8464100  82.0577512  82.6986628  41.2613972  82.9632333  81.5585896
  48.7814768  73.8338858  91.8831174  49.2996712  74.5699885  91.5577662
  48.4269901  74.1402852  92.7177933  40.3613705  78.6943540  79.9992580
  39.6682950  78.7687895  79.3432616  40.1165457  77.9303883  80.5214097
  46.8360830  89.4298135  78.9657097  46.2634797  90.0488322  78.5127569
  47.4093624  89.9797497  79.4997019  52.9036220  78.6756775  91.1503645
  53.8553643  78.7754873  91.1715870  52.7339671  77.8835044  91.6601730
  50.9250600  75.7612358  91.3363046  50.3300532  76.0417371  90.6409535
  50.6400296  76.2506259  92.1079787  50.0558090  89.7135285  80.0965679
  50.9888763  89.6480847  80.2998554  49.9681303  90.5491552  79.6380212
  52.6846107  89.0301155  77.0569627  52.6059738  88.6961019  77.9505384
  53.5055774  89.5222923  77.0561099  55.3824298  81.8962895  90.2645945
  55.3500618  80.9578895  90.4505629  55.9924922  81.9746931  89.5311770
  47.2207629  80.7658948  76.3073149  48.1666734  80.6365156  76.3761567
  46.8421874  80.0273610  76.7842577  55.5318787  78.6873938  90.3104228
  55.0157835  77.9032395  90.1234157  56.4158735  78.3592655  90.4750748
  53.1929513  72.4314954  86.2700041  52.9954335  72.1230042  87.1543373
  53.8029219  73.1576593  86.3997971  61.2000848  82.9578902  89.4051982
  61.9304236  82.6964190  89.9659685  60.5907793  82.2207623  89.4454050
  59.2816145  81.0986764  90.0026433  58.5549309  80.9642729  89.3942925
  58.8663432  81.4063593  90.8083151  47.1046321  84.8176694  97.7673806
  48.0249331  84.9955293  97.9613853  47.0695904  83.8732739  97.6153505
  45.4050546  78.6908924  76.2428034  44.4982001  78.3942037  76.3190748
  45.6826527  78.3938742  75.3762321  36.3228486  80.0115287  86.6927081
  36.0031271  79.1580596  86.4001455  35.7761915  80.2263866  87.4485048
  40.1008394  82.7277728  90.4096587  40.3194404  83.6594836  90.4284621
  40.5134168  82.3685703  91.1951391  44.9736259  78.3010934  99.7999336
  44.8732986  79.2505291  99.7311427  44.7557801  77.9729173  98.9275406
  36.1916746  83.6318199  88.6620202  35.4980218  83.2172152  88.1490157
  36.9389737  83.6738735  88.0653621  52.3281967  74.4224386  83.5275237
  51.7480636  75.0809190  83.1453289  52.0617900  73.6001730  83.1162654
  44.8367529  81.7308073  98.6164398  44.3534611  82.5308433  98.8228287
  44.9228468  81.7416018  97.6631842  38.1053489  83.5636453  86.5386217
  38.0824177  83.6624140  85.5868100  38.4154125  84.4101604  86.8603383
  40.7640867  85.6212608  90.6532832  41.7184120  85.5896550  90.5862763
  40.5653390  85.1603231  91.4683058  41.3540249  84.1913724  93.2203629
  42.1733138  84.6857802  93.2438467  41.6277057  83.2745692  93.1921197
  51.1106845  76.5824476  82.5831585  50.2232700  76.8674127  82.3651780
  51.5260834  76.4218239  81.7358862  56.8993940  77.3198616  87.3559865
  57.4938431  77.0794352  86.6453173  56.9720524  76.6005747  87.9833401
  39.1191096  91.1632227  87.6703030  38.9845564  90.4032628  87.1041028
  38.7023158  91.8873127  87.2031818  50.2550059  86.3469151  76.6779605
  50.9585909  86.5519153  77.2937260  49.5312707  86.9145913  76.9428688
  51.0847869  82.0979012  82.7981875  51.0283070  82.5547563  81.9589507
  51.6376211  81.3369697  82.6204718  54.8952675  77.8868744  83.6231994
  54.6389609  77.4865380  84.4540202  54.2705543  78.6012538  83.4982134
  59.2065013  80.6264817  86.1303286  58.6464571  80.6958006  86.9034848
  58.6008516  80.4505802  85.4102782  42.2760222  92.0601544  87.8821472
  42.1592606  93.0046977  87.7800162  41.4552668  91.7575106  88.2707271
  52.1636756  86.7851680  78.7278065  52.9982360  86.3532878  78.5455540
  52.0021099  86.6133694  79.6554959  51.8182648  83.2883793  80.0934404
  51.7631452  83.1228065  79.1522848  51.1928703  83.9959826  80.2496594
  36.6075163  78.5251858  93.9195826  37.2534027  78.0150812  94.4083052
  36.3992314  79.2620539  94.4939252  49.1328555  85.5932705  99.4187967
  50.0019715  85.7673357  99.0574602  48.6535307  86.4127122  99.2963696
  43.3014736  92.7129806  91.0977401  44.2041982  92.7453416  91.4143896
  43.0752106  91.7830257  91.1123736  45.0568338  91.4660793  87.7587479
  44.1063969  91.4662654  87.6451852  45.3600824  90.7193527  87.2423514
  40.9472654  75.6719475  98.0170841  41.8104116  75.3156280  98.2274165
  40.3738065  75.3333370  98.7046245  60.7921031  97.3021331  88.8233242
  61.4299441  97.1828078  88.1196582  60.6741874  98.2502175  88.8821194
  57.6010737  97.2548759  88.7594766  57.2629249  97.1389824  87.8715301
  58.4700506  96.8539924  88.7395772  53.4597553  99.1084236  84.7491657
  52.8962418  99.0174173  83.9807945  53.3449948  98.2884140  85.2294150
  58.0830520  98.4083611  94.7180972  58.0719161  98.0136409  93.8461476
  58.2451160  97.6749684  95.3114743  51.0061985 100.6035427  87.5875878
  51.7983277 100.2626252  87.1722177  51.2458635 100.7130402  88.5078031
  59.0397112 102.7755203  80.0606122  58.3885092 103.3609284  79.6740136
  59.8341475 103.3061398  80.1201160  52.9652739  99.8644340  80.4593257
  53.7383615  99.3173328  80.3206132  53.3178138 100.7288590  80.6707718
  54.8037782 101.1920723  93.6660156  54.5127648 102.0966354  93.5506822
  55.4394766 101.2337250  94.3804225  55.7293988  98.5697571  90.2561515
  56.3257561  98.3453594  89.5418478  55.7868960  97.8282317  90.8586963
  55.3019017  96.0237007  78.0911706  55.5544537  95.5018528  77.3295169
  54.3643576  95.8603152  78.1938390  60.3462300  95.0272785  85.8986450
  61.1325389  94.6092208  85.5476867  60.6101004  95.9318877  86.0668098
  65.7470727  94.9648018  86.8019428  66.4795899  94.3947235  87.0357258
  64.9910082  94.5769619  87.2425934  55.0215306  97.9265113  80.2936081
  54.9051564  97.2510016  80.9617166  55.1317565  97.4397486  79.4768234
  57.3646846  97.3875260  83.9982771  57.0005054  96.8605881  84.7095692
  58.2213962  96.9973729  83.8249256  63.2696147  88.6769592  91.2614037
  62.9379472  89.5465003  91.0375252  62.6741760  88.3605876  91.9408067
  57.0052333  92.4165159  78.9944119  57.1726736  93.2845396  79.3614590
  56.8149503  92.5792441  78.0705408  59.7627667 100.8782138  90.6609950
  59.4628390 101.7807177  90.5525757  59.4178726 100.6114321  91.5131102
  53.2140148  97.3295935  86.6946654  52.2890645  97.1972149  86.9024346
  53.4624561  98.1090154  87.1916596  63.1624810  93.3964678  88.3407387
  62.2541688  93.3280087  88.0466148  63.1112406  93.8736623  89.1689212
  50.5748959  96.9729209  87.5290443  50.7041340  97.2263688  88.4429855
  49.8946410  97.5656917  87.2095098  54.7448446 107.6426459  83.6280917
  54.6672476 108.5934284  83.7069398  54.1410090 107.2972331  84.2855844
  57.2365676  94.8154324  96.2842284  56.4599010  95.3748244  96.2745149
  57.8756239  95.3011107  96.8057154  55.4912049  97.6239777  95.8460251
  56.2326733  98.1624821  95.5695075  54.7849034  98.2506066  96.0031803
  60.9667388  99.7668918  94.4432413  61.3750744  99.3251328  93.6987045
  60.2444650  99.1921545  94.6966605  57.3198458  94.7041525  91.8165970
  58.1659653  95.1280938  91.9600619  57.2597096  94.0475149  92.5104533
  61.2896203 100.3270108  88.1984701  60.6605065 100.4915823  87.4960769
  60.9021865 100.7411718  88.9695666  65.1685435 101.2624546  85.5529065
  64.4836473 101.6423448  85.0026099  65.2529284 101.8719873  86.2861013
  60.4697904  92.3645893  93.4747143  60.2258835  93.1187953  92.9381419
  60.7457834  92.7431241  94.3094390  62.4236366  98.9084505  92.1524409
  62.6353262  99.5516265  91.4758790  62.3766115  98.0746822  91.6846339
  60.0262595  91.5202326  89.0560981  59.1647074  91.8183580  89.3477718
  60.0525030  91.7372725  88.1242014  56.8424165 100.0644517  85.4634787
  57.3062510 100.3432220  84.6739409  56.5780963  99.1627961  85.2807877
  53.7348246  99.6115998  88.4014550  54.3049603 100.0403266  87.7632034
  54.3256358  99.3298583  89.0998735  55.7793051  96.1867669  82.2724352
  56.4817094  96.6388713  82.7398278  55.4473679  95.5451488  82.9004245
  54.2273412  94.7779426  96.6475561  53.5972073  95.4595706  96.8810958
  54.1209500  94.6662507  95.7028699  49.5218385  94.4451222  87.5741485
  48.7317439  94.7008750  87.0981596  50.0129632  95.2599559  87.6793526
  63.5382194 101.7856461  90.3246766  64.3599638 101.3836648  90.0429448
  63.5344597 101.6824695  91.2762882  51.4733130  94.8095801  84.5324962
  50.6764293  94.9214495  85.0508458  51.2458722  95.1482453  83.6665853
  57.3038798 101.3340504  92.4807477  57.3683230 101.7960911  93.3165648
  56.5949722 100.7037869  92.6089786  47.8056088  94.6981712  90.0056476
  48.0564126  95.5828722  90.2714052  48.3415636  94.5186314  89.2331568
  57.0186815 103.0008612  82.3486457  56.8832490 103.8460147  82.7771305
  57.5596628 103.2027889  81.5852391  53.5054155  89.0800191  99.0100812
  53.1121101  88.5266390  99.6848456  54.3220295  89.3910770  99.4007330
  50.4716213 100.5184050  82.9214382  50.9840733 101.3127300  83.0719947
  51.1238926  99.8210340  82.8547983  52.2811097 103.6349806  85.0037135
  52.4577726 104.5567771  84.8158119  53.0767931 103.3208225  85.4331515
  56.4222116  90.4958070  96.6021069  57.1631829  91.0965224  96.5225531
  56.6540039  89.7535708  96.0439111  51.5663454  95.6814438  94.8799298
  51.4516969  94.7799695  95.1806397  50.7107972  95.9278135  94.5284115
  58.6455292 103.6232178  96.4786799  58.2019146 102.8368557  96.1607704
  59.3072505 103.8111329  95.8130690  53.4042413 105.1527980  91.0047478
  53.9549838 105.0245043  90.2324471  52.5653889 105.4522869  90.6542370
  60.7436530 103.9034978  94.5068200  60.7255005 104.7243859  94.0148469
  61.6656450 103.7789053  94.7318341  57.2009584 101.4179107  95.3491709
  57.7337921 100.6567396  95.1191017  56.6723665 101.1252759  96.0915863
  60.3679279  86.5239173  90.8785350  60.0243548  87.4140815  90.8024461
  60.7358242  86.3340831  90.0154935  48.4365130  98.8472704  83.6973953
  49.2740352  99.2569712  83.4807660  48.6143397  97.9072146  83.6674146
  57.9176673  91.3597485  84.4443024  57.0618269  90.9704336  84.2648663
  58.3303624  91.4389446  83.5842809  59.4475819  88.8943829  88.8434584
  58.9440615  88.8573964  88.0302389  59.7406426  89.8036571  88.9031240
  55.6918705  88.9782558  87.8500765  56.5571702  88.7825367  87.4906655
  55.7596214  88.7492910  88.7770122  58.5662297 100.5465100  82.8610521
  58.0383658  99.8117860  82.5483758  58.0649799 101.3239776  82.6150489
  63.5455143  98.7414120  87.9777567  62.8878817  99.4313382  88.0657696
  64.3495542  99.1310552  88.3211553  53.2981024  91.2084766  85.2217132
  53.8724776  90.9859948  84.4890325  53.8852007  91.2773461  85.9745733
  62.3560601  97.0958493  86.0281509  62.8692483  97.7288485  86.5303218
  63.0061825  96.4959689  85.6624869  53.6250611  93.2389227  79.2413017
  52.7887924  93.5763914  79.5622292  53.4855381  93.1038207  78.3040154
  55.6003692  88.0826015  83.9492202  54.9468104  87.7675032  83.3248816
  55.5584166  87.4601756  84.6752025  59.6182976 107.0742817  78.7842180
  58.9444674 107.3774514  79.3927138  60.0048798 107.8771898  78.4347637
  58.8341432  94.5707949  88.2739849  57.9163994  94.7922896  88.1161537
  59.2501576  94.6454259  87.4151557  59.6176480  95.9699364  83.4042530
  60.3648299  96.4820762  83.0949652  59.8868070  95.6483417  84.2646923
  57.8903130  98.4657905  80.3869484  56.9814350  98.1816938  80.4841954
  57.9198214  98.8856984  79.5272791  63.1222398 102.0764495  84.1560651
  62.6684725 101.2355404  84.2125842  62.4916364 102.7125893  84.4935432
  62.0655317  93.0056481  85.3861319  61.3278074  92.4933867  85.7171561
  62.3182091  92.5656862  84.5744596  61.5655337 103.9140991  85.0910470
  61.8578311 104.4746048  84.3722835  62.0753958 104.2069552  85.8463629
  62.1666945  85.7832733  85.9803088  62.4725821  84.9230096  85.6929003
  62.8919549  86.3750353  85.7802082  48.4591301  96.1863419  84.3684686
  48.2615700  95.5932780  83.6435753  47.9037965  95.8815629  85.0860625
  56.4388024  96.0786526  86.4879279  56.4936634  95.1260362  86.4121756
  55.6279226  96.2345965  86.9720578  54.3780384  94.6963585  84.2469658
  53.5648250  94.9957756  84.6534850  54.8739378  94.3019274  84.9644140
  56.5288962 104.6921342  86.1803923  56.4865141 104.9182189  85.2512455
  57.4451661 104.4584717  86.3289724  59.9754596  95.1605410  93.0784552
  60.3303984  95.3876883  93.9379018  60.6226727  95.4923787  92.4561807
  53.8694459  92.2681941  89.8630893  54.5093838  92.1270700  89.1653856
  53.0371990  91.9816454  89.4869495  65.7321712 100.3500373  88.7945152
  66.1658219 100.2575662  89.6428206  66.4453293 100.3257873  88.1565168
  54.6454763 101.5684371  85.9765885  55.4395361 101.0734692  85.7748460
  53.9346455 101.0402234  85.6133591  59.4649607 103.9502467  90.3278253
  59.5186630 104.5193403  91.0955969  58.5964389 104.1204352  89.9632290
  50.9537526  95.7127453  82.0525638  50.0235114  95.6511909  82.2695600
  51.0494998  95.1903406  81.2562279  50.8723075  92.2382266  84.6403880
  51.1329893  93.1527599  84.5313040  51.6940248  91.7706709  84.7900493
  52.3448001  93.6520023  91.8102704  53.0171054  93.4437385  91.1615353
  51.5177787  93.4542109  91.3707937  66.5937262 100.3924073  91.3278038
  66.7873152 101.2969884  91.5737313  66.4937880  99.9331493  92.1616623
  58.2473573  90.2781964  93.8268365  57.6001488  90.9771914  93.7332842
  59.0174588  90.7118108  94.1944613  61.6552371 100.5430816  96.9018918
  61.5037877 100.3141368  95.9849002  61.6457050 101.5001418  96.9150263
  58.4237707  98.1162729  91.8865185  59.3529767  98.2673889  91.7134152
  58.0028737  98.2046750  91.0313831  57.2226039 102.1413393  89.6563723
  57.0837125 101.7732178  90.5289661  56.4340635 102.6561033  89.4847680
  57.8174191 107.2422490  80.9989259  57.9925947 106.7710533  81.8134882
  57.1306979 107.8688256  81.2270520  58.7731254 101.5194996  87.0452560
  58.4381087 101.4795766  87.9410210  58.2735200 100.8539712  86.5722971
  52.7475498  96.9262626  92.5705141  52.6095296  96.1942865  93.1716681
  53.6580421  96.8371526  92.2889329  55.3757799  96.6382585  92.0588821
  56.0857417  95.9975778  92.0175440  55.3327107  96.8895480  92.9815002
  63.3644577 103.5749939  94.9795400  63.3057124 102.8909159  94.3125983
  63.7664096 104.3168929  94.5276026  54.0886733  93.6247803  93.8784461
  53.5524090  93.1738542  94.5306057  53.5003441  93.7593712  93.1354925
  52.3835276 110.3911853  87.7729119  52.6231874 111.0230377  88.4508138
  51.5404473 110.0399893  88.0594478  53.4988992  93.0836455  76.4410924
  52.6218458  92.9625255  76.0773171  53.9746745  92.2922533  76.1889813
  63.3661985 101.5389523  93.2109380  62.4788763 101.2015444  93.3335779
  63.9360536 100.8072554  93.4478145  45.0191132  97.8713614  86.5352431
  45.7062172  97.5575344  85.9473447  44.8639260  98.7754979  86.2619683
  49.8225854  92.7603811  90.9637455  49.7384043  92.1529481  90.2287865
  49.0008560  93.2512829  90.9646951  56.8963138 106.1990975  90.1770623
  56.8233309 107.0045947  90.6889928  56.4540531 106.3982941  89.3518645
  56.6852918 105.4362745  83.6873445  55.9020440 105.9784425  83.7811669
  57.3845663 105.9536725  84.0867686  59.9949568  91.2457375  86.3307650
  60.4918267  90.4927337  86.0108720  59.2236549  91.2821691  85.7650859
  67.8479325  96.9497740  87.9725942  67.8369201  97.8322455  87.6019875
  66.9796705  96.5969291  87.7780479  59.3561822 106.0977809  92.3328782
  60.0689794 106.7325274  92.2604683  58.8651850 106.1941675  91.5168784
  61.0779348 100.0029062  83.9046074  60.1435627 100.1230524  83.7350778
  61.2556017  99.1001529  83.6406083  56.5784537  93.3874758  86.0579335
  56.2082324  92.8345798  86.7460240  57.0743629  92.7832891  85.5054335
  54.4073735 103.8472253  93.1534353  55.1083195 104.4808735  93.3063747
  53.9368850 104.1886984  92.3929992  62.4368563  88.2126968  88.4787009
  61.5231642  88.4431195  88.6469216  62.8661664  88.2965412  89.3301041
  62.2075021  96.4016860  90.9786903  61.5546471  96.6492767  90.3239356
  62.5855401  95.5880998  90.6449380  59.1682195 106.4376553  85.0815073
  59.3504589 105.6198209  85.5442826  59.9915181 106.6544245  84.6439963
  59.5024360 105.3644738  82.3430122  60.0312127 104.8537193  81.7300284
  59.7652580 105.0487268  83.2075655  58.2562594  97.1436671  97.4652940
  57.5803231  97.0430800  98.1355315  59.0790228  96.9875885  97.9288937
  50.0041453 103.3808608  90.0865455  50.5894890 102.6352295  90.2193360
  49.8066292 103.6912564  90.9702119  52.8580108 106.4159855  85.1027898
  52.1890484 106.9005983  84.6191938  52.7192978 106.6629075  86.0171276
  44.5959108  95.9514208  88.8069899  44.6343207  95.4177798  89.6007017
  44.0899401  95.4249413  88.1880876  56.9985377 108.4503598  91.7010556
  57.5503685 108.6135220  92.4659641  57.3391570 109.0408036  91.0290581
  51.9749870  90.7978748  92.3032441  52.0391197  91.6593579  91.8909839
  51.9116990  90.1852750  91.5704799  51.4502143  92.8701881  95.9505475
  52.0774182  92.4878958  96.5642999  50.5930062  92.6516083  96.3161168
  61.8496251 103.2764856  97.5559211  62.3936155 103.8894814  97.0614165
  61.2683096 103.8344434  98.0726224  48.2267685  94.6778310  81.8823830
  48.5221127  93.7688988  81.8290884  47.3255721  94.6566049  81.5604832
  60.1353764 106.3985574  88.6874238  60.0104904 105.5975314  88.1785184
  60.7932855 106.8931767  88.1988208  51.7561932  92.7534307  87.8651379
  51.0348518  93.3670274  87.7258852  52.5455188  93.2892071  87.7868024
  62.1988673 104.1994594  90.3153788  61.2519008 104.0799945  90.2432115
  62.5471446 103.3117092  90.3980050  54.5588246  90.0888733  94.1392030
  55.0822648  90.3351030  94.9018340  54.3400579  90.9208768  93.7195168
  49.9555527  92.3592408  82.0063155  49.6268233  91.4789787  81.8238261
  50.3094898  92.3040076  82.8939544  59.2035106 103.9947310  86.5158141
  59.0560068 103.0664018  86.6965711  60.0288599 104.0167401  86.0315216
  53.0697350  92.6465377  82.3738633  53.4093423  93.1751299  81.6517241
  53.5169471  92.9845784  83.1497199  62.8069228 104.8175869  87.6023013
  63.7315775 104.6118730  87.4647464  62.6384531 104.5692270  88.5112355
  55.7640791  91.0302428  91.8241701  55.4237611  90.2310241  92.2262381
  55.0579797  91.3304139  91.2518534  56.4157263  88.1151741  90.2769024
  57.2383332  87.6412219  90.1547914  56.6595326  88.8942224  90.7767710
  55.0565497  91.1439999  80.5731925  55.7773860  91.5221252  80.0695642
  54.4330801  91.8628876  80.6766903  53.9395842  94.8070861  88.0861002
  53.7940422  95.1211164  88.9785284  53.4621045  95.4255762  87.5331901
  55.7992224  91.7973409  88.1341892  55.7853793  90.9014502  87.7974190
  56.5164653  91.8044073  88.7680178  57.6518355  92.2310749  90.1795019
  57.3936133  93.1527820  90.1779350  57.1203396  91.8341184  90.8695484
  62.5964544 105.3361536  82.9585105  62.7701421 104.7707959  82.2058957
  63.0893435 106.1362431  82.7764595  48.4141504  97.3476206  91.0248664
  47.8694972  98.1236014  91.1568938  49.2920854  97.6947010  90.8667785
  55.2029120  90.6787789  83.4029462  55.3245032  89.7504436  83.6020350
  54.9131163  90.6926475  82.4907778  58.0720311  88.3642700  86.5396182
  58.0942008  88.4282033  85.5848162  58.4888370  87.5247209  86.7336688
  63.5839716 104.6528301  80.0582003  64.2790621 105.2734994  80.2769318
  63.9262867 103.8023652  80.3334381  49.2007526  96.4746102  93.9178820
  48.4589262  96.6228737  94.5043451  48.8800270  96.7354367  93.0545570
  57.1451188 106.0162080  93.7159210  57.4538315 105.7711227  94.5881910
  57.9426670 106.2208719  93.2278081  57.1671800 108.1699990  85.9464587
  56.7276791 107.6776368  86.6397444  57.9179917 107.6272957  85.7056662
  49.6464139 104.3611531  85.9489215  50.4722159 104.0615302  85.5687859
  49.2958191 103.5919153  86.3979004  54.6145672 103.7137999  88.0186889
  53.9925682 103.0508704  87.7189117  55.2850539 103.7399131  87.3360536
  47.8472744 102.2797857  86.9078149  47.0104653 101.8520031  86.7262150
  47.8196390 102.4730300  87.8448940  54.6870200  92.1919787  97.6119395
  54.7358355  93.0681910  97.2297164  55.2292714  91.6497180  97.0391038
  65.1725046 102.7360910  96.8920532  64.3820589 102.7185049  96.3525031
  64.9358400 103.2749204  97.6469568  65.2922921  99.5853376  94.2053260
  65.3420926  99.4203384  95.1468783  65.1836844  98.7180635  93.8151141
  54.1759179 102.2641922  81.4945349  54.3247300 102.9477387  80.8412022
  54.9825623 102.2447012  82.0094805  62.5826683  95.5684304  95.5212567
  63.4836546  95.4290769  95.2296565  62.6574658  95.7338759  96.4610744
  56.9169488  92.9451159  94.3665753  56.0472798  93.2384725  94.0948342
  57.1528969  93.5291604  95.0873017  66.7941118 102.0050318  94.4495282
  66.5025926 102.3680299  95.2858743  66.1813249 101.2917326  94.2708614
  67.9936800  99.5703198  86.9697852  68.8283691 100.0093002  87.1335412
  68.1295929  99.0941851  86.1506098  51.9311812  98.2907100  82.5006418
  51.6857854  97.3869430  82.6986628  52.1007727  98.2924250  81.5585896
  59.6208522  89.1630776  91.8831174  60.1390466  89.8991803  91.5577662
  59.2663655  89.4694769  92.7177933  51.2007460  94.0235457  79.9992580
  50.5076705  94.0979812  79.3432616  50.9559212  93.2595801  80.5214097
  59.8721116  85.5831059  87.4032070  60.1522870  84.9154248  88.0292497
  60.6571723  85.7760154  86.8906734  57.6754585 104.7590053  78.9657097
  57.1028552 105.3780240  78.5127569  58.2487379 105.3089414  79.4997019
  61.7644354  91.0904276  91.3363046  61.1694286  91.3709289  90.6409535
  61.4794051  91.5798177  92.1079787  60.8951845 105.0427203  80.0965679
  61.8282518 104.9772764  80.2998554  60.8075058 105.8783470  79.6380212
  63.5239861 104.3593073  77.0569627  63.4453493 104.0252937  77.9505384
  64.3449528 104.8514841  77.0561099  57.9440076 100.1468611  97.7673806
  58.8643085 100.3247210  97.9613853  57.9089659  99.2024657  97.6153505
  47.1622241  95.3407205  86.6927081  46.8425025  94.4872513  86.4001455
  46.6155669  95.5555783  87.4485048  50.9402148  98.0569646  90.4096587
  51.1588158  98.9886754  90.4284621  51.3527922  97.6977621  91.1951391
  59.7896915  87.6415778  84.0196572  60.3427953  88.0611232  84.6786595
  60.0267001  86.7151526  84.0619528  55.8130014  93.6302852  99.7999336
  55.7126741  94.5797209  99.7311427  55.5951556  93.3021091  98.9275406
  55.0143085  90.8787777  76.3840014  55.8762249  91.2042675  76.6435831
  55.1993429  90.0919273  75.8713079  47.0310501  98.9610117  88.6620202
  46.3373972  98.5464069  88.1490157  47.7783492  99.0030653  88.0653621
  61.6179288  89.1521361  85.7296557  62.1179066  89.2637896  84.9210876
  62.2614896  88.8482414  86.3697365  55.6761284  97.0599991  98.6164398
  55.1928366  97.8600351  98.8228287  55.7622223  97.0707936  97.6631842
  48.9447243  98.8928370  86.5386217  48.9217932  98.9916058  85.5868100
  49.2547880  99.7393521  86.8603383  51.6034621 100.9504525  90.6532832
  52.5577875 100.9188468  90.5862763  51.4047145 100.4895149  91.4683058
  52.1934003  99.5205641  93.2203629  53.0126892 100.0149720  93.2438467
  52.4670811  98.6037610  93.1921197  67.7387694  92.6490534  87.3559865
  68.3332185  92.4086270  86.6453173  67.8114278  91.9297665  87.9833401
  49.9584850 106.4924145  87.6703030  49.8239318 105.7324546  87.1041028
  49.5416912 107.2165045  87.2031818  70.0458767  95.9556735  86.1303286
  69.4858325  96.0249924  86.9034848  69.4402271  95.7797719  85.4102782
  53.1153976 107.3893462  87.8821472  52.9986360 108.3338894  87.7800162
  52.2946422 107.0867023  88.2707271  47.4468918  93.8543775  93.9195826
  48.0927781  93.3442729  94.4083052  47.2386069  94.5912457  94.4939252
  59.9722310 100.9224623  99.4187967  60.8413470 101.0965275  99.0574602
  59.4929061 101.7419040  99.2963696  54.1408490 108.0421724  91.0977401
  55.0435737 108.0745334  91.4143896  53.9145860 107.1122175  91.1123736
  55.8962092 106.7952710  87.7587479  54.9457723 106.7954572  87.6451852
  56.1994578 106.0485445  87.2423514  59.7824648  84.7126597  83.9265659
  59.0157043  84.1585083  84.0722342  60.1935353  84.7848465  84.7879811
  51.7866409  91.0011392  98.0170841  52.6497870  90.6448197  98.2274165
  51.2131819  90.6625287  98.7046245  64.2991308 114.4376153  84.7491657
  63.7356173 114.3466090  83.9807945  64.1843703 113.6176058  85.2294150
  61.8455740 115.9327345  87.5875878  62.6377031 115.5918170  87.1722177
  62.0852390 116.0422320  88.5078031  69.8790866 118.1047121  80.0606122
  69.2278846 118.6901201  79.6740136  70.6735229 118.6353316  80.1201160
  63.8046493 115.1936258  80.4593257  64.5777369 114.6465245  80.3206132
  64.1571892 116.0580507  80.6707718  65.6431536 116.5212640  93.6660156
  65.3521402 117.4258271  93.5506822  66.2788520 116.5629168  94.3804225
  66.1412771 111.3528924  78.0911706  66.3938292 110.8310446  77.3295169
  65.2037330 111.1895070  78.1938390  65.8609060 113.2557030  80.2936081
  65.7445318 112.5801934  80.9617166  65.9711320 112.7689404  79.4768234
  67.8446088 107.7457077  78.9944119  68.0120490 108.6137313  79.3614590
  67.6543257 107.9084359  78.0705408  64.0533903 112.6587853  86.6946654
  63.1284399 112.5264067  86.9024346  64.3018316 113.4382072  87.1916596
  67.8235309 110.2014735  79.9790786  67.7034934 110.6471785  80.8176266
  67.1287897 110.5500052  79.4204324  61.4142714 112.3021126  87.5290443
  61.5435095 112.5555605  88.4429855  60.7340165 112.8948834  87.2095098
  65.5842201 122.9718376  83.6280917  65.5066231 123.9226201  83.7069398
  64.9803845 122.6264249  84.2855844  68.0759431 110.1446242  96.2842284
  67.2992765 110.7040162  96.2745149  68.7149994 110.6303025  96.8057154
  66.3305803 112.9531695  95.8460251  67.0720487 113.4916739  95.5695075
  65.6242788 113.5797984  96.0031803  64.5742000 114.9407916  88.4014550
  65.1443357 115.3695184  87.7632034  65.1650112 114.6590500  89.0998735
  66.6186805 111.5159587  82.2724352  67.3210849 111.9680630  82.7398278
  66.2867434 110.8743405  82.9004245  65.0667167 110.1071343  96.6475561
  64.4365827 110.7887624  96.8810958  64.9603255 109.9954425  95.7028699
  60.3612139 109.7743139  87.5741485  59.5711193 110.0300668  87.0981596
  60.8523387 110.5891477  87.6793526  62.3126885 110.1387719  84.5324962
  61.5158048 110.2506413  85.0508458  62.0852477 110.4774371  83.6665853
  58.6449842 110.0273630  90.0056476  58.8957881 110.9120640  90.2714052
  59.1809391 109.8478231  89.2331568  64.3447909 104.4092109  99.0100812
  63.9514855 103.8558308  99.6848456  65.1614050 104.7202688  99.4007330
  61.3109967 115.8475967  82.9214382  61.8234488 116.6419218  83.0719947
  61.9632680 115.1502258  82.8547983  63.1204852 118.9641724  85.0037135
  63.2971480 119.8859688  84.8158119  63.9161685 118.6500143  85.4331515
  67.2615870 105.8249988  96.6021069  68.0025584 106.4257141  96.5225531
  67.4933793 105.0827626  96.0439111  62.4057208 111.0106355  94.8799298
  62.2910724 110.1091613  95.1806397  61.5501726 111.2570052  94.5284115
  69.4849046 118.9524096  96.4786799  69.0412900 118.1660474  96.1607704
  70.1466260 119.1403246  95.8130690  64.2436167 120.4819897  91.0047478
  64.7943593 120.3536961  90.2324471  63.4047643 120.7814786  90.6542370
  68.0403338 116.7471025  95.3491709  68.5731675 115.9859313  95.1191017
  67.5117420 116.4544677  96.0915863  59.2758884 114.1764622  83.6973953
  60.1134106 114.5861630  83.4807660  59.4537152 113.2364064  83.6674146
  68.7570427 106.6889403  84.4443024  67.9012024 106.2996253  84.2648663
  69.1697379 106.7681364  83.5842809  66.5312460 104.3074476  87.8500765
  67.3965456 104.1117285  87.4906655  66.5989969 104.0784828  88.7770122
  64.1374779 106.5376684  85.2217132  64.7118531 106.3151865  84.4890325
  64.7245761 106.6065378  85.9745733  64.4644366 108.5681145  79.2413017
  63.6281678 108.9055831  79.5622292  64.3249136 108.4330125  78.3040154
  67.5508651 113.6937228  75.8645494  66.6435713 113.4626481  76.0636643
  68.0479683 112.8974847  76.0519475  70.4576730 122.4034735  78.7842180
  69.7838429 122.7066432  79.3927138  70.8442552 123.2063815  78.4347637
  59.2985055 111.5155337  84.3684686  59.1009455 110.9224698  83.6435753
  58.7431719 111.2107547  85.0860625  68.4272973 115.3358566  77.7257562
  67.9892402 114.6194425  77.2663200  69.1683413 115.5634681  77.1642654
  65.2174139 110.0255503  84.2469658  64.4042004 110.3249674  84.6534850
  65.7133133 109.6311192  84.9644140  61.7931281 111.0419371  82.0525638
  60.8628869 110.9803826  82.2695600  61.8888753 110.5195324  81.2562279
  61.7116830 107.5674184  84.6403880  61.9723647 108.4819517  84.5313040
  62.5334002 107.0998626  84.7900493  63.1841755 108.9811941  91.8102704
  63.8564809 108.7729303  91.1615353  62.3571542 108.7834027  91.3707937
  68.6567945 122.5714407  80.9989259  68.8319701 122.1002451  81.8134882
  67.9700733 123.1980174  81.2270520  63.5869252 112.2554544  92.5705141
  63.4489050 111.5234783  93.1716681  64.4974176 112.1663444  92.2889329
  64.9280487 108.9539721  93.8784461  64.3917844 108.5030459  94.5306057
  64.3397196 109.0885630  93.1354925  63.2229031 125.7203770  87.7729119
  63.4625629 126.3522294  88.4508138  62.3798227 125.3691810  88.0594478
  64.3382746 108.4128372  76.4410924  63.4612212 108.2917173  76.0773171
  64.8140499 107.6214451  76.1889813  55.8584886 113.2005532  86.5352431
  56.5455926 112.8867262  85.9473447  55.7033015 114.1046897  86.2619683
  60.6619608 108.0895729  90.9637455  60.5777797 107.4821398  90.2287865
  59.8402315 108.5804747  90.9646951  67.7356893 121.5282893  90.1770623
  67.6627064 122.3337864  90.6889928  67.2934286 121.7274859  89.3518645
  67.4178291 108.7166675  86.0579335  67.0476079 108.1637716  86.7460240
  67.9137383 108.1124809  85.5054335  65.2467490 119.1764170  93.1534353
  65.9476949 119.8100653  93.3063747  64.7762605 119.5178902  92.3929992
  69.0956349 112.4728589  97.4652940  68.4196986 112.3722718  98.1355315
  69.9183982 112.3167802  97.9288937  60.8435208 118.7100525  90.0865455
  61.4288644 117.9644213  90.2193360  60.6460046 119.0204482  90.9702119
  63.6973863 121.7451773  85.1027898  63.0284238 122.2297900  84.6191938
  63.5586733 121.9920993  86.0171276  55.4352862 111.2806125  88.8069899
  55.4736962 110.7469716  89.6007017  54.9293155 110.7541331  88.1880876
  67.8379131 123.7795516  91.7010556  68.3897439 123.9427138  92.4659641
  68.1785325 124.3699954  91.0290581  62.8143625 106.1270666  92.3032441
  62.8784951 106.9885497  91.8909839  62.7510745 105.5144668  91.5704799
  62.2895897 108.1993799  95.9505475  62.9167936 107.8170876  96.5642999
  61.4323816 107.9808000  96.3161168  59.0661440 110.0070228  81.8823830
  59.3614881 109.0980906  81.8290884  58.1649476 109.9857967  81.5604832
  62.5955687 108.0826224  87.8651379  61.8742273 108.6962192  87.7258852
  63.3848943 108.6183989  87.7868024  65.3982000 105.4180651  94.1392030
  65.9216402 105.6642947  94.9018340  65.1794334 106.2500685  93.7195168
  60.7949282 107.6884325  82.0063155  60.4661988 106.8081704  81.8238261
  61.1488652 107.6331994  82.8939544  63.9091105 107.9757295  82.3738633
  64.2487177 108.5043216  81.6517241  64.3563225 108.3137701  83.1497199
  65.8959252 106.4731917  80.5731925  66.6167614 106.8513169  80.0695642
  65.2724556 107.1920793  80.6766903  70.0390375 107.1777066  81.5090258
  70.2553989 108.0601704  81.2079086  69.5584442 106.7863279  80.7795900
  64.7789596 110.1362779  88.0861002  64.6334177 110.4503082  88.9785284
  64.3014800 110.7547679  87.5331901  59.2535258 112.6768123  91.0248664
  58.7088726 113.4527931  91.1568938  60.1314608 113.0238928  90.8667785
  66.0422875 106.0079707  83.4029462  66.1638786 105.0796353  83.6020350
  65.7524917 106.0218393  82.4907778  68.9114065 103.6934618  86.5396182
  68.9335762 103.7573951  85.5848162  69.3282124 102.8539126  86.7336688
  60.0401280 111.8038020  93.9178820  59.2983016 111.9520655  94.5043451
  59.7194024 112.0646285  93.0545570  67.9844943 121.3453998  93.7159210
  68.2932069 121.1003145  94.5881910  68.7820425 121.5500636  93.2278081
  68.0065555 123.4991907  85.9464587  67.5670545 123.0068286  86.6397444
  68.7573672 122.9564875  85.7056662  60.4857894 119.6903448  85.9489215
  61.3115914 119.3907220  85.5687859  60.1351946 118.9211071  86.3979004
  58.6866499 117.6089775  86.9078149  57.8498407 117.1811949  86.7262150
  58.6590144 117.8022218  87.8448940  65.5263954 107.5211704  97.6119395
  65.5752110 108.3973827  97.2297164  66.0686469 106.9789098  97.0391038
  65.0152934 117.5933840  81.4945349  65.1641054 118.2769304  80.8412022
  65.8219377 117.5738930  82.0094805  67.7563243 108.2743077  94.3665753
  66.8866552 108.5676643  94.0948342  67.9922723 108.8583522  95.0873017
  62.7705567 113.6199017  82.5006418  62.5251609 112.7161347  82.6986628
  62.9401481 113.6216168  81.5585896  62.0401214 109.3527375  79.9992580
  61.3470459 109.4271730  79.3432616  61.7952966 108.5887719  80.5214097
  68.5148339 120.0881970  78.9657097  67.9422306 120.7072157  78.5127569
  69.0881133 120.6381332  79.4997019  68.8995138 111.4242783  76.3073149
  69.8454243 111.2948991  76.3761567  68.5209383 110.6857445  76.7842577
  68.7833830 115.4760529  97.7673806  69.7036840 115.6539128  97.9613853
  68.7483413 114.5316574  97.6153505  58.0015995 110.6699123  86.6927081
  57.6818780 109.8164431  86.4001455  57.4549424 110.8847701  87.4485048
  61.7795903 113.3861564  90.4096587  61.9981913 114.3178672  90.4284621
  62.1921677 113.0269538  91.1951391  68.7000121 103.8929649  82.3972276
  67.8900849 103.5476734  82.7727522  69.3884538 103.5837193  82.9859887
  66.6523768 108.9594770  99.7999336  66.5520495 109.9089127  99.7311427
  66.4345310 108.6313008  98.9275406  65.8536840 106.2079695  76.3840014
  66.7156004 106.5334593  76.6435831  66.0387184 105.4211191  75.8713079
  57.8704255 114.2902034  88.6620202  57.1767727 113.8755987  88.1490157
  58.6177246 114.3322571  88.0653621  66.5155038 112.3891908  98.6164398
  66.0322120 113.1892269  98.8228287  66.6015977 112.3999853  97.6631842
  59.7840998 114.2220288  86.5386217  59.7611686 114.3207975  85.5868100
  60.0941634 115.0685439  86.8603383  62.4428376 116.2796443  90.6532832
  63.3971629 116.2480385  90.5862763  62.2440899 115.8187067  91.4683058
  63.0327758 114.8497559  93.2203629  63.8520647 115.3441638  93.2438467
  63.3064566 113.9329527  93.1921197  60.7978605 121.8216063  87.6703030
  60.6633073 121.0616463  87.1041028  60.3810667 122.5456962  87.2031818
  71.9337568 117.0052986  76.6779605  72.6373418 117.2102989  77.2937260
  71.2100216 117.5729748  76.9428688  63.9547730 122.7185380  87.8821472
  63.8380115 123.6630812  87.7800162  63.1340177 122.4158941  88.2707271
  58.2862672 109.1835693  93.9195826  58.9321536 108.6734647  94.4083052
  58.0779823 109.9204375  94.4939252  66.8066283 103.4475738  79.6719723
  66.7944952 104.3917578  79.8287993  67.6989705 103.2645883  79.3779184
  64.9802245 123.3713642  91.0977401  65.8829491 123.4037252  91.4143896
  64.7539615 122.4414092  91.1123736  66.7355847 122.1244628  87.7587479
  65.7851478 122.1246490  87.6451852  67.0388333 121.3777363  87.2423514
  62.6260163 106.3303310  98.0170841  63.4891625 105.9740115  98.2274165
  62.0525574 105.9917205  98.7046245  82.4708540 127.9605166  88.8233242
  83.1086950 127.8411914  88.1196582  82.3529383 128.9086010  88.8821194
  79.2798246 127.9132595  88.7594766  78.9416758 127.7973659  87.8715301
  80.1488015 127.5123760  88.7395772  75.1385062 129.7668071  84.7491657
  74.5749927 129.6758008  83.9807945  75.0237457 128.9467975  85.2294150
  72.6849494 131.2619263  87.5875878  73.4770786 130.9210087  87.1722177
  72.9246144 131.3714238  88.5078031  74.6440248 130.5228176  80.4593257
  75.4171124 129.9757163  80.3206132  74.9965647 131.3872425  80.6707718
  76.4825291 131.8504558  93.6660156  76.1915157 132.7550189  93.5506822
  77.1182275 131.8921086  94.3804225  76.7002815 128.5848948  80.2936081
  76.5839073 127.9093851  80.9617166  76.8105074 128.0981322  79.4768234
  79.0434355 128.0459095  83.9982771  78.6792563 127.5189716  84.7095692
  79.9001471 127.6557564  83.8249256  81.4415176 131.5365974  90.6609950
  81.1415899 132.4391012  90.5525757  81.0966235 131.2698157  91.5131102
  74.8927657 127.9879770  86.6946654  73.9678154 127.8555985  86.9024346
  75.1412070 128.7673990  87.1916596  72.2536468 127.6313044  87.5290443
  72.3828849 127.8847523  88.4429855  71.5733919 128.2240752  87.2095098
  76.4235955 138.3010294  83.6280917  76.3459985 139.2518119  83.7069398
  75.8197599 137.9556166  84.2855844  82.9683712 130.9853944  88.1984701
  82.3392574 131.1499658  87.4960769  82.5809374 131.3995553  88.9695666
  75.4135755 130.2699833  88.4014550  75.9837112 130.6987102  87.7632034
  76.0043867 129.9882418  89.0998735  77.4580560 126.8451504  82.2724352
  78.1604603 127.2972548  82.7398278  77.1261188 126.2035323  82.9004245
  71.2005894 125.1035057  87.5741485  70.4104948 125.3592585  87.0981596
  71.6917141 125.9183395  87.6793526  85.2169703 132.4440296  90.3246766
  86.0387147 132.0420483  90.0429448  85.2132106 132.3408530  91.2762882
  73.1520639 125.4679636  84.5324962  72.3551802 125.5798330  85.0508458
  72.9246231 125.8066288  83.6665853  78.9826307 131.9924339  92.4807477
  79.0470739 132.4544747  93.3165648  78.2737231 131.3621704  92.6089786
  69.4843597 125.3565547  90.0056476  69.7351635 126.2412557  90.2714052
  70.0203145 125.1770149  89.2331568  78.6974324 133.6592447  82.3486457
  78.5619999 134.5043983  82.7771305  79.2384137 133.8611725  81.5852391
  72.1503722 131.1767885  82.9214382  72.6628242 131.9711135  83.0719947
  72.8026435 130.4794175  82.8547983  73.9598606 134.2933641  85.0037135
  74.1365235 135.2151606  84.8158119  74.7555440 133.9792060  85.4331515
  73.2450963 126.3398273  94.8799298  73.1304478 125.4383530  95.1806397
  72.3895481 126.5861970  94.5284115  80.3242801 134.2816013  96.4786799
  79.8806655 133.4952392  96.1607704  80.9860014 134.4695164  95.8130690
  75.0829922 135.8111815  91.0047478  75.6337347 135.6828878  90.2324471
  74.2441398 136.1106704  90.6542370  82.4224039 134.5618813  94.5068200
  82.4042514 135.3827694  94.0148469  83.3443959 134.4372889  94.7318341
  78.8797093 132.0762943  95.3491709  79.4125430 131.3151231  95.1191017
  78.3511174 131.7836595  96.0915863  70.1152639 129.5056539  83.6973953
  70.9527861 129.9153548  83.4807660  70.2930906 128.5655981  83.6674146
  80.2449806 131.2048935  82.8610521  79.7171167 130.4701695  82.5483758
  79.7437308 131.9823612  82.6150489  75.3038120 123.8973063  79.2413017
  74.4675433 124.2347749  79.5622292  75.1642890 123.7622042  78.3040154
  70.1378810 126.8447255  84.3684686  69.9403209 126.2516615  83.6435753
  69.5825474 126.5399465  85.0860625  78.2076471 135.3505178  86.1803923
  78.1652650 135.5766024  85.2512455  79.1239170 135.1168552  86.3289724
  76.3242272 132.2268207  85.9765885  77.1182870 131.7318527  85.7748460
  75.6133964 131.6986070  85.6133591  81.1437116 134.6086302  90.3278253
  81.1974139 135.1777239  91.0955969  80.2751898 134.7788187  89.9632290
  72.6325035 126.3711288  82.0525638  71.7022623 126.3095744  82.2695600
  72.7282507 125.8487241  81.2562279  74.0235510 124.3103858  91.8102704
  74.6958563 124.1021221  91.1615353  73.1965296 124.1125944  91.3707937
  88.2724771 131.0507909  91.3278038  88.4660661 131.9553719  91.5737313
  88.1725389 130.5915328  92.1616623  78.9013548 132.7997229  89.6563723
  78.7624634 132.4316013  90.5289661  78.1128144 133.3144868  89.4847680
  80.4518763 132.1778831  87.0452560  80.1168596 132.1379601  87.9410210
  79.9522709 131.5123547  86.5722971  74.4263007 127.5846461  92.5705141
  74.2882805 126.8526700  93.1716681  75.3367930 127.4955362  92.2889329
  85.0432086 134.2333774  94.9795400  84.9844632 133.5492994  94.3125983
  85.4451605 134.9752764  94.5276026  74.0622785 141.0495688  87.7729119
  74.3019383 141.6814212  88.4508138  73.2191982 140.6983728  88.0594478
  75.1776501 123.7420290  76.4410924  74.3005967 123.6209091  76.0773171
  75.6534254 122.9506368  76.1889813  85.0449494 132.1973358  93.2109380
  84.1576272 131.8599280  93.3335779  85.6148045 131.4656389  93.4478145
  66.6978641 128.5297450  86.5352431  67.3849681 128.2159180  85.9473447
  66.5426769 129.4338814  86.2619683  71.5013363 123.4187646  90.9637455
  71.4171552 122.8113316  90.2287865  70.6796069 123.9096665  90.9646951
  78.5750647 136.8574810  90.1770623  78.5020818 137.6629782  90.6889928
  78.1328040 137.0566776  89.3518645  78.3640427 136.0946580  83.6873445
  77.5807949 136.6368261  83.7811669  79.0633172 136.6120560  84.0867686
  81.0349331 136.7561644  92.3328782  81.7477303 137.3909109  92.2604683
  80.5439359 136.8525510  91.5168784  76.0861244 134.5056088  93.1534353
  76.7870704 135.1392571  93.3063747  75.6156359 134.8470819  92.3929992
  80.8469704 137.0960389  85.0815073  81.0292098 136.2782044  85.5442826
  81.6702690 137.3128081  84.6439963  71.6828962 134.0392443  90.0865455
  72.2682399 133.2936131  90.2193360  71.4853801 134.3496400  90.9702119
  74.5367617 137.0743690  85.1027898  73.8677993 137.5589818  84.6191938
  74.3980487 137.3212911  86.0171276  66.2746617 126.6098043  88.8069899
  66.3130716 126.0761634  89.6007017  65.7686910 126.0833249  88.1880876
  78.6772886 139.1087434  91.7010556  79.2291194 139.2719055  92.4659641
  79.0179079 139.6991872  91.0290581  73.1289652 123.5285716  95.9505475
  73.7561690 123.1462793  96.5642999  72.2717571 123.3099918  96.3161168
  83.5283760 133.9348691  97.5559211  84.0723664 134.5478650  97.0614165
  82.9470605 134.4928270  98.0726224  69.9055194 125.3362145  81.8823830
  70.2008636 124.4272824  81.8290884  69.0043230 125.3149885  81.5604832
  81.8141273 137.0569409  88.6874238  81.6892413 136.2559149  88.1785184
  82.4720364 137.5515603  88.1988208  73.4349441 123.4118142  87.8651379
  72.7136027 124.0254110  87.7258852  74.2242697 123.9475907  87.7868024
  83.8776182 134.8578429  90.3153788  82.9306517 134.7383781  90.2432115
  84.2258955 133.9700927  90.3980050  80.8822615 134.6531146  86.5158141
  80.7347577 133.7247853  86.6965711  81.7076108 134.6751236  86.0315216
  84.4856737 135.4759704  87.6023013  85.4103284 135.2702566  87.4647464
  84.3172040 135.2276106  88.5112355  70.0929013 128.0060041  91.0248664
  69.5482481 128.7819849  91.1568938  70.9708363 128.3530845  90.8667785
  70.8795035 127.1329937  93.9178820  70.1376771 127.2812573  94.5043451
  70.5587779 127.3938203  93.0545570  78.8238697 136.6745915  93.7159210
  79.1325824 136.4295062  94.5881910  79.6214179 136.8792554  93.2278081
  78.8459309 138.8283825  85.9464587  78.4064300 138.3360204  86.6397444
  79.5967426 138.2856793  85.7056662  71.3251648 135.0195366  85.9489215
  72.1509668 134.7199138  85.5687859  70.9745700 134.2502988  86.3979004
  76.2933181 134.3721834  88.0186889  75.6713191 133.7092539  87.7189117
  76.9638048 134.3982966  87.3360536  69.5260253 132.9381692  86.9078149
  68.6892162 132.5103867  86.7262150  69.4983899 133.1314136  87.8448940
  86.8512555 133.3944745  96.8920532  86.0608098 133.3768884  96.3525031
  86.6145909 133.9333039  97.6469568  86.9710430 130.2437212  94.2053260
  87.0208435 130.0787219  95.1468783  86.8624353 129.3764471  93.8151141
  75.8546688 132.9225757  81.4945349  76.0034809 133.6061222  80.8412022
  76.6613132 132.9030848  82.0094805  88.4728626 132.6634153  94.4495282
  88.1813435 133.0264134  95.2858743  87.8600758 131.9501162  94.2708614
  86.7215815 127.7866768  92.9175340  87.1969936 127.9794414  92.1094191
  85.7981380 127.8425954  92.6718724  73.6099321 128.9490935  82.5006418
  73.3645363 128.0453265  82.6986628  73.7795236 128.9508086  81.5585896
  72.8794969 124.6819293  79.9992580  72.1864214 124.7563648  79.3432616
  72.6346721 123.9179636  80.5214097  77.9231810 124.6784677  76.2428034
  77.0163265 124.3817790  76.3190748  78.2007791 124.3814495  75.3762321
  68.8409750 125.9991040  86.6927081  68.5212534 125.1456349  86.4001455
  68.2943178 126.2139619  87.4485048  72.6189657 128.7153481  90.4096587
  72.8375667 129.6470589  90.4284621  73.0315431 128.3561456  91.1951391
  68.7098010 129.6193952  88.6620202  68.0161481 129.2047905  88.1490157
  69.4571001 129.6614488  88.0653621  70.6234752 129.5512206  86.5386217
  70.6005441 129.6499893  85.5868100  70.9335389 130.3977357  86.8603383
  73.2822130 131.6088361  90.6532832  74.2365384 131.5772303  90.5862763
  73.0834654 131.1478985  91.4683058  73.8721512 130.1789477  93.2203629
  74.6914401 130.6733555  93.2438467  74.1458320 129.2621445  93.1921197
  71.6372359 137.1507980  87.6703030  71.5026827 136.3908381  87.1041028
  71.2204421 137.8748880  87.2031818  74.7941485 138.0477297  87.8821472
  74.6773869 138.9922730  87.7800162  73.9733931 137.7450859  88.2707271
  69.1256427 124.5127611  93.9195826  69.7715290 124.0026565  94.4083052
  68.9173578 125.2496292  94.4939252  75.8195999 138.7005559  91.0977401
  76.7223246 138.7329169  91.4143896  75.5933369 137.7706010  91.1123736
  77.5749601 137.4536546  87.7587479  76.6245232 137.4538407  87.6451852
  77.8782087 136.7069280  87.2423514  73.4653918 121.6595228  98.0170841
  74.3285379 121.3032033  98.2274165  72.8919328 121.3209123  98.7046245
  93.3102295 143.2897084  88.8233242  93.9480705 143.1703831  88.1196582
  93.1923137 144.2377928  88.8821194  90.1192001 143.2424512  88.7594766
  89.7810512 143.1265577  87.8715301  90.9881769 142.8415677  88.7395772
  85.9778817 145.0959989  84.7491657  85.4143682 145.0049926  83.9807945
  85.8631212 144.2759893  85.2294150  90.6011784 144.3959364  94.7180972
  90.5900425 144.0012162  93.8461476  90.7632423 143.6625437  95.3114743
  83.5243249 146.5911180  87.5875878  84.3164540 146.2502005  87.1722177
  83.7639899 146.7006155  88.5078031  91.5578375 148.7630956  80.0606122
  90.9066355 149.3485037  79.6740136  92.3522738 149.2937151  80.1201160
  85.4834002 145.8520093  80.4593257  86.2564878 145.3049081  80.3206132
  85.8359401 146.7164343  80.6707718  87.3219045 147.1796476  93.6660156
  87.0308911 148.0842107  93.5506822  87.9576029 147.2213003  94.3804225
  88.2475252 144.5573324  90.2561515  88.8438824 144.3329347  89.5418478
  88.3050223 143.8158070  90.8586963  87.8200280 142.0112760  78.0911706
  88.0725801 141.4894281  77.3295169  86.8824839 141.8478905  78.1938390
  92.8643563 141.0148538  85.8986450  93.6506652 140.5967961  85.5476867
  93.1282267 141.9194630  86.0668098  93.0353640 146.4521388  80.5975106
  92.3999473 146.5256015  81.3096011  92.7051047 147.0414987  79.9194186
  98.2651990 140.9523771  86.8019428  98.9977162 140.3822988  87.0357258
  97.5091346 140.5645372  87.2425934  87.5396569 143.9140866  80.2936081
  87.4232827 143.2385769  80.9617166  87.6498829 143.4273239  79.4768234
  89.8828110 143.3751013  83.9982771  89.5186317 142.8481634  84.7095692
  90.7395226 142.9849482  83.8249256  95.7877411 134.6645345  91.2614037
  95.4560735 135.5340756  91.0375252  95.1923024 134.3481629  91.9408067
  89.5233597 138.4040912  78.9944119  89.6907999 139.2721149  79.3614590
  89.3330766 138.5668194  78.0705408  92.2808930 146.8657891  90.6609950
  91.9809653 147.7682930  90.5525757  91.9359990 146.5990074  91.5131102
  85.7321412 143.3171688  86.6946654  84.8071908 143.1847902  86.9024346
  85.9805825 144.0965907  87.1916596  95.6806074 139.3840431  88.3407387
  94.7722951 139.3155840  88.0466148  95.6293670 139.8612376  89.1689212
  89.5022818 140.8598570  79.9790786  89.3822443 141.3055621  80.8176266
  88.8075406 141.2083888  79.4204324  83.0930223 142.9604962  87.5290443
  83.2222604 143.2139441  88.4429855  82.4127674 143.5532670  87.2095098
  87.2629710 153.6302212  83.6280917  87.1853740 154.5810037  83.7069398
  86.6591353 153.2848084  84.2855844  89.7546940 140.8030077  96.2842284
  88.9780274 141.3623997  96.2745149  90.3937503 141.2886860  96.8057154
  97.5467720 137.5856870  90.1185261  96.9042101 137.8789403  89.4725055
  97.0422649 137.4709790  90.9238457  95.2007884 141.3320043  80.8071120
  96.1125740 141.5647430  80.6318818  94.6917531 141.9157087  80.2446199
  88.0093312 143.6115530  95.8460251  88.7507996 144.1500574  95.5695075
  87.3030297 144.2381819  96.0031803  93.4848652 145.7544671  94.4432413
  93.8932008 145.3127081  93.6987045  92.7625913 145.1797298  94.6966605
  89.8379722 140.6917278  91.8165970  90.6840917 141.1156691  91.9600619
  89.7778359 140.0350902  92.5104533  93.8077466 146.3145861  88.1984701
  93.1786329 146.4791576  87.4960769  93.4203128 146.7287471  88.9695666
  97.6866698 147.2500299  85.5529065  97.0017736 147.6299201  85.0026099
  97.7710547 147.8595626  86.2861013  92.9879167 138.3521646  93.4747143
  92.7440099 139.1063707  92.9381419  93.2639098 138.7306994  94.3094390
  94.9417630 144.8960258  92.1524409  95.1534525 145.5392018  91.4758790
  94.8947378 144.0622575  91.6846339  92.5443859 137.5078079  89.0560981
  91.6828338 137.8059333  89.3477718  92.5706293 137.7248478  88.1242014
  89.3605428 146.0520270  85.4634787  89.8243774 146.3307973  84.6739409
  89.0962226 145.1503714  85.2807877  86.2529509 145.5991751  88.4014550
  86.8230866 146.0279019  87.7632034  86.8437621 145.3174336  89.0998735
  88.2974314 142.1743422  82.2724352  88.9998358 142.6264466  82.7398278
  87.9654943 141.5327241  82.9004245  86.7454676 140.7655179  96.6475561
  86.1153336 141.4471459  96.8810958  86.6390764 140.6538260  95.7028699
  82.0399648 140.4326975  87.5741485  81.2498702 140.6884503  87.0981596
  82.5310896 141.2475312  87.6793526  96.0563458 147.7732214  90.3246766
  96.8780901 147.3712401  90.0429448  96.0525861 147.6700448  91.2762882
  83.9914394 140.7971554  84.5324962  83.1945557 140.9090248  85.0508458
  83.7639986 141.1358206  83.6665853  89.8220061 147.3216257  92.4807477
  89.8864494 147.7836664  93.3165648  89.1130985 146.6913622  92.6089786
  80.3237351 140.6857465  90.0056476  80.5745390 141.5704475  90.2714052
  80.8596900 140.5062067  89.2331568 104.1469451 144.1170962  86.6731738
 103.3933159 143.5478360  86.5175742 104.2816992 144.0833627  87.6202372
  89.5368079 148.9884365  82.3486457  89.4013754 149.8335900  82.7771305
  90.0777891 149.1903642  81.5852391  86.0235418 135.0675944  99.0100812
  85.6302364 134.5142143  99.6848456  86.8401559 135.3786523  99.4007330
  82.9897476 146.5059803  82.9214382  83.5021997 147.3003053  83.0719947
  83.6420189 145.8086093  82.8547983  84.7992361 149.6225559  85.0037135
  84.9758989 150.5443524  84.8158119  85.5949194 149.3083978  85.4331515
  88.9403379 136.4833824  96.6021069  89.6813093 137.0840977  96.5225531
  89.1721302 135.7411461  96.0439111  84.0844717 141.6690191  94.8799298
  83.9698233 140.7675448  95.1806397  83.2289235 141.9153888  94.5284115
  91.1636555 149.6107931  96.4786799  90.7200409 148.8244310  96.1607704
  91.8253769 149.7987082  95.8130690  85.9223676 151.1403733  91.0047478
  86.4731101 151.0120796  90.2324471  85.0835152 151.4398622  90.6542370
  93.2617793 149.8910731  94.5068200  93.2436269 150.7119612  94.0148469
  94.1837713 149.7664806  94.7318341  89.7190847 147.4054860  95.3491709
  90.2519184 146.6443149  95.1191017  89.1904929 147.1128512  96.0915863
  92.8860542 132.5114926  90.8785350  92.5424812 133.4016568  90.8024461
  93.2539505 132.3216584  90.0154935  80.9546393 144.8348457  83.6973953
  81.7921615 145.2445465  83.4807660  81.1324661 143.8947899  83.6674146
  92.8510825 142.5023538  79.3857786  92.3357449 143.2728142  79.6246173
  92.5788134 141.8288674  80.0090847  90.4357936 137.3473238  84.4443024
  89.5799532 136.9580089  84.2648663  90.8484888 137.4265199  83.5842809
  91.9657083 134.8819582  88.8434584  91.4621878 134.8449717  88.0302389
  92.2587690 135.7912324  88.9031240  88.2099969 134.9658311  87.8500765
  89.0752965 134.7701120  87.4906655  88.2777478 134.7368663  88.7770122
  97.8245099 145.2555892  81.3210959  97.0474542 144.9167052  80.8766121
  98.5036580 145.2608515  80.6465924  92.6397128 140.3750630  81.2117567
  92.3347264 140.6896779  82.0627710  93.5927570 140.4532050  81.2544900
  91.0843560 146.5340853  82.8610521  90.5564922 145.7993613  82.5483758
  90.5831063 147.3115529  82.6150489  96.0636406 144.7289873  87.9777567
  95.4060081 145.4189135  88.0657696  96.8676805 145.1186305  88.3211553
  94.8741865 143.0834246  86.0281509  95.3873747 143.7164238  86.5303218
  95.5243089 142.4835442  85.6624869  89.2296160 144.3521063  75.8645494
  88.3223222 144.1210317  76.0636643  89.7267192 143.5558682  76.0519475
  92.1364239 153.0618570  78.7842180  91.4625938 153.3650267  79.3927138
  92.5230061 153.8647651  78.4347637  91.3522696 140.5583702  88.2739849
  90.4345257 140.7798649  88.1161537  91.7682839 140.6330012  87.4151557
  92.1357744 141.9575117  83.4042530  92.8829563 142.4696515  83.0949652
  92.4049333 141.6359170  84.2646923  90.4084394 144.4533658  80.3869484
  89.4995613 144.1692691  80.4841954  90.4379478 144.8732737  79.5272791
  95.6403661 148.0640248  84.1560651  95.1865988 147.2231157  84.2125842
  95.0097628 148.7001646  84.4935432  94.5836581 138.9932234  85.3861319
  93.8459338 138.4809620  85.7171561  94.8363354 138.5532615  84.5744596
  94.0836600 149.9016744  85.0910470  94.3759575 150.4621801  84.3722835
  94.5935221 150.1945305  85.8463629  94.6848208 131.7708486  85.9803088
  94.9907085 130.9105849  85.6929003  95.4100813 132.3626106  85.7802082
  80.9772564 142.1739172  84.3684686  80.7796964 141.5808533  83.6435753
  80.4219228 141.8691382  85.0860625  88.9569288 142.0662279  86.4879279
  89.0117898 141.1136115  86.4121756  88.1460490 142.2221718  86.9720578
  90.1060482 145.9942402  77.7257562  89.6679911 145.2778261  77.2663200
  90.8470922 146.2218517  77.1642654  86.8961648 140.6839338  84.2469658
  86.0829513 140.9833509  84.6534850  87.3920642 140.2895027  84.9644140
  89.0470226 150.6797095  86.1803923  89.0046404 150.9057942  85.2512455
  89.9632924 150.4460470  86.3289724  92.4935859 141.1481163  93.0784552
  92.8485247 141.3752636  93.9379018  93.1407991 141.4799540  92.4561807
  98.2233596 144.2699599  83.7833881  98.0851495 144.4601195  82.8555070
  97.8669815 145.0318982  84.2401932  86.3875722 138.2557694  89.8630893
  87.0275102 138.1146453  89.1653856  85.5553253 137.9692207  89.4869495
  98.2502976 146.3376126  88.7945152  98.6839483 146.2451415  89.6428206
  98.9634557 146.3133626  88.1565168  87.1636026 147.5560124  85.9765885
  87.9576625 147.0610445  85.7748460  86.4527719 147.0277988  85.6133591
  91.9830871 149.9378220  90.3278253  92.0367893 150.5069156  91.0955969
  91.1145652 150.1080105  89.9632290  83.4718790 141.7003206  82.0525638
  82.5416378 141.6387662  82.2695600  83.5676262 141.1779159  81.2562279
  84.8629264 139.6395776  91.8102704  85.5352318 139.4313138  91.1615353
  84.0359051 139.4417862  91.3707937  99.1118526 146.3799826  91.3278038
  99.3054416 147.2845637  91.5737313  99.0119144 145.9207246  92.1616623
  90.7654836 136.2657717  93.8268365  90.1182751 136.9647667  93.7332842
  91.5355852 136.6993861  94.1944613  94.1733634 146.5306569  96.9018918
  94.0219141 146.3017121  95.9849002  94.1638314 147.4877171  96.9150263
  90.9418971 144.1038482  91.8865185  91.8711031 144.2549642  91.7134152
  90.5210001 144.1922503  91.0313831  89.7407302 148.1289146  89.6563723
  89.6018388 147.7607931  90.5289661  88.9521899 148.6436786  89.4847680
  90.3355454 153.2298243  80.9989259  90.5107210 152.7586286  81.8134882
  89.6488242 153.8564009  81.2270520  91.2912518 147.5070749  87.0452560
  90.9562350 147.4671519  87.9410210  90.7916463 146.8415465  86.5722971
  85.2656761 142.9138379  92.5705141  85.1276559 142.1818618  93.1716681
  86.1761685 142.8247279  92.2889329  94.2271709 144.8526783  77.3189620
  93.6100880 144.1273612  77.2222673  93.7588198 145.6136144  76.9756694
  87.8939062 142.6258338  92.0588821  88.6038681 141.9851531  92.0175440
  87.8508370 142.8771233  92.9815002  95.8825841 149.5625692  94.9795400
  95.8238387 148.8784912  94.3125983  96.2845359 150.3044682  94.5276026
  86.6067996 139.6123556  93.8784461  86.0705353 139.1614295  94.5306057
  86.0184705 139.7469465  93.1354925  95.8843248 147.5265276  93.2109380
  94.9970027 147.1891197  93.3335779  96.4541799 146.7948307  93.4478145
  77.5372395 143.8589367  86.5352431  78.2243435 143.5451097  85.9473447
  77.3820524 144.7630732  86.2619683  82.3407117 138.7479564  90.9637455
  82.2565306 138.1405234  90.2287865  81.5189824 139.2388582  90.9646951
  89.4144401 152.1866728  90.1770623  89.3414573 152.9921700  90.6889928
  88.9721795 152.3858694  89.3518645  89.2034181 151.4238498  83.6873445
  88.4201703 151.9660178  83.7811669  89.9026926 151.9412478  84.0867686
  92.5130831 137.2333128  86.3307650  93.0099531 136.4803090  86.0108720
  91.7417813 137.2697444  85.7650859 100.3660589 142.9373493  87.9725942
 100.3550465 143.8198209  87.6019875  99.4977968 142.5845044  87.7780479
  91.8743085 152.0853562  92.3328782  92.5871057 152.7201027  92.2604683
  91.3833114 152.1817428  91.5168784  93.5960612 145.9904815  83.9046074
  92.6616891 146.1106277  83.7350778  93.7737280 145.0877282  83.6406083
  89.0965800 139.3750511  86.0579335  88.7263587 138.8221551  86.7460240
  89.5924892 138.7708644  85.5054335  96.9833163 141.8322134  84.4396108
  97.4493615 142.6650126  84.3656410  97.4340664 141.3667116  85.1441366
  86.9254999 149.8348006  93.1534353  87.6264458 150.4684489  93.3063747
  86.4550114 150.1762737  92.3929992  95.0509394 148.1765955  81.4382260
  95.3269238 148.0622550  82.3476134  94.1813893 147.7783440  81.3994433
  94.9549826 134.2002721  88.4787009  94.0412906 134.4306948  88.6469216
  95.3842927 134.2841165  89.3301041  94.7256285 142.3892613  90.9786903
  94.0727735 142.6368520  90.3239356  95.1036664 141.5756751  90.6449380
  91.6863458 152.4252306  85.0815073  91.8685853 151.6073962  85.5442826
  92.5096444 152.6419998  84.6439963  92.0205624 151.3520491  82.3430122
  92.5493390 150.8412946  81.7300284  92.2833843 151.0363022  83.2075655
  90.7743858 143.1312424  97.4652940  90.0984495 143.0306553  98.1355315
  91.5971491 142.9751638  97.9288937  82.5222717 149.3684361  90.0865455
  83.1076153 148.6228049  90.2193360  82.3247555 149.6788317  90.9702119
  85.3761372 152.4035608  85.1027898  84.7071747 152.8881736  84.6191938
  85.2374242 152.6504828  86.0171276  77.1140371 141.9389961  88.8069899
  77.1524471 141.4053552  89.6007017  76.6080664 141.4125166  88.1880876
  89.5166640 154.4379352  91.7010556  90.0684948 154.6010973  92.4659641
  89.8572834 155.0283789  91.0290581  84.4931134 136.7854501  92.3032441
  84.5572460 137.6469332  91.8909839  84.4298254 136.1728503  91.5704799
  83.9683406 138.8577634  95.9505475  84.5955445 138.4754711  96.5642999
  83.1111325 138.6391836  96.3161168  94.3677515 149.2640609  97.5559211
  94.9117419 149.8770567  97.0614165  93.7864360 149.8220187  98.0726224
  80.7448949 140.6654063  81.8823830  81.0402390 139.7564741  81.8290884
  79.8436985 140.6441802  81.5604832  92.6535028 152.3861327  88.6874238
  92.5286167 151.5851067  88.1785184  93.3114119 152.8807520  88.1988208
  84.2743196 138.7410060  87.8651379  83.5529782 139.3546027  87.7258852
  85.0636452 139.2767824  87.7868024  94.7169936 150.1870347  90.3153788
  93.7700272 150.0675698  90.2432115  95.0652709 149.2992845  90.3980050
  87.0769509 136.0764486  94.1392030  87.6003911 136.3226783  94.9018340
  86.8581843 136.9084521  93.7195168  91.7216369 149.9823063  86.5158141
  91.5741332 149.0539771  86.6965711  92.5469863 150.0043154  86.0315216
  95.3250491 150.8051622  87.6023013  96.2497039 150.5994483  87.4647464
  95.1565795 150.5568023  88.5112355  88.2822054 137.0178181  91.8241701
  87.9418875 136.2185994  92.2262381  87.5761061 137.3179892  91.2518534
  88.9338526 134.1027494  90.2769024  89.7564596 133.6287972  90.1547914
  89.1776590 134.8817977  90.7767710  91.7177884 137.8360901  81.5090258
  91.9341498 138.7185539  81.2079086  91.2371951 137.4447114  80.7795900
  86.4577105 140.7946614  88.0861002  86.3121686 141.1086917  88.9785284
  85.9802309 141.4131515  87.5331901  88.3173488 137.7849162  88.1341892
  88.3035057 136.8890256  87.7974190  89.0345916 137.7919826  88.7680178
  90.1699619 138.2186502  90.1795019  89.9117396 139.1403573  90.1779350
  89.6384659 137.8216937  90.8695484  95.1145807 151.3237290  82.9585105
  95.2882685 150.7583712  82.2058957  95.6074699 152.1238184  82.7764595
  80.9322767 143.3351959  91.0248664  80.3876235 144.1111767  91.1568938
  81.8102117 143.6822763  90.8667785  90.5901574 134.3518453  86.5396182
  90.6123271 134.4157786  85.5848162  91.0069633 133.5122962  86.7336688
 100.9685199 144.0873712  84.5775405 101.4116345 143.3381038  84.1794528
 100.0911709 144.0783849  84.1949137  96.1020980 150.6404054  80.0582003
  96.7971885 151.2610747  80.2769318  96.4444130 149.7899405  80.3334381
  81.7188789 142.4621855  93.9178820  80.9770525 142.6104490  94.5043451
  81.3981533 142.7230120  93.0545570  98.0012403 148.0903759  81.5869334
  98.5263727 148.4291032  80.8618654  97.9134756 147.1550775  81.4032468
  89.6632452 152.0037833  93.7159210  89.9719578 151.7586980  94.5881910
  90.4607934 152.2084472  93.2278081  89.6853064 154.1575743  85.9464587
  89.2458054 153.6652121  86.6397444  90.4361181 153.6148710  85.7056662
  82.1645403 150.3487284  85.9489215  82.9903423 150.0491055  85.5687859
  81.8139455 149.5794906  86.3979004  87.1326936 149.7013752  88.0186889
  86.5106945 149.0384457  87.7189117  87.8031803 149.7274884  87.3360536
  80.3654008 148.2673610  86.9078149  79.5285916 147.8395784  86.7262150
  80.3377653 148.4606053  87.8448940  87.2051463 138.1795540  97.6119395
  87.2539619 139.0557663  97.2297164  87.7473978 137.6372933  97.0391038
  97.6906309 148.7236663  96.8920532  96.9001853 148.7060802  96.3525031
  97.4539664 149.2624957  97.6469568  97.8104184 145.5729129  94.2053260
  97.8602189 145.4079137  95.1468783  97.7018107 144.7056388  93.8151141
  86.6940443 148.2517675  81.4945349  86.8428563 148.9353140  80.8412022
  87.5006886 148.2322765  82.0094805  95.1007947 141.5560057  95.5212567
  96.0017809 141.4166522  95.2296565  95.1755921 141.7214512  96.4610744
  89.4350752 138.9326912  94.3665753  88.5654061 139.2260478  94.0948342
  89.6710232 139.5167357  95.0873017  99.3122381 147.9926071  94.4495282
  99.0207189 148.3556052  95.2858743  98.6994512 147.2793079  94.2708614
 100.5118063 145.5578951  86.9697852 101.3464955 145.9968755  87.1335412
 100.6477192 145.0817604  86.1506098  97.5609569 143.1158686  92.9175340
  98.0363691 143.3086332  92.1094191  96.6375135 143.1717871  92.6718724
  84.4493076 144.2782853  82.5006418  84.2039118 143.3745183  82.6986628
  84.6188990 144.2800003  81.5585896  92.1389786 135.1506529  91.8831174
  92.6571730 135.8867556  91.5577662  91.7844918 135.4570522  92.7177933
  92.3902380 131.5706812  87.4032070  92.6704134 130.9030001  88.0292497
  93.1752987 131.7635907  86.8906734  90.1935848 150.7465806  78.9657097
  89.6209815 151.3655993  78.5127569  90.7668642 151.2965167  79.4997019
  96.2611238 139.9924446  91.1503645  97.2128661 140.0922543  91.1715870
  96.0914689 139.2002714  91.6601730  94.2825618 137.0780029  91.3363046
  93.6875550 137.3585042  90.6409535  93.9975314 137.5673930  92.1079787
  93.4133108 151.0302956  80.0965679  94.3463781 150.9648517  80.2998554
  93.3256321 151.8659223  79.6380212  96.0421125 150.3468826  77.0569627
  95.9634756 150.0128690  77.9505384  96.8630792 150.8390594  77.0561099
  98.7399316 143.2130565  90.2645945  98.7075636 142.2746566  90.4505629
  99.3499940 143.2914602  89.5311770  90.5782647 142.0826618  76.3073149
  91.5241752 141.9532826  76.3761567  90.1996892 141.3441280  76.7842577
  98.8893804 140.0041609  90.3104228  98.3732853 139.2200065  90.1234157
  99.7733753 139.6760325  90.4750748  96.5504531 133.7482624  86.2700041
  96.3529353 133.4397713  87.1543373  97.1604237 134.4744263  86.3997971
 104.5575866 144.2746572  89.4051982 105.2879254 144.0131860  89.9659685
 103.9482811 143.5375294  89.4454050 102.6391163 142.4154435  90.0026433
 101.9124327 142.2810400  89.3942925 102.2238450 142.7231263  90.8083151
  90.4621339 146.1344364  97.7673806  91.3824349 146.3122963  97.9613853
  90.4270922 145.1900410  97.6153505  79.6803504 141.3282958  86.6927081
  79.3606289 140.4748266  86.4001455  79.1336933 141.5431536  87.4485048
  83.4583412 144.0445399  90.4096587  83.6769422 144.9762507  90.4284621
  83.8709186 143.6853374  91.1951391  90.3787630 134.5513484  82.3972276
  89.5688358 134.2060569  82.7727522  91.0672047 134.2421028  82.9859887
  92.3078178 133.6291531  84.0196572  92.8609217 134.0486985  84.6786595
  92.5448264 132.7027279  84.0619528  88.3311277 139.6178605  99.7999336
  88.2308004 140.5672962  99.7311427  88.1132819 139.2896844  98.9275406
  79.5491764 144.9485870  88.6620202  78.8555236 144.5339822  88.1490157
  80.2964755 144.9906406  88.0653621  95.6856985 135.7392056  83.5275237
  95.1055654 136.3976860  83.1453289  95.4192918 134.9169401  83.1162654
  94.1360551 135.1397114  85.7296557  94.6360330 135.2513649  84.9210876
  94.7796159 134.8358167  86.3697365  88.1942547 143.0475744  98.6164398
  87.7109629 143.8476104  98.8228287  88.2803486 143.0583689  97.6631842
  81.4628507 144.8804123  86.5386217  81.4399195 144.9791811  85.5868100
  81.7729143 145.7269274  86.8603383  84.1215885 146.9380278  90.6532832
  85.0759138 146.9064221  90.5862763  83.9228408 146.4770902  91.4683058
  84.7115267 145.5081394  93.2203629  85.5308156 146.0025473  93.2438467
  84.9852075 144.5913363  93.1921197  94.4681863 137.8992147  82.5831585
  93.5807718 138.1841797  82.3651780  94.8835852 137.7385910  81.7358862
  97.8196399 137.9238668  86.2985924  98.5956789 138.4135120  86.5710541
  97.0944533 138.3496722  86.7557794 100.2568958 138.6366287  87.3559865
 100.8513449 138.3962023  86.6453173 100.3295542 137.9173418  87.9833401
  82.4766114 152.4799898  87.6703030  82.3420582 151.7200299  87.1041028
  82.0598176 153.2040798  87.2031818  93.6125077 147.6636821  76.6779605
  94.3160927 147.8686824  77.2937260  92.8887725 148.2313583  76.9428688
  94.4422887 143.4146683  82.7981875  94.3858088 143.8715234  81.9589507
  94.9951229 142.6537367  82.6204718  98.2527693 139.2036415  83.6231994
  97.9964627 138.8033050  84.4540202  97.6280561 139.9180209  83.4982134
 102.5640031 141.9432488  86.1303286 102.0039589 142.0125677  86.9034848
 101.9583534 141.7673472  85.4102782  85.6335239 153.3769215  87.8821472
  85.5167624 154.3214647  87.7800162  84.8127686 153.0742777  88.2707271
  95.5211774 148.1019351  78.7278065  96.3557378 147.6700549  78.5455540
  95.3596117 147.9301364  79.6554959  95.1757666 144.6051464  80.0934404
  95.1206470 144.4395735  79.1522848  94.5503721 145.3127497  80.2496594
  79.9650181 139.8419528  93.9195826  80.6109045 139.3318482  94.4083052
  79.7567332 140.5788210  94.4939252  92.4903573 146.9100376  99.4187967
  93.3594733 147.0841028  99.0574602  92.0110325 147.7294793  99.2963696
  86.6589754 154.0297477  91.0977401  87.5617000 154.0621087  91.4143896
  86.4327124 153.0997928  91.1123736  88.4143356 152.7828463  87.7587479
  87.4638987 152.7830325  87.6451852  88.7175842 152.0361198  87.2423514
  92.3005911 130.7002350  83.9265659  91.5338307 130.1460836  84.0722342
  92.7116616 130.7724218  84.7879811  84.3047672 136.9887145  98.0170841
  85.1679134 136.6323950  98.2274165  83.7313083 136.6501040  98.7046245
 100.9585755 158.5716430  88.7594766 100.6204267 158.4557495  87.8715301
 101.8275524 158.1707595  88.7395772  96.8172571 160.4251906  84.7491657
  96.2537436 160.3341843  83.9807945  96.7024966 159.6051811  85.2294150
  99.0869006 159.8865242  90.2561515  99.6832579 159.6621264  89.5418478
  99.1443978 159.1449987  90.8586963  98.6594035 157.3404677  78.0911706
  98.9119555 156.8186199  77.3295169  97.7218594 157.1770823  78.1938390
 103.7037318 156.3440456  85.8986450 104.4900407 155.9259879  85.5476867
 103.9676022 157.2486548  86.0668098  98.3790324 159.2432783  80.2936081
  98.2626582 158.5677687  80.9617166  98.4892583 158.7565157  79.4768234
 100.7221864 158.7042930  83.9982771 100.3580072 158.1773551  84.7095692
 101.5788980 158.3141399  83.8249256 106.6271165 149.9937263  91.2614037
 106.2954490 150.8632674  91.0375252 106.0316778 149.6773547  91.9408067
 100.3627351 153.7332830  78.9944119 100.5301754 154.6013066  79.3614590
 100.1724520 153.8960112  78.0705408  96.5715166 158.6463606  86.6946654
  95.6465663 158.5139820  86.9024346  96.8199579 159.4257825  87.1916596
 106.5199828 154.7132349  88.3407387 105.6116706 154.6447758  88.0466148
 106.4687424 155.1904294  89.1689212 100.3416572 156.1890488  79.9790786
 100.2216197 156.6347538  80.8176266  99.6469161 156.5375805  79.4204324
  93.9323977 158.2896879  87.5290443  94.0616358 158.5431358  88.4429855
  93.2521428 158.8824587  87.2095098 100.5940694 156.1321995  96.2842284
  99.8174028 156.6915915  96.2745149 101.2331257 156.6178778  96.8057154
 108.3861475 152.9148788  90.1185261 107.7435855 153.2081321  89.4725055
 107.8816403 152.8001708  90.9238457  98.8487066 158.9407448  95.8460251
  99.5901751 159.4792492  95.5695075  98.1424052 159.5673737  96.0031803
 100.6773476 156.0209195  91.8165970 101.5234671 156.4448609  91.9600619
 100.6172114 155.3642820  92.5104533 103.8272921 153.6813564  93.4747143
 103.5833853 154.4355624  92.9381419 104.1032852 154.0598911  94.3094390
 103.3837613 152.8369997  89.0560981 102.5222092 153.1351250  89.3477718
 103.4100048 153.0540396  88.1242014  99.1368069 157.5035340  82.2724352
  99.8392112 157.9556383  82.7398278  98.8048697 156.8619158  82.9004245
  97.5848430 156.0947096  96.6475561  96.9547091 156.7763377  96.8810958
  97.4784518 155.9830178  95.7028699  92.8793403 155.7618892  87.5741485
  92.0892457 156.0176421  87.0981596  93.3704650 156.5767230  87.6793526
  94.8308148 156.1263472  84.5324962  94.0339311 156.2382166  85.0508458
  94.6033740 156.4650124  83.6665853  91.1631106 156.0149383  90.0056476
  91.4139144 156.8996393  90.2714052  91.6990654 155.8353984  89.2331568
  96.8629173 150.3967862  99.0100812  96.4696119 149.8434061  99.6848456
  97.6795313 150.7078441  99.4007330  99.7797134 151.8125741  96.6021069
 100.5206847 152.4132894  96.5225531 100.0115057 151.0703379  96.0439111
  94.9238472 156.9982108  94.8799298  94.8091987 156.0967366  95.1806397
  94.0682990 157.2445805  94.5284115 103.7254297 147.8406844  90.8785350
 103.3818566 148.7308486  90.8024461 104.0933259 147.6508502  90.0154935
 101.2751691 152.6765156  84.4443024 100.4193287 152.2872006  84.2648663
 101.6878642 152.7557117  83.5842809 102.8050837 150.2111499  88.8434584
 102.3015633 150.1741634  88.0302389 103.0981444 151.1204242  88.9031240
  99.0493723 150.2950229  87.8500765  99.9146720 150.0993038  87.4906655
  99.1171232 150.0660581  88.7770122 103.4790883 155.7042547  81.2117567
 103.1741018 156.0188697  82.0627710 104.4321325 155.7823967  81.2544900
  96.6556042 152.5252437  85.2217132  97.2299794 152.3027618  84.4890325
  97.2427025 152.5941131  85.9745733  96.9825629 154.5556898  79.2413017
  96.1462942 154.8931584  79.5622292  96.8430399 154.4205878  78.3040154
  98.9578710 149.3993686  83.9492202  98.3043122 149.0842703  83.3248816
  98.9159184 148.7769426  84.6752025 100.0689915 159.6812981  75.8645494
  99.1616977 159.4502234  76.0636643 100.5660947 158.8850600  76.0519475
 102.1916450 155.8875619  88.2739849 101.2739012 156.1090566  88.1161537
 102.6076594 155.9621930  87.4151557 105.4230335 154.3224151  85.3861319
 104.6853092 153.8101538  85.7171561 105.6757109 153.8824533  84.5744596
 105.5241963 147.1000403  85.9803088 105.8300839 146.2397767  85.6929003
 106.2494567 147.6918024  85.7802082  91.8166319 157.5031090  84.3684686
  91.6190718 156.9100451  83.6435753  91.2612983 157.1983300  85.0860625
  99.7963042 157.3954196  86.4879279  99.8511652 156.4428033  86.4121756
  98.9854244 157.5513635  86.9720578  97.7355402 156.0131256  84.2469658
  96.9223268 156.3125427  84.6534850  98.2314396 155.6186945  84.9644140
 103.3329614 156.4773081  93.0784552 103.6879002 156.7044554  93.9379018
 103.9801745 156.8091457  92.4561807  97.2269477 153.5849612  89.8630893
  97.8668856 153.4438371  89.1653856  96.3947008 153.2984125  89.4869495
  94.3112544 157.0295124  82.0525638  93.3810132 156.9679579  82.2695600
  94.4070016 156.5071077  81.2562279  94.2298093 153.5549937  84.6403880
  94.4904911 154.4695270  84.5313040  95.0515266 153.0874379  84.7900493
  95.7023019 154.9687694  91.8102704  96.3746072 154.7605056  91.1615353
  94.8752805 154.7709780  91.3707937 101.6048591 151.5949635  93.8268365
 100.9576506 152.2939584  93.7332842 102.3749606 152.0285779  94.1944613
  96.1050516 158.2430297  92.5705141  95.9670314 157.5110536  93.1716681
  97.0155439 158.1539197  92.2889329  98.7332817 157.9550256  92.0588821
  99.4432435 157.3143448  92.0175440  98.6902125 158.2063151  92.9815002
  97.4461751 154.9415474  93.8784461  96.9099108 154.4906212  94.5306057
  96.8578459 155.0761383  93.1354925  96.8564010 154.4004125  76.4410924
  95.9793476 154.2792926  76.0773171  97.3321763 153.6090204  76.1889813
  93.1800872 154.0771482  90.9637455  93.0959061 153.4697151  90.2287865
  92.3583578 154.5680500  90.9646951 103.3524586 152.5625045  86.3307650
 103.8493285 151.8095008  86.0108720 102.5811567 152.5989362  85.7650859
  99.9359554 154.7042428  86.0579335  99.5657342 154.1513469  86.7460240
 100.4318647 154.1000562  85.5054335 105.7943580 149.5294639  88.4787009
 104.8806660 149.7598866  88.6469216 106.2236682 149.6133083  89.3301041
 101.6137612 158.4604342  97.4652940 100.9378249 158.3598471  98.1355315
 102.4365246 158.3043555  97.9288937  87.9534126 157.2681878  88.8069899
  87.9918225 156.7345469  89.6007017  87.4474419 156.7417084  88.1880876
  95.3324888 152.1146419  92.3032441  95.3966215 152.9761250  91.8909839
  95.2692008 151.5020421  91.5704799  94.8077161 154.1869552  95.9505475
  95.4349199 153.8046629  96.5642999  93.9505080 153.9683753  96.3161168
  91.5842703 155.9945981  81.8823830  91.8796144 155.0856659  81.8290884
  90.6830739 155.9733720  81.5604832  95.1136950 154.0701977  87.8651379
  94.3923536 154.6837945  87.7258852  95.9030206 154.6059742  87.7868024
  97.9163264 151.4056404  94.1392030  98.4397666 151.6518700  94.9018340
  97.6975597 152.2376439  93.7195168  93.3130545 153.6760078  82.0063155
  92.9843251 152.7957457  81.8238261  93.6669916 153.6207747  82.8939544
  96.4272368 153.9633048  82.3738633  96.7668441 154.4918969  81.6517241
  96.8744489 154.3013454  83.1497199  99.1215809 152.3470099  91.8241701
  98.7812629 151.5477912  92.2262381  98.4154815 152.6471810  91.2518534
  99.7732281 149.4319411  90.2769024 100.5958350 148.9579889  90.1547914
 100.0170344 150.2109895  90.7767710  98.4140515 152.4607670  80.5731925
  99.1348878 152.8388922  80.0695642  97.7905819 153.1796546  80.6766903
 102.5571638 153.1652819  81.5090258 102.7735253 154.0477457  81.2079086
 102.0765705 152.7739032  80.7795900  97.2970860 156.1238532  88.0861002
  97.1515440 156.4378835  88.9785284  96.8196063 156.7423432  87.5331901
  99.1567242 153.1141080  88.1341892  99.1428811 152.2182173  87.7974190
  99.8739671 153.1211744  88.7680178 101.0093373 153.5478420  90.1795019
 100.7511151 154.4695491  90.1779350 100.4778414 153.1508855  90.8695484
  98.5604138 151.9955460  83.4029462  98.6820050 151.0672106  83.6020350
  98.2706181 152.0094146  82.4907778 101.4295329 149.6810371  86.5396182
 101.4517026 149.7449704  85.5848162 101.8463388 148.8414879  86.7336688
  92.5582544 157.7913773  93.9178820  91.8164280 157.9396408  94.5043451
  92.2375288 158.0522038  93.0545570  98.0445218 153.5087458  97.6119395
  98.0933373 154.3849580  97.2297164  98.5867732 152.9664851  97.0391038
 100.2744506 154.2618830  94.3665753  99.4047816 154.5552396  94.0948342
 100.5103987 154.8459275  95.0873017  95.2886830 159.6074770  82.5006418
  95.0432872 158.7037100  82.6986628  95.4582745 159.6091921  81.5585896
 102.9783540 150.4798447  91.8831174 103.4965484 151.2159474  91.5577662
 102.6238673 150.7862440  92.7177933  94.5582478 155.3403128  79.9992580
  93.8651723 155.4147483  79.3432616  94.3134230 154.5763472  80.5214097
 103.2296134 146.8998729  87.4032070 103.5097888 146.2321918  88.0292497
 104.0146741 147.0927825  86.8906734 105.1219372 152.4071947  91.3363046
 104.5269304 152.6876959  90.6409535 104.8369069 152.8965848  92.1079787
 101.4176401 157.4118536  76.3073149 102.3635506 157.2824744  76.3761567
 101.0390646 156.6733198  76.7842577 107.3898286 149.0774542  86.2700041
 107.1923107 148.7689630  87.1543373 107.9997991 149.8036181  86.3997971
  99.6019319 155.3368512  76.2428034  98.6950774 155.0401625  76.3190748
  99.8795300 155.0398331  75.3762321  90.5197259 156.6574876  86.6927081
  90.2000043 155.8040184  86.4001455  89.9730687 156.8723454  87.4485048
 101.2181384 149.8805402  82.3972276 100.4082113 149.5352487  82.7727522
 101.9065801 149.5712946  82.9859887 103.1471933 148.9583449  84.0196572
 103.7002971 149.3778902  84.6786595 103.3842019 148.0319197  84.0619528
  99.1705032 154.9470523  99.7999336  99.0701759 155.8964880  99.7311427
  98.9526574 154.6188761  98.9275406  98.3718103 152.1955448  76.3840014
  99.2337267 152.5210346  76.6435831  98.5568447 151.4086944  75.8713079
 106.5250740 151.0683974  83.5275237 105.9449409 151.7268778  83.1453289
 106.2586672 150.2461319  83.1162654 104.9754306 150.4689032  85.7296557
 105.4754084 150.5805566  84.9210876 105.6189914 150.1650085  86.3697365
  99.0336302 158.3767661  98.6164398  98.5503384 159.1768022  98.8228287
  99.1197241 158.3875606  97.6631842 105.3075618 153.2284064  82.5831585
 104.4201473 153.5133715  82.3651780 105.7229607 153.0677828  81.7358862
 108.6590154 153.2530585  86.2985924 109.4350544 153.7427038  86.5710541
 107.9338288 153.6788640  86.7557794  90.8043936 155.1711446  93.9195826
  91.4502799 154.6610400  94.4083052  90.5961087 155.9080128  94.4939252
  99.3247546 149.4351491  79.6719723  99.3126216 150.3793331  79.8287993
 100.2170968 149.2521636  79.3779184 103.1399666 146.0294267  83.9265659
 102.3732061 145.4752754  84.0722342 103.5510371 146.1016136  84.7879811
  95.1441427 152.3179063  98.0170841  96.0072888 151.9615868  98.2274165
  94.5706837 151.9792958  98.7046245  17.4346014  12.9915783  75.5478548
  18.0724424  12.8722530  74.8441888  17.3166857  13.9396627  75.6066500
  14.2435721  12.9443211  75.4840073  13.9054232  12.8284276  74.5960608
  15.1125489  12.5434376  75.4641079  14.7255504  14.0978063  81.4426278
  14.7144144  13.7030861  80.5706782  14.8876143  13.3644135  82.0360050
  15.6822095  18.4649655  66.7851429  15.0310075  19.0503736  66.3985443
  16.4766458  18.9955850  66.8446466  11.4462765  16.8815175  80.3905462
  11.1552631  17.7860805  80.2752129  12.0819749  16.9231702  81.1049532
  16.9887283  10.7167237  72.6231756  17.7750372  10.2986660  72.2722173
  17.2525987  11.6213329  72.7913405  17.1597360  16.1540087  67.3220413
  16.5243193  16.2274714  68.0341318  16.8294767  16.7433686  66.6439492
  22.3895710  10.6542470  73.5264735  23.1220882  10.0841687  73.7602564
  21.6335066  10.2664070  73.9671240  16.4052650  16.5676590  77.3855256
  16.1053373  17.4701629  77.2771063  16.0603709  16.3008773  78.2376409
  11.3873430  23.3320910  70.3526224  11.3097459  24.2828736  70.4314704
  10.7835073  22.9866783  71.0101150  19.3251604  11.0338742  67.5316427
  20.2369460  11.2666129  67.3564124  18.8161251  11.6175786  66.9691505
  17.6092371  15.4563370  81.1677719  18.0175727  15.0145780  80.4232352
  16.8869633  14.8815997  81.4211912  17.9321186  16.0164560  74.9230008
  17.3030049  16.1810274  74.2206076  17.5446848  16.4306170  75.6940972
  21.8110418  16.9518998  72.2774372  21.1261456  17.3317900  71.7271405
  21.8954267  17.5614325  73.0106320  19.0661350  14.5978957  78.8769715
  19.2778245  15.2410717  78.2004096  19.0191098  13.7641274  78.4091645
  13.4849148  15.7538968  72.1880093  13.9487494  16.0326671  71.3984716
  13.2205946  14.8522413  72.0053184  10.3773229  15.3010450  75.1259856
  10.9474586  15.7297718  74.4877341  10.9681341  15.0193035  75.8244042
  20.1807178  17.4750913  77.0492073  21.0024621  17.0731100  76.7674754
  20.1769580  17.3719147  78.0008189  13.9463781  17.0234956  79.2052783
  14.0108214  17.4855363  80.0410955  13.2374705  16.3932321  79.3335093
  28.2713171  13.8189661  73.3977044  27.5176879  13.2497059  73.2421049
  28.4060712  13.7852326  74.3447679  13.6611799  18.6903063  69.0731764
  13.5257473  19.5354599  69.5016611  14.2021611  18.8922341  68.3097697
   8.9236081  19.3244258  71.7282442   9.1002709  20.2462222  71.5403426
   9.7192914  19.0102677  72.1576822  15.2880275  19.3126630  83.2032106
  14.8444129  18.5263009  82.8853010  15.9497489  19.5005780  82.5375996
  10.0467396  20.8422432  77.7292784  10.5974821  20.7139495  76.9569778
   9.2078872  21.1417321  77.3787677  17.3861513  19.5929430  81.2313507
  17.3679988  20.4138311  80.7393776  18.3081433  19.4683505  81.4563648
  13.8434567  17.1073559  82.0737015  14.3762904  16.3461848  81.8436323
  13.3148648  16.8147211  82.8161170  16.9754545  12.2042236  66.1103092
  16.4601168  12.9746841  66.3491480  16.7031853  11.5307373  66.7336154
  21.9488819  14.9574591  68.0456266  21.1718262  14.6185751  67.6011428
  22.6280300  14.9627214  67.3711231  15.2087280  16.2359552  69.5855827
  14.6808642  15.5012311  69.2729065  14.7074783  17.0134228  69.3395796
  20.1880126  14.4308572  74.7022874  19.5303800  15.1207834  74.7903002
  20.9920525  14.8205004  75.0456860  18.9985585  12.7852945  72.7526815
  19.5117467  13.4182937  73.2548525  19.6486809  12.1854141  72.3870175
  13.3539880  14.0539762  62.5890800  12.4466942  13.8229016  62.7881949
  13.8510912  13.2577381  62.7764782  16.2607959  22.7637269  65.5087487
  15.5869658  23.0668966  66.1172444  16.6473781  23.5666350  65.1592944
  16.2601463  11.6593816  70.1287836  17.0073282  12.1715213  69.8194958
  16.5293053  11.3377869  70.9892230  14.5328114  14.1552357  67.1114790
  13.6239333  13.8711390  67.2087260  14.5623197  14.5751436  66.2518097
  19.7647381  17.7658946  70.8805958  19.3109708  16.9249856  70.9371148
  19.1341348  18.4020345  71.2180738  18.2080320  19.6035443  71.8155776
  18.5003295  20.1640500  71.0968142  18.7178941  19.8964004  72.5708935
  14.2304201  15.6961101  64.4502869  13.7923631  14.9796960  63.9908506
  14.9714642  15.9237215  63.8887960  13.1713945  20.3815794  72.9049229
  13.1290124  20.6076641  71.9757761  14.0876644  20.1479169  73.0535030
  16.6179579  10.8499862  79.8029859  16.9728967  11.0771335  80.6624324
  17.2651710  11.1818239  79.1807114  22.3477316  13.9718298  70.5079188
  22.2095215  14.1619894  69.5800377  21.9913535  14.7337680  70.9647239
  22.3746696  16.0394825  75.5190459  22.8083202  15.9470114  76.3673513
  23.0878276  16.0152325  74.8810475  11.2879746  17.2578823  72.7011192
  12.0820345  16.7629143  72.4993767  10.5771439  16.7296686  72.3378898
  16.1074591  19.6396919  77.0523560  16.1611613  20.2087855  77.8201276
  15.2389372  19.8098804  76.6877597  23.2362245  16.0818525  78.0523344
  23.4298135  16.9864336  78.2982619  23.1362863  15.6225944  78.8861930
  18.2977354  16.2325268  83.6264225  18.1462860  16.0035820  82.7094309
  18.2882033  17.1895870  83.6395570  15.0662690  13.8057181  78.6110492
  15.9954750  13.9568340  78.4379459  14.6453720  13.8941202  77.7559138
  13.8651022  17.8307845  76.3809029  13.7262108  17.4626630  77.2534967
  13.0765618  18.3455485  76.2092987  14.4599174  22.9316942  67.7234566
  14.6350930  22.4604985  68.5380188  13.7731962  23.5582708  67.9515826
  15.4156237  17.2089448  73.7697867  15.0806070  17.1690218  74.6655517
  14.9160183  16.5434164  73.2968277  18.3515429  14.5545482  64.0434927
  17.7344600  13.8292310  63.9467979  17.8831917  15.3154843  63.7002001
  20.0069561  19.2644391  81.7040707  19.9482107  18.5803611  81.0371290
  20.4089079  20.0063381  81.2521333   9.0260259  26.0806304  74.4974426
   9.2656858  26.7124829  75.1753444   8.1829456  25.7294344  74.7839785
  20.0086968  17.2283975  79.9354687  19.1213747  16.8909896  80.0581086
  20.5785519  16.4967006  80.1723452  13.5388121  21.8885427  76.9015930
  13.4658293  22.6940398  77.4135234  13.0965514  22.0877393  76.0763951
  13.3277901  21.1257197  70.4118751  12.5445423  21.6678877  70.5056976
  14.0270646  21.6431177  70.8112993  24.4904308  12.6392192  74.6971248
  24.4794185  13.5216907  74.3265181  23.6221688  12.2863743  74.5025785
  15.9986805  21.7872261  79.0574088  16.7114777  22.4219726  78.9849990
  15.5076833  21.8836127  78.2414090  17.7204332  15.6923514  70.6291380
  16.7860610  15.8124976  70.4596084  17.8981000  14.7895980  70.3651390
  21.1076883  11.5340833  71.1641414  21.5737335  12.3668824  71.0901717
  21.5584384  11.0685814  71.8686673  11.0498718  19.5366704  79.8779659
  11.7508178  20.1703187  80.0309054  10.5793833  19.8781436  79.1175299
  19.1753114  17.8784654  68.1627566  19.4512958  17.7641249  69.0721440
  18.3057613  17.4802139  68.1239739  18.8500004  12.0911312  77.7032210
  18.1971455  12.3387219  77.0484662  19.2280384  11.2775450  77.3694687
  15.8107178  22.1271005  71.8060380  15.9929573  21.3092661  72.2688132
  16.6340164  22.3438697  71.3685270  16.1449344  21.0539190  69.0675428
  16.6737110  20.5431645  68.4545591  16.4077563  20.7381720  69.9320961
  14.8987577  12.8331123  84.1898247  14.2228214  12.7325252  84.8600622
  15.7215211  12.6770337  84.6534244   6.6466436  19.0703059  76.8110762
   7.2319873  18.3246747  76.9438666   6.4491275  19.3807016  77.6947426
   9.5005092  22.1054307  71.8273204   8.8315467  22.5900434  71.3437244
   9.3617961  22.3523527  72.7416583  13.6410360  24.1398050  78.4255863
  14.1928668  24.3029672  79.1904948  13.9816554  24.7302488  77.7535888
  18.4921235  18.9659308  84.2804517  19.0361139  19.5789266  83.7859472
  17.9108079  19.5238886  84.7971530  16.7778748  22.0880026  75.4119545
  16.6529887  21.2869766  74.9030490  17.4357839  22.5826219  74.9233515
  18.8413656  19.8889046  77.0399095  17.8943991  19.7694397  76.9677422
  19.1896429  19.0011544  77.1225356  15.8460089  19.6841762  73.2403447
  15.6985052  18.7558470  73.4211017  16.6713583  19.7061853  72.7560522
  19.4494211  20.5070321  74.3268320  20.3740759  20.3013182  74.1892771
  19.2809514  20.2586722  75.2357661  19.2389527  21.0255988  69.6830411
  19.4126405  20.4602411  68.9304264  19.7318418  21.8256883  69.5009901
  25.0928918  13.7892411  71.3020711  25.5360064  13.0399737  70.9039834
  24.2155429  13.7802548  70.9194443  20.2264700  20.3422753  66.7827310
  20.9215604  20.9629445  67.0014624  20.5687850  19.4918104  67.0579688
  22.1256123  17.7922458  68.3114640  22.6507447  18.1309731  67.5863960
  22.0378475  16.8569474  68.1277775  13.7876172  21.7056532  80.4404517
  14.0963298  21.4605679  81.3127217  14.5851654  21.9103170  79.9523387
  13.8096784  23.8594442  72.6709894  13.3701774  23.3670820  73.3642750
  14.5604901  23.3167409  72.4301969   6.2889123  20.0505982  72.6734522
   7.1147142  19.7509754  72.2933165   5.9383175  19.2813605  73.1224310
  11.2570656  19.4032451  74.7432195  10.6350665  18.7403156  74.4434423
  11.9275523  19.4293583  74.0605843  21.8150029  18.4255362  83.6165838
  21.0245573  18.4079501  83.0770338  21.5783383  18.9643656  84.3714875
  21.9347904  15.2747828  80.9298567  21.9845909  15.1097836  81.8714090
  21.8261827  14.4075087  80.5396448  10.8184163  17.9536374  68.2190656
  10.9672283  18.6371838  67.5657329  11.6250606  17.9341464  68.7340112
  19.2251666  11.2578756  82.2457874  20.1261529  11.1185221  81.9541871
  19.2999641  11.4233211  83.1856051  23.4366101  17.6944770  81.1740589
  23.1450909  18.0574750  82.0104049  22.8238232  16.9811778  80.9953921
  24.6361783  15.2597650  73.6943159  25.4708675  15.6987454  73.8580719
  24.7720912  14.7836303  72.8751405  21.6853289  12.8177384  79.6420646
  22.1607411  13.0105031  78.8339498  20.7618854  12.8736570  79.3964030
  14.3179568  20.4484504  65.6902403  13.7453535  21.0674692  65.2372875
  14.8912362  20.9983866  66.2242325  20.3854958   9.6943145  77.8748952
  21.3372381   9.7941242  77.8961176  20.2158408   8.9021413  78.3847036
  17.5376828  20.7321655  66.8210986  18.4707501  20.6667216  67.0243861
  17.4500041  21.5677921  66.3625518  20.1664845  20.0487525  63.7814933
  20.0878476  19.7147389  64.6750691  20.9874511  20.5409293  63.7806405
  22.8643036  12.9149264  76.9891252  22.8319356  11.9765265  77.1750936
  23.4743659  12.9933301  76.2557077  23.0137524   9.7060308  77.0349535
  22.4976573   8.9218764  76.8479464  23.8977473   9.3779024  77.1996054
  28.6819586  13.9765271  76.1297289  29.4122974  13.7150559  76.6904992
  28.0726531  13.2393993  76.1699357  26.7634883  12.1173134  76.7271740
  26.0368046  11.9829099  76.1188231  26.3482170  12.4249962  77.5328458
  14.5865059  15.8363063  84.4919113  15.5068069  16.0141662  84.6859159
  14.5514642  14.8919109  84.3398812  21.9440119   7.6257367  73.0231231
  22.7200509   8.1153819  73.2955848  21.2188253   8.0515421  73.4803100
  24.3812678   8.3384986  74.0805171  24.9757169   8.0980722  73.3698480
  24.4539261   7.6192116  74.7078708   6.6009833  22.1818597  74.3948336
   6.4664301  21.4218998  73.8286334   6.1841896  22.9059497  73.9277125
  17.7368796  17.3655520  63.4024911  18.4404647  17.5705523  64.0182567
  17.0131445  17.9332282  63.6673995  18.5666607  13.1165382  69.5227182
  18.5101808  13.5733933  68.6834814  19.1194949  12.3556066  69.3450024
  22.3771413   8.9055113  70.3477301  22.1208347   8.5051749  71.1785509
  21.7524281   9.6198907  70.2227440  26.6883750  11.6451187  72.8548593
  26.1283308  11.7144376  73.6280155  26.0827254  11.4692171  72.1348089
   9.7578959  23.0787914  74.6066779   9.6411343  24.0233346  74.5045469
   8.9371406  22.7761475  74.9952578  19.6455494  17.8038050  65.4523372
  20.4801098  17.3719248  65.2700846  19.4839837  17.6320063  66.3800266
  19.3001386  14.3070163  66.8179711  19.2450190  14.1414434  65.8768155
  18.6747441  15.0146196  66.9741901  16.6147293  16.6119075  86.1433274
  17.4838453  16.7859727  85.7819909  16.1354045  17.4313492  86.0209003
  10.7833473  23.7316176  77.8222707  11.6860720  23.7639786  78.1389202
  10.5570843  22.8016627  77.8369043  12.5387075  22.4847162  74.4832786
  11.5882706  22.4849024  74.3697158  12.8419562  21.7379897  73.9668820
  28.2739769  28.3207701  75.5478548  28.9118179  28.2014448  74.8441888
  28.1560612  29.2688545  75.6066500  25.0829475  28.2735129  75.4840073
  24.7447987  28.1576193  74.5960608  25.9519243  27.8726294  75.4641079
  20.9416291  30.1270605  71.4736964  20.3781156  30.0360542  70.7053252
  20.8268686  29.3070510  71.9539456  25.5649258  29.4269980  81.4426278
  25.5537899  29.0322779  80.5706782  25.7269898  28.6936053  82.0360050
  18.4880723  31.6221797  74.3121184  19.2802015  31.2812621  73.8967484
  18.7277373  31.7316772  75.2323338  26.5215850  33.7941573  66.7851429
  25.8703829  34.3795653  66.3985443  27.3160212  34.3247768  66.8446466
  20.4471477  30.8830710  67.1838563  21.2202353  30.3359697  67.0451439
  20.7996876  31.7474959  67.3953025  22.2856519  32.2107092  80.3905462
  21.9946385  33.1152723  80.2752129  22.9213504  32.2523620  81.1049532
  23.2112726  29.5883941  76.9806822  23.8076298  29.3639963  76.2663785
  23.2687698  28.8468686  77.5832270  22.7837755  27.0423376  64.8157013
  23.0363275  26.5204897  64.0540476  21.8462314  26.8789522  64.9183697
  27.8281037  26.0459154  72.6231756  28.6144127  25.6278578  72.2722173
  28.0919742  26.9505247  72.7913405  27.9991115  31.4832005  67.3220413
  27.3636948  31.5566631  68.0341318  27.6688521  32.0725604  66.6439492
  33.2289465  25.9834388  73.5264735  33.9614636  25.4133605  73.7602564
  32.4728820  25.5955988  73.9671240  22.5034043  28.9451482  67.0181388
  22.3870301  28.2696385  67.6862472  22.6136303  28.4583856  66.2013541
  24.8465584  28.4061629  70.7228077  24.4823791  27.8792250  71.4340999
  25.7032700  28.0160098  70.5494563  30.7514885  19.6955962  77.9859343
  30.4198210  20.5651373  77.7620558  30.1560498  19.3792246  78.6653374
  24.4871071  23.4351529  65.7189426  24.6545474  24.3031765  66.0859897
  24.2968240  23.5978811  64.7950715  27.2446404  31.8968508  77.3855256
  26.9447128  32.7993547  77.2771063  26.8997464  31.6300691  78.2376409
  20.6958886  28.3482305  73.4191961  19.7709382  28.2158519  73.6269652
  20.9443299  29.1276524  73.9161903  30.6443548  24.4151048  75.0652693
  29.7360426  24.3466456  74.7711454  30.5931144  24.8922993  75.8934519
  24.4660292  25.8909186  66.7036093  24.3459917  26.3366237  67.5421573
  23.7712880  26.2394504  66.1449631  18.0567697  27.9915578  74.2535750
  18.1860078  28.2450057  75.1675161  17.3765148  28.5843286  73.9340405
  22.2267184  38.6612828  70.3526224  22.1491214  39.6120653  70.4314704
  21.6228828  38.3158701  71.0101150  24.7184414  25.8340694  83.0087591
  23.9417748  26.3934614  82.9990455  25.3574977  26.3197477  83.5302461
  32.5105195  22.6167486  76.8430567  31.8679575  22.9100020  76.1970362
  32.0060123  22.5020407  77.6483764  30.1645358  26.3630660  67.5316427
  31.0763214  26.5958046  67.3564124  29.6555005  26.9467704  66.9691505
  22.9730786  28.6426147  82.5705558  23.7145471  29.1811191  82.2940381
  22.2667772  29.2692436  82.7277110  28.4486126  30.7855287  81.1677719
  28.8569482  30.3437698  80.4232352  27.7263387  30.2107915  81.4211912
  24.8017196  25.7227894  78.5411276  25.6478391  26.1467308  78.6845925
  24.7415834  25.0661518  79.2349839  28.7714941  31.3456478  74.9230008
  28.1423803  31.5102192  74.2206076  28.3840603  31.7598088  75.6940972
  32.6504172  32.2810916  72.2774372  31.9655211  32.6609817  71.7271405
  32.7348022  32.8906243  73.0106320  27.9516641  23.3832263  80.1992450
  27.7077573  24.1374323  79.6626726  28.2276572  23.7617610  81.0339697
  29.9055104  29.9270875  78.8769715  30.1171999  30.5702635  78.2004096
  29.8584852  29.0933191  78.4091645  27.5081333  22.5388696  75.7806288
  26.6465812  22.8369949  76.0723025  27.5343768  22.7559094  74.8487320
  24.3242902  31.0830886  72.1880093  24.7881248  31.3618589  71.3984716
  24.0599701  30.1814331  72.0053184  21.2166984  30.6302368  75.1259856
  21.7868341  31.0589636  74.4877341  21.8075095  30.3484952  75.8244042
  23.2611789  27.2054038  68.9969658  23.9635832  27.6575082  69.4643585
  22.9292417  26.5637857  69.6249551  21.7092150  25.7965795  83.3720868
  21.0790811  26.4782076  83.6056265  21.6028238  25.6848877  82.4274006
  17.0037122  25.4637591  74.2986792  16.2136176  25.7195120  73.8226903
  17.4948370  26.2785929  74.4038832  31.0200932  32.8042830  77.0492073
  31.8418376  32.4023018  76.7674754  31.0163335  32.7011064  78.0008189
  18.9551868  25.8282170  71.2570269  18.1583031  25.9400865  71.7753764
  18.7277460  26.1668823  70.3911159  24.7857535  32.3526874  79.2052783
  24.8501968  32.8147281  80.0410955  24.0768459  31.7224239  79.3335093
  15.2874825  25.7168082  76.7301783  15.5382864  26.6015092  76.9959359
  15.8234374  25.5372683  75.9576875  39.1106925  29.1481579  73.3977044
  38.3570633  28.5788977  73.2421049  39.2454466  29.1144243  74.3447679
  24.5005553  34.0194981  69.0731764  24.3651228  34.8646517  69.5016611
  25.0415366  34.2214259  68.3097697  20.9872893  20.0986561  85.7346119
  20.5939838  19.5452760  86.4093763  21.8039033  20.4097139  86.1252636
  17.9534951  31.5370419  69.6459689  18.4659471  32.3313669  69.7965253
  18.6057663  30.8396710  69.5793290  19.7629835  34.6536175  71.7282442
  19.9396464  35.5754140  71.5403426  20.5586669  34.3394595  72.1576822
  23.9040854  21.5144440  83.3266375  24.6450567  22.1151593  83.2470838
  24.1358777  20.7722078  82.7684418  19.0482192  26.7000807  81.6044605
  18.9335707  25.7986065  81.9051704  18.1926710  26.9464504  81.2529422
  26.1274030  34.6418548  83.2032106  25.6837884  33.8554926  82.8853010
  26.7891243  34.8297698  82.5375996  20.8861151  36.1714349  77.7292784
  21.4368576  36.0431413  76.9569778  20.0472627  36.4709238  77.3787677
  28.2255268  34.9221348  81.2313507  28.2073743  35.7430229  80.7393776
  29.1475188  34.7975423  81.4563648  24.6828322  32.4365477  82.0737015
  25.2156659  31.6753765  81.8436323  24.1542403  32.1439129  82.8161170
  27.8498017  17.5425543  77.6030657  27.5062286  18.4327185  77.5269768
  28.2176979  17.3527201  76.7400242  15.9183867  29.8659073  70.4219259
  16.7559089  30.2756082  70.2052967  16.0962135  28.9258516  70.3919453
  27.8148299  27.5334154  66.1103092  27.2994923  28.3038759  66.3491480
  27.5425608  26.8599290  66.7336154  25.3995410  22.3783855  71.1688331
  24.5437007  21.9890705  70.9893969  25.8122362  22.4575816  70.3088116
  26.9294557  19.9130198  75.5679890  26.4259353  19.8760333  74.7547696
  27.2225164  20.8222941  75.6276547  23.1737443  19.9968928  74.5746072
  24.0390440  19.8011737  74.2151961  23.2414952  19.7679280  75.5015429
  32.7882574  30.2866509  68.0456266  32.0112016  29.9477668  67.6011428
  33.4674055  30.2919132  67.3711231  27.6034603  25.4061246  67.9362873
  27.2984738  25.7207395  68.7873017  28.5565045  25.4842666  67.9790206
  26.0481034  31.5651470  69.5855827  25.5202396  30.8304229  69.2729065
  25.5468537  32.3426146  69.3395796  31.0273880  29.7600490  74.7022874
  30.3697555  30.4499751  74.7903002  31.8314280  30.1496922  75.0456860
  20.7799762  22.2271136  71.9462439  21.3543514  22.0046317  71.2135632
  21.3670744  22.2959830  72.6991040  29.8379339  28.1144863  72.7526815
  30.3511221  28.7474855  73.2548525  30.4880563  27.5146058  72.3870175
  21.1069349  24.2575597  65.9658324  20.2706661  24.5950283  66.2867599
  20.9674119  24.1224577  65.0285461  23.0822430  19.1012385  70.6737508
  22.4286842  18.7861402  70.0494123  23.0402904  18.4788125  71.3997331
  24.1933635  29.3831680  62.5890800  23.2860696  29.1520933  62.7881949
  24.6904667  28.5869299  62.7764782  27.1001714  38.0929187  65.5087487
  26.4263412  38.3960884  66.1172444  27.4867535  38.8958267  65.1592944
  26.3160170  25.5894318  74.9985156  25.3982731  25.8109265  74.8406844
  26.7320314  25.6640629  74.1396863  27.0995218  26.9885734  70.1287836
  27.8467037  27.5007131  69.8194958  27.3686807  26.6669787  70.9892230
  25.3721868  29.4844275  67.1114790  24.4633087  29.2003307  67.2087260
  25.4016952  29.9043353  66.2518097  30.6041135  33.0950864  70.8805958
  30.1503463  32.2541774  70.9371148  29.9735102  33.7312263  71.2180738
  29.5474055  24.0242850  72.1106625  28.8096812  23.5120236  72.4416868
  29.8000829  23.5843232  71.2989902  29.0474075  34.9327361  71.8155776
  29.3397049  35.4932418  71.0968142  29.5572695  35.2255922  72.5708935
  29.6485682  16.8019102  72.7048395  29.9544559  15.9416466  72.4174310
  30.3738287  17.3936722  72.5047389  15.9410038  27.2049789  71.0929993
  15.7434438  26.6119149  70.3681059  15.3856702  26.9001999  71.8105931
  23.9206762  27.0972895  73.2124586  23.9755372  26.1446732  73.1367062
  23.1097964  27.2532334  73.6965884  25.0697956  31.0253018  64.4502869
  24.6317386  30.3088877  63.9908506  25.8108397  31.2529133  63.8887960
  21.8599122  25.7149955  70.9714965  21.0466988  26.0144126  71.3780157
  22.3558116  25.3205644  71.6889447  24.0107700  35.7107712  72.9049229
  23.9683879  35.9368558  71.9757761  24.9270399  35.4771087  73.0535030
  27.4573334  26.1791779  79.8029859  27.8122721  26.4063253  80.6624324
  28.1045465  26.5110156  79.1807114  33.1871071  29.3010215  70.5079188
  33.0488969  29.4911811  69.5800377  32.8307289  30.0629598  70.9647239
  21.3513197  23.2868311  76.5876200  21.9912576  23.1457070  75.8899163
  20.5190727  23.0002824  76.2114802  33.2140450  31.3686742  75.5190459
  33.6476957  31.2762031  76.3673513  33.9272031  31.3444243  74.8810475
  22.1273501  32.5870741  72.7011192  22.9214099  32.0921061  72.4993767
  21.4165193  32.0588604  72.3378898  26.9468345  34.9688836  77.0523560
  27.0005367  35.5379773  77.8201276  26.0783127  35.1390722  76.6877597
  18.4356264  26.7313823  68.7770945  17.5053852  26.6698278  68.9940907
  18.5313736  26.2089775  67.9807586  18.3541813  23.2568636  71.3649186
  18.6148631  24.1713969  71.2558347  19.1758986  22.7893078  71.5145799
  19.8266739  24.6706393  78.5348011  20.4989792  24.4623755  77.8860660
  18.9996525  24.4728479  78.0953243  34.0756000  31.4110443  78.0523344
  34.2691890  32.3156254  78.2982619  33.9756618  30.9517862  78.8861930
  25.7292311  21.2968334  80.5513672  25.0820226  21.9958283  80.4578148
  26.4993326  21.7304478  80.9189920  29.1371108  31.5617186  83.6264225
  28.9856615  31.3327737  82.7094309  29.1275788  32.5187787  83.6395570
  25.9056445  29.1349098  78.6110492  26.8348505  29.2860258  78.4379459
  25.4847475  29.2233119  77.7559138  24.7044777  33.1599763  76.3809029
  24.5655862  32.7918547  77.2534967  23.9159373  33.6747402  76.2092987
  25.2992929  38.2608859  67.7234566  25.4744684  37.7896903  68.5380188
  24.6125717  38.8874626  67.9515826  26.2549992  32.5381366  73.7697867
  25.9199824  32.4982136  74.6655517  25.7553938  31.8726082  73.2968277
  20.2294236  27.9448996  79.2950448  20.0914034  27.2129234  79.8961987
  21.1399159  27.8557896  79.0134636  29.1909183  29.8837400  64.0434927
  28.5738354  29.1584228  63.9467979  28.7225672  30.6446760  63.7002001
  22.8576536  27.6568955  78.7834128  23.5676155  27.0162147  78.7420746
  22.8145845  27.9081850  79.7060309  30.8463315  34.5936308  81.7040707
  30.7875861  33.9095528  81.0371290  31.2482834  35.3355298  81.2521333
  21.5705470  24.6434173  80.6029767  21.0342827  24.1924911  81.2551364
  20.9822179  24.7780082  79.8600232  19.8654014  41.4098222  74.4974426
  20.1050612  42.0416746  75.1753444  19.0223210  41.0586262  74.7839785
  20.9807729  24.1022824  63.1656231  20.1037196  23.9811625  62.8018478
  21.4565482  23.3108903  62.9135120  30.8480722  32.5575892  79.9354687
  29.9607501  32.2201814  80.0581086  31.4179273  31.8258923  80.1723452
  12.5009870  28.8899984  73.2597738  13.1880909  28.5761714  72.6718753
  12.3457998  29.7941349  72.9864989  17.3044592  23.7790181  77.6882762
  17.2202780  23.1715850  76.9533172  16.4827298  24.2699199  77.6892258
  24.3781876  37.2177345  76.9015930  24.3052047  38.0232316  77.4135234
  23.9359269  37.4169310  76.0763951  24.1671655  36.4549115  70.4118751
  23.3839177  36.9970795  70.5056976  24.8664401  36.9723094  70.8112993
  27.4768306  22.2643744  73.0552957  27.9737005  21.5113706  72.7354027
  26.7055287  22.3008061  72.4896166  35.3298063  27.9684110  74.6971248
  35.3187939  28.8508825  74.3265181  34.4615442  27.6155660  74.5025785
  26.8380559  37.1164179  79.0574088  27.5508532  37.7511643  78.9849990
  26.3470588  37.2128045  78.2414090  28.5598086  31.0215431  70.6291380
  27.6254365  31.1416894  70.4596084  28.7374755  30.1187898  70.3651390
  24.0603274  24.4061127  72.7824641  23.6901062  23.8532167  73.4705547
  24.5562367  23.8019261  72.2299641  31.9470638  26.8632751  71.1641414
  32.4131090  27.6960742  71.0901717  32.3978138  26.3977732  71.8686673
  21.8892473  34.8658622  79.8779659  22.5901932  35.4995105  80.0309054
  21.4187588  35.2073354  79.1175299  30.0146869  33.2076572  68.1627566
  30.2906713  33.0933166  69.0721440  29.1451367  32.8094057  68.1239739
  29.9187300  19.2313338  75.2032316  29.0050380  19.4617564  75.3714523
  30.3480402  19.3151782  76.0546348  29.6893759  27.4203230  77.7032210
  29.0365209  27.6679137  77.0484662  30.0674139  26.6067368  77.3694687
  26.6500933  37.4562923  71.8060380  26.8323327  36.6384579  72.2688132
  27.4733919  37.6730615  71.3685270  26.9843098  36.3831108  69.0675428
  27.5130865  35.8723562  68.4545591  27.2471318  36.0673638  69.9320961
  25.7381332  28.1623041  84.1898247  25.0621969  28.0617170  84.8600622
  26.5608966  28.0062254  84.6534244  17.4860191  34.3994977  76.8110762
  18.0713628  33.6538665  76.9438666  17.2885029  34.7098934  77.6947426
  20.3398846  37.4346225  71.8273204  19.6709221  37.9192352  71.3437244
  20.2011716  37.6815445  72.7416583  12.0777846  26.9700577  75.5315205
  12.1161945  26.4364168  76.3252323  11.5718138  26.4435783  74.9126182
  24.4804115  39.4689968  78.4255863  25.0322423  39.6321590  79.1904948
  24.8210308  40.0594406  77.7535888  19.4568608  21.8165118  79.0277747
  19.5209934  22.6779949  78.6155145  19.3935728  21.2039120  78.2950106
  18.9320880  23.8888250  82.6750782  19.5592919  23.5065328  83.2888306
  18.0748799  23.6702452  83.0406474  29.3314989  34.2951226  84.2804517
  29.8754893  34.9081184  83.7859472  28.7501834  34.8530804  84.7971530
  15.7086423  25.6964680  68.6069137  16.0039864  24.7875358  68.5536190
  14.8074459  25.6752419  68.2850139  27.6172502  37.4171944  75.4119545
  27.4923641  36.6161683  74.9030490  28.2751593  37.9118137  74.9233515
  19.2380670  23.7720676  74.5896685  18.5167256  24.3856644  74.4504158
  20.0273926  24.3078441  74.5113331  29.6807410  35.2180964  77.0399095
  28.7337746  35.0986315  76.9677422  30.0290183  34.3303462  77.1225356
  22.0406984  21.1075103  80.8637337  22.5641386  21.3537399  81.6263646
  21.8219317  21.9395137  80.4440474  17.4374265  23.3778777  68.7308462
  17.1086971  22.4976156  68.5483568  17.7913636  23.3226446  69.6184851
  26.6853844  35.0133680  73.2403447  26.5378806  34.0850387  73.4211017
  27.5107337  35.0353771  72.7560522  20.5516088  23.6651747  69.0983939
  20.8912160  24.1937668  68.3762548  20.9988208  24.0032153  69.8742506
  30.2887966  35.8362239  74.3268320  31.2134513  35.6305100  74.1892771
  30.1203269  35.5878640  75.2357661  23.2459529  22.0488798  78.5487007
  22.9056349  21.2496611  78.9507687  22.5398535  22.3490509  77.9763841
  23.8976001  19.1338110  77.0014330  24.7202070  18.6598588  76.8793221
  24.1414064  19.9128594  77.5013017  22.5384235  22.1626369  67.2977232
  23.2592598  22.5407621  66.7940949  21.9149539  22.8815245  67.4012210
  26.6815358  22.8671518  68.2335564  26.8978972  23.7496155  67.9324393
  26.2009425  22.4757731  67.5041206  21.4214579  25.8257231  74.8106309
  21.2759160  26.1397534  75.7030591  20.9439783  26.4442131  74.2577208
  23.2810962  22.8159779  74.8587199  23.2672531  21.9200872  74.5219497
  23.9983390  22.8230442  75.4925485  25.1337093  23.2497119  76.9040326
  24.8754871  24.1714190  76.9024656  24.6022133  22.8527553  77.5940790
  30.0783282  36.3547906  69.6830411  30.2520159  35.7894329  68.9304264
  30.5712173  37.1548801  69.5009901  15.8960242  28.3662575  77.7493970
  15.3513710  29.1422383  77.8814245  16.7739591  28.7133380  77.5913092
  22.6847858  21.6974159  70.1274769  22.8063769  20.7690805  70.3265656
  22.3949901  21.7112845  69.2153084  25.5539049  19.3829069  73.2641489
  25.5760745  19.4468403  72.3093468  25.9707108  18.5433578  73.4581995
  35.9322673  29.1184329  71.3020711  36.3753819  28.3691654  70.9039834
  35.0549183  29.1094465  70.9194443  31.0658454  35.6714670  66.7827310
  31.7609359  36.2921363  67.0014624  31.4081604  34.8210022  67.0579688
  16.6826263  27.4932471  80.6424127  15.9407999  27.6415107  81.2288758
  16.3619008  27.7540737  79.7790877  32.9649877  33.1214376  68.3114640
  33.4901201  33.4601649  67.5863960  32.8772230  32.1861391  68.1277775
  24.6269926  37.0348450  80.4404517  24.9357052  36.7897596  81.3127217
  25.4245408  37.2395088  79.9523387  24.6490538  39.1886359  72.6709894
  24.2095528  38.6962738  73.3642750  25.3998655  38.6459327  72.4301969
  17.1282877  35.3797900  72.6734522  17.9540897  35.0801672  72.2933165
  16.7776929  34.6105523  73.1224310  22.0964410  34.7324368  74.7432195
  21.4744420  34.0695073  74.4434423  22.7669277  34.7585500  74.0605843
  15.3291482  33.2984227  73.6323455  14.4923390  32.8706401  73.4507457
  15.3015128  33.4916670  74.5694247  22.1688938  23.2106156  84.3364701
  22.2177093  24.0868279  83.9542471  22.7111452  22.6683549  83.7636345
  32.6543783  33.7547280  83.6165838  31.8639327  33.7371418  83.0770338
  32.4177138  34.2935573  84.3714875  32.7741658  30.6039746  80.9298567
  32.8239663  30.4389753  81.8714090  32.6655582  29.7367005  80.5396448
  21.6577917  33.2828292  68.2190656  21.8066038  33.9663756  67.5657329
  22.4644361  33.2633382  68.7340112  30.0645421  26.5870674  82.2457874
  30.9655284  26.4477139  81.9541871  30.1393395  26.7525129  83.1856051
  24.3988226  23.9637529  81.0911060  23.5291536  24.2571095  80.8193649
  24.6347707  24.5477974  81.8118324  34.2759855  33.0236688  81.1740589
  33.9844664  33.3866668  82.0104049  33.6631987  32.3103696  80.9953921
  35.4755538  30.5889567  73.6943159  36.3102429  31.0279371  73.8580719
  35.6114666  30.1128221  72.8751405  32.5247044  28.1469302  79.6420646
  33.0001165  28.3396948  78.8339498  31.6012609  28.2028488  79.3964030
  19.4130550  29.3093469  69.2251725  19.1676592  28.4055799  69.4231935
  19.5826465  29.3110620  68.2831203  27.1027260  20.1817146  78.6076480
  27.6209204  20.9178173  78.2822969  26.7482393  20.4881139  79.4423240
  18.6826198  25.0421827  66.7237886  17.9895443  25.1166182  66.0677922
  18.4377950  24.2782171  67.2459403  27.3539854  16.6017428  74.1277377
  27.6341608  15.9340617  74.7537804  28.1390461  16.7946524  73.6152041
  25.1573323  35.7776422  65.6902403  24.5847290  36.3966609  65.2372875
  25.7306116  36.3275784  66.2242325  31.2248713  25.0235062  77.8748952
  32.1766135  25.1233160  77.8961176  31.0552163  24.2313331  78.3847036
  29.2463092  22.1090645  78.0608353  28.6513024  22.3895658  77.3654842
  28.9612789  22.5984546  78.8325094  28.3770582  36.0613572  66.8210986
  29.3101256  35.9959134  67.0243861  28.2893795  36.8969839  66.3625518
  31.0058599  35.3779443  63.7814933  30.9272231  35.0439306  64.6750691
  31.8268266  35.8701211  63.7806405  33.7036790  28.2441182  76.9891252
  33.6713110  27.3057183  77.1750936  34.3137414  28.3225219  76.2557077
  25.5420121  27.1137235  63.0318456  26.4879226  26.9843443  63.1006874
  25.1634366  26.3751897  63.5087884  33.8531279  25.0352225  77.0349535
  33.3370327  24.2510682  76.8479464  34.7371227  24.7070942  77.1996054
  31.5142006  18.7793241  72.9945348  31.3166827  18.4708329  73.8788680
  32.1241711  19.5054880  73.1243277  39.5213340  29.3057189  76.1297289
  40.2516729  29.0442477  76.6904992  38.9120286  28.5685911  76.1699357
  37.6028637  27.4465051  76.7271740  36.8761801  27.3121016  76.1188231
  37.1875924  27.7541880  77.5328458  25.4258814  31.1654981  84.4919113
  26.3461823  31.3433580  84.6859159  25.3908397  30.2211026  84.3398812
  23.7263038  25.0387211  62.9673341  22.8194494  24.7420324  63.0436055
  24.0039019  24.7417029  62.1007627  14.6440979  26.3593575  73.4172387
  14.3243763  25.5058883  73.1246761  14.0974407  26.5742153  74.1730355
  18.4220886  29.0756016  77.1341894  18.6406896  30.0073124  77.1529928
  18.8346660  28.7163990  77.9196698  25.3425104  19.5824101  69.1217582
  24.5325832  19.2371186  69.4972828  26.0309521  19.2731645  69.7105194
  27.2715652  18.6602148  70.7441879  27.8246691  19.0797601  71.4031902
  27.5085739  17.7337896  70.7864835  23.2948752  24.6489221  86.5244643
  23.1945478  25.5983578  86.4556734  23.0770294  24.3207460  85.6520713
  22.4961823  21.8974147  63.1085320  23.3580987  22.2229045  63.3681138
  22.6812167  21.1105642  62.5958386  14.5129239  29.9796486  75.3865509
  13.8192710  29.5650439  74.8735463  15.2602230  30.0217023  74.7898928
  30.6494459  20.7702673  70.2520543  30.0693128  21.4287477  69.8698596
  30.3830392  19.9480018  69.8407961  29.0998026  20.1707731  72.4541864
  29.5997804  20.2824265  71.6456182  29.7433634  19.8668784  73.0942672
  23.1580022  28.0786360  85.3409705  22.6747103  28.8786720  85.5473594
  23.2440961  28.0894305  84.3877149  16.4265981  29.9114740  73.2631524
  16.4036669  30.0102427  72.3113407  16.7366618  30.7579891  73.5848690
  19.0853359  31.9690895  77.3778138  20.0396613  31.9374837  77.3108070
  18.8865883  31.5081519  78.1928364  19.6752741  30.5392011  79.9448936
  20.4945630  31.0336090  79.9683773  19.9489549  29.6223979  79.9166503
  29.4319337  22.9302763  69.3076891  28.5445192  23.2152414  69.0897086
  29.8473327  22.7696527  68.4604168  32.7833874  22.9549284  73.0231231
  33.5594264  23.4445737  73.2955848  32.0582008  23.3807339  73.4803100
  35.2206432  23.6676904  74.0805171  35.8150923  23.4272640  73.3698480
  35.2933016  22.9484034  74.7078708  17.4403588  37.5110514  74.3948336
  17.3058056  36.7510915  73.8286334  17.0235650  38.2351414  73.9277125
  28.5762551  32.6947438  63.4024911  29.2798401  32.8997441  64.0182567
  27.8525200  33.2624200  63.6673995  29.4060361  28.4457299  69.5227182
  29.3495563  28.9025851  68.6834814  29.9588704  27.6847984  69.3450024
  33.2165167  24.2347031  70.3477301  32.9602101  23.8343667  71.1785509
  32.5918035  24.9490825  70.2227440  37.5277505  26.9743104  72.8548593
  36.9677063  27.0436294  73.6280155  36.9221008  26.7984089  72.1348089
  20.5972714  38.4079832  74.6066779  20.4805098  39.3525264  74.5045469
  19.7765160  38.1053393  74.9952578  30.4849248  33.1329967  65.4523372
  31.3194852  32.7011166  65.2700846  30.3233591  32.9611981  66.3800266
  30.1395141  29.6362081  66.8179711  30.0843944  29.4706352  65.8768155
  29.5141196  30.3438113  66.9741901  14.9287655  24.8730145  80.6441133
  15.5746519  24.3629099  81.1328358  14.7204807  25.6098827  81.2184558
  27.4541048  31.9410992  86.1433274  28.3232207  32.1151645  85.7819909
  26.9747799  32.7605409  86.0209003  23.4491266  19.1370190  66.3965029
  23.4369936  20.0812029  66.5533300  24.3414688  18.9540335  66.1024490
  21.6227228  39.0608093  77.8222707  22.5254475  39.0931704  78.1389202
  21.3964598  38.1308544  77.8369043  23.3780830  37.8139080  74.4832786
  22.4276461  37.8140942  74.3697158  23.6813316  37.0671815  73.9668820
  27.2643385  15.7312966  70.6510966  26.4975781  15.1771453  70.7967648
  27.6754090  15.8034835  71.5125118  19.2685146  22.0197762  84.7416147
  20.1316608  21.6634567  84.9519472  18.6950557  21.6811657  85.4291552
  39.1133523  43.6499618  75.5478548  39.7511933  43.5306366  74.8441888
  38.9954366  44.5980462  75.6066500  35.9223230  43.6027046  75.4840073
  35.5841741  43.4868111  74.5960608  36.7912998  43.2018212  75.4641079
  31.7810045  45.4562523  71.4736964  31.2174911  45.3652460  70.7053252
  31.6662440  44.6362427  71.9539456  36.4043013  44.7561898  81.4426278
  36.3931653  44.3614696  80.5706782  36.5663652  44.0227971  82.0360050
  29.3274477  46.9513714  74.3121184  30.1195769  46.6104539  73.8967484
  29.5671127  47.0608689  75.2323338  37.3609604  49.1233491  66.7851429
  36.7097584  49.7087571  66.3985443  38.1553967  49.6539685  66.8446466
  31.2865231  46.2122628  67.1838563  32.0596107  45.6651615  67.0451439
  31.6390630  47.0766877  67.3953025  34.0506481  44.9175858  76.9806822
  34.6470053  44.6931881  76.2663785  34.1081452  44.1760604  77.5832270
  33.6231509  42.3715294  64.8157013  33.8757030  41.8496815  64.0540476
  32.6856068  42.2081439  64.9183697  38.6674792  41.3751072  72.6231756
  39.4537881  40.9570495  72.2722173  38.9313496  42.2797164  72.7913405
  38.8384869  46.8123922  67.3220413  38.2030702  46.8858549  68.0341318
  38.5082276  47.4017521  66.6439492  44.0683219  41.3126305  73.5264735
  44.8008391  40.7425522  73.7602564  43.3122575  40.9247906  73.9671240
  33.3427798  44.2743400  67.0181388  33.2264056  43.5988303  67.6862472
  33.4530058  43.7875774  66.2013541  35.6859339  43.7353547  70.7228077
  35.3217546  43.2084168  71.4340999  36.5426455  43.3452016  70.5494563
  35.3264826  38.7643447  65.7189426  35.4939228  39.6323683  66.0859897
  35.1361995  38.9270728  64.7950715  31.5352640  43.6774222  73.4191961
  30.6103137  43.5450436  73.6269652  31.7837054  44.4568442  73.9161903
  41.4837303  39.7442966  75.0652693  40.5754180  39.6758374  74.7711454
  41.4324898  40.2214911  75.8934519  35.3054047  41.2201104  66.7036093
  35.1853672  41.6658155  67.5421573  34.6106635  41.5686422  66.1449631
  28.8961451  43.3207496  74.2535750  29.0253833  43.5741975  75.1675161
  28.2158903  43.9135204  73.9340405  35.5578168  41.1632611  83.0087591
  34.7811503  41.7226531  82.9990455  36.1968732  41.6489394  83.5302461
  43.3498949  37.9459404  76.8430567  42.7073329  38.2391937  76.1970362
  42.8453878  37.8312324  77.6483764  41.0039113  41.6922577  67.5316427
  41.9156969  41.9249964  67.3564124  40.4948760  42.2759621  66.9691505
  33.8124541  43.9718065  82.5705558  34.5539225  44.5103109  82.2940381
  33.1061526  44.5984353  82.7277110  35.6410950  41.0519812  78.5411276
  36.4872146  41.4759225  78.6845925  35.5809588  40.3953436  79.2349839
  39.6108695  46.6748396  74.9230008  38.9817558  46.8394110  74.2206076
  39.2234357  47.0890005  75.6940972  43.4897927  47.6102834  72.2774372
  42.8048965  47.9901735  71.7271405  43.5741776  48.2198160  73.0106320
  38.7910396  38.7124180  80.1992450  38.5471328  39.4666241  79.6626726
  39.0670326  39.0909528  81.0339697  40.7448859  45.2562793  78.8769715
  40.9565754  45.8994552  78.2004096  40.6978607  44.4225109  78.4091645
  38.3475088  37.8680613  75.7806288  37.4859567  38.1661867  76.0723025
  38.3737522  38.0851012  74.8487320  35.1636657  46.4122804  72.1880093
  35.6275002  46.6910507  71.3984716  34.8993455  45.5106248  72.0053184
  32.0560738  45.9594285  75.1259856  32.6262095  46.3881554  74.4877341
  32.6468850  45.6776870  75.8244042  34.1005543  42.5345956  68.9969658
  34.8029586  42.9867000  69.4643585  33.7686172  41.8929775  69.6249551
  32.5485905  41.1257713  83.3720868  31.9184565  41.8073994  83.6056265
  32.4421992  41.0140794  82.4274006  27.8430877  40.7929509  74.2986792
  27.0529931  41.0487037  73.8226903  28.3342124  41.6077847  74.4038832
  29.7945622  41.1574088  71.2570269  28.9976786  41.2692782  71.7753764
  29.5671215  41.4960740  70.3911159  26.1268580  41.0459999  76.7301783
  26.3776618  41.9307009  76.9959359  26.6628128  40.8664601  75.9576875
  31.8266647  35.4278479  85.7346119  31.4333593  34.8744677  86.4093763
  32.6432788  35.7389057  86.1252636  28.7928705  46.8662337  69.6459689
  29.3053226  47.6605587  69.7965253  29.4451418  46.1688627  69.5793290
  30.6023590  49.9828093  71.7282442  30.7790218  50.9046058  71.5403426
  31.3980423  49.6686512  72.1576822  34.7434608  36.8436358  83.3266375
  35.4844322  37.4443511  83.2470838  34.9752531  36.1013996  82.7684418
  29.8875946  42.0292725  81.6044605  29.7729461  41.1277982  81.9051704
  29.0320464  42.2756422  81.2529422  38.6891771  32.8717461  77.6030657
  38.3456041  33.7619102  77.5269768  39.0570734  32.6819118  76.7400242
  26.7577622  45.1950991  70.4219259  27.5952844  45.6047999  70.2052967
  26.9355890  44.2550433  70.3919453  38.6542054  42.8626072  66.1103092
  38.1388677  43.6330676  66.3491480  38.3819362  42.1891208  66.7336154
  36.2389165  37.7075773  71.1688331  35.3830761  37.3182623  70.9893969
  36.6516117  37.7867733  70.3088116  37.7688312  35.2422116  75.5679890
  37.2653107  35.2052251  74.7547696  38.0618918  36.1514859  75.6276547
  34.0131197  35.3260846  74.5746072  34.8784194  35.1303654  74.2151961
  34.0808706  35.0971197  75.5015429  43.6276328  45.6158426  68.0456266
  42.8505771  45.2769586  67.6011428  44.3067809  45.6211050  67.3711231
  38.4428357  40.7353164  67.9362873  38.1378493  41.0499313  68.7873017
  39.3958799  40.8134584  67.9790206  36.8874789  46.8943387  69.5855827
  36.3596151  46.1596147  69.2729065  36.3862292  47.6718064  69.3395796
  41.8667635  45.0892408  74.7022874  41.2091309  45.7791669  74.7903002
  42.6708034  45.4788840  75.0456860  31.6193517  37.5563053  71.9462439
  32.1937268  37.3338235  71.2135632  32.2064499  37.6251748  72.6991040
  40.6773094  43.4436780  72.7526815  41.1904976  44.0766772  73.2548525
  41.3274318  42.8437976  72.3870175  31.9463104  39.5867514  65.9658324
  31.1100416  39.9242201  66.2867599  31.8067873  39.4516494  65.0285461
  33.9216184  34.4304302  70.6737508  33.2680597  34.1153320  70.0494123
  33.8796658  33.8080043  71.3997331  35.0327389  44.7123597  62.5890800
  34.1254451  44.4812851  62.7881949  35.5298421  43.9161217  62.7764782
  37.9395468  53.4221105  65.5087487  37.2657167  53.7252801  66.1172444
  38.3261290  54.2250185  65.1592944  37.1553925  40.9186236  74.9985156
  36.2376486  41.1401183  74.8406844  37.5714068  40.9932546  74.1396863
  37.9388972  42.3177652  70.1287836  38.6860791  42.8299049  69.8194958
  38.2080562  41.9961704  70.9892230  36.2115623  44.8136192  67.1114790
  35.3026842  44.5295225  67.2087260  36.2410706  45.2335271  66.2518097
  41.4434890  48.4242782  70.8805958  40.9897217  47.5833692  70.9371148
  40.8128857  49.0604180  71.2180738  40.3867810  39.3534768  72.1106625
  39.6490566  38.8412154  72.4416868  40.6394583  38.9135149  71.2989902
  40.4879437  32.1311020  72.7048395  40.7938314  31.2708383  72.4174310
  41.2132042  32.7228640  72.5047389  26.7803793  42.5341706  71.0929993
  26.5828193  41.9411067  70.3681059  26.2250457  42.2293917  71.8105931
  34.7600517  42.4264813  73.2124586  34.8149126  41.4738649  73.1367062
  33.9491719  42.5824252  73.6965884  35.9091710  46.3544936  64.4502869
  35.4711140  45.6380795  63.9908506  36.6502151  46.5821051  63.8887960
  32.6992877  41.0441873  70.9714965  31.8860742  41.3436043  71.3780157
  33.1951871  40.6497561  71.6889447  38.2967088  41.5083697  79.8029859
  38.6516476  41.7355170  80.6624324  38.9439219  41.8402074  79.1807114
  44.0264825  44.6302133  70.5079188  43.8882724  44.8203729  69.5800377
  43.6701044  45.3921516  70.9647239  32.1906951  38.6160228  76.5876200
  32.8306331  38.4748987  75.8899163  31.3584482  38.3294742  76.2114802
  44.0534205  46.6978660  75.5190459  44.4870711  46.6053949  76.3673513
  44.7665785  46.6736160  74.8810475  32.9667255  47.9162659  72.7011192
  33.7607854  47.4212979  72.4993767  32.2558948  47.3880522  72.3378898
  29.2750019  42.0605740  68.7770945  28.3447607  41.9990196  68.9940907
  29.3707491  41.5381693  67.9807586  29.1935568  38.5860553  71.3649186
  29.4542385  39.5005886  71.2558347  30.0152740  38.1184996  71.5145799
  30.6660493  39.9998310  78.5348011  31.3383546  39.7915672  77.8860660
  29.8390280  39.8020396  78.0953243  36.5686065  36.6260251  80.5513672
  35.9213980  37.3250201  80.4578148  37.3387080  37.0596395  80.9189920
  37.0943746  47.8673283  73.7697867  36.7593579  47.8274053  74.6655517
  36.5947692  47.2017999  73.2968277  31.0687990  43.2740913  79.2950448
  30.9307788  42.5421152  79.8961987  31.9792914  43.1849813  79.0134636
  40.0302938  45.2129318  64.0434927  39.4132109  44.4876146  63.9467979
  39.5619426  45.9738678  63.7002001  33.6970291  42.9860873  78.7834128
  34.4069909  42.3454065  78.7420746  33.6539599  43.2373767  79.7060309
  32.4099225  39.9726091  80.6029767  31.8736582  39.5216829  81.2551364
  31.8215933  40.1071999  79.8600232  31.8201484  39.4314742  63.1656231
  30.9430950  39.3103543  62.8018478  32.2959237  38.6400820  62.9135120
  23.3403624  44.2191902  73.2597738  24.0274664  43.9053632  72.6718753
  23.1851753  45.1233266  72.9864989  28.1438346  39.1082098  77.6882762
  28.0596535  38.5007768  76.9533172  27.3221053  39.5991117  77.6892258
  38.3162060  37.5935662  73.0552957  38.8130760  36.8405624  72.7354027
  37.5449042  37.6299978  72.4896166  39.3991841  46.3507349  70.6291380
  38.4648119  46.4708811  70.4596084  39.5768509  45.4479816  70.3651390
  34.8997029  39.7353045  72.7824641  34.5294816  39.1824085  73.4705547
  35.3956121  39.1311178  72.2299641  42.7864392  42.1924668  71.1641414
  43.2524844  43.0252660  71.0901717  43.2371893  41.7269650  71.8686673
  40.8540623  48.5368490  68.1627566  41.1300467  48.4225084  69.0721440
  39.9845122  48.1385974  68.1239739  40.7581055  34.5605255  75.2032316
  39.8444135  34.7909482  75.3714523  41.1874156  34.6443699  76.0546348
  40.5287513  42.7495147  77.7032210  39.8758964  42.9971055  77.0484662
  40.9067893  41.9359285  77.3694687  36.5775086  43.4914958  84.1898247
  35.9015723  43.3909088  84.8600622  37.4002720  43.3354172  84.6534244
  28.3253945  49.7286895  76.8110762  28.9107382  48.9830583  76.9438666
  28.1278784  50.0390852  77.6947426  22.9171600  42.2992495  75.5315205
  22.9555700  41.7656086  76.3252323  22.4111893  41.7727701  74.9126182
  30.2962362  37.1457036  79.0277747  30.3603689  38.0071866  78.6155145
  30.2329483  36.5331037  78.2950106  29.7714635  39.2180168  82.6750782
  30.3986674  38.8357245  83.2888306  28.9142554  38.9994370  83.0406474
  26.5480178  41.0256597  68.6069137  26.8433619  40.1167276  68.5536190
  25.6468213  41.0044337  68.2850139  30.0774425  39.1012594  74.5896685
  29.3561010  39.7148561  74.4504158  30.8667680  39.6370359  74.5113331
  32.8800738  36.4367020  80.8637337  33.4035140  36.6829317  81.6263646
  32.6613072  37.2687055  80.4440474  28.2768019  38.7070695  68.7308462
  27.9480725  37.8268074  68.5483568  28.6307390  38.6518364  69.6184851
  37.5247598  50.3425598  73.2403447  37.3772561  49.4142305  73.4211017
  38.3501092  50.3645688  72.7560522  31.3909842  38.9943665  69.0983939
  31.7305915  39.5229586  68.3762548  31.8381963  39.3324071  69.8742506
  34.0853283  37.3780715  78.5487007  33.7450104  36.5788528  78.9507687
  33.3792290  37.6782426  77.9763841  34.7369755  34.4630028  77.0014330
  35.5595824  33.9890506  76.8793221  34.9807819  35.2420512  77.5013017
  33.3777990  37.4918286  67.2977232  34.0986352  37.8699539  66.7940949
  32.7543294  38.2107163  67.4012210  37.5209112  38.1963435  68.2335564
  37.7372727  39.0788073  67.9324393  37.0403180  37.8049649  67.5041206
  32.2608334  41.1549148  74.8106309  32.1152915  41.4689451  75.7030591
  31.7833537  41.7734049  74.2577208  34.1204717  38.1451696  74.8587199
  34.1066286  37.2492790  74.5219497  34.8377145  38.1522360  75.4925485
  35.9730847  38.5789037  76.9040326  35.7148625  39.5006107  76.9024656
  35.4415888  38.1819471  77.5940790  26.7353996  43.6954493  77.7493970
  26.1907464  44.4714301  77.8814245  27.6133346  44.0425297  77.5913092
  33.5241613  37.0266077  70.1274769  33.6457524  36.0982723  70.3265656
  33.2343655  37.0404763  69.2153084  36.3932803  34.7120987  73.2641489
  36.4154500  34.7760320  72.3093468  36.8100862  33.8725496  73.4581995
  46.7716427  44.4476247  71.3020711  47.2147573  43.6983572  70.9039834
  45.8942938  44.4386383  70.9194443  41.9052209  51.0006588  66.7827310
  42.6003113  51.6213281  67.0014624  42.2475359  50.1501939  67.0579688
  27.5220018  42.8224389  80.6424127  26.7801754  42.9707024  81.2288758
  27.2012762  43.0832655  79.7790877  43.8043632  48.4506294  68.3114640
  44.3294956  48.7893566  67.5863960  43.7165984  47.5153309  68.1277775
  27.9676632  50.7089818  72.6734522  28.7934651  50.4093590  72.2933165
  27.6170684  49.9397440  73.1224310  32.9358165  50.0616286  74.7432195
  32.3138174  49.3986991  74.4434423  33.6063032  50.0877418  74.0605843
  26.1685237  48.6276144  73.6323455  25.3317145  48.1998319  73.4507457
  26.1408882  48.8208588  74.5694247  33.0082692  38.5398074  84.3364701
  33.0570848  39.4160197  83.9542471  33.5505206  37.9975467  83.7636345
  32.4971672  48.6120209  68.2190656  32.6459792  49.2955674  67.5657329
  33.3038115  48.5925299  68.7340112  40.9039175  41.9162592  82.2457874
  41.8049038  41.7769057  81.9541871  40.9787150  42.0817047  83.1856051
  35.2381981  39.2929446  81.0911060  34.3685290  39.5863013  80.8193649
  35.4741461  39.8769891  81.8118324  46.3149292  45.9181485  73.6943159
  47.1496183  46.3571289  73.8580719  46.4508421  45.4420138  72.8751405
  43.3640798  43.4761220  79.6420646  43.8394920  43.6688866  78.8339498
  42.4406363  43.5320406  79.3964030  30.2524305  44.6385387  69.2251725
  30.0070347  43.7347717  69.4231935  30.4220219  44.6402537  68.2831203
  37.9421015  35.5109063  78.6076480  38.4602958  36.2470090  78.2822969
  37.5876147  35.8173057  79.4423240  29.5219952  40.3713745  66.7237886
  28.8289197  40.4458100  66.0677922  29.2771704  39.6074088  67.2459403
  38.1933609  31.9309346  74.1277377  38.4735362  31.2632535  74.7537804
  38.9784216  32.1238442  73.6152041  35.9967077  51.1068340  65.6902403
  35.4241044  51.7258527  65.2372875  36.5699871  51.6567702  66.2242325
  42.0642467  40.3526980  77.8748952  43.0159890  40.4525078  77.8961176
  41.8945917  39.5605248  78.3847036  40.0856846  37.4382563  78.0608353
  39.4906779  37.7187576  77.3654842  39.8006543  37.9276464  78.8325094
  39.2164337  51.3905490  66.8210986  40.1495010  51.3251052  67.0243861
  39.1287550  52.2261757  66.3625518  41.8452354  50.7071360  63.7814933
  41.7665985  50.3731224  64.6750691  42.6662020  51.1993128  63.7806405
  44.5430545  43.5733100  76.9891252  44.5106865  42.6349100  77.1750936
  45.1531168  43.6517136  76.2557077  36.3813876  42.4429153  63.0318456
  37.3272980  42.3135361  63.1006874  36.0028121  41.7043814  63.5087884
  44.6925033  40.3644143  77.0349535  44.1764082  39.5802600  76.8479464
  45.5764982  40.0362860  77.1996054  42.3535760  34.1085159  72.9945348
  42.1560581  33.8000247  73.8788680  42.9635466  34.8346798  73.1243277
  34.5656793  40.3679129  62.9673341  33.6588248  40.0712242  63.0436055
  34.8432774  40.0708947  62.1007627  25.4834733  41.6885492  73.4172387
  25.1637518  40.8350801  73.1246761  24.9368161  41.9034071  74.1730355
  29.2614641  44.4047933  77.1341894  29.4800651  45.3365041  77.1529928
  29.6740415  44.0455908  77.9196698  36.1818859  34.9116019  69.1217582
  35.3719587  34.5663104  69.4972828  36.8703275  34.6023562  69.7105194
  38.1109407  33.9894065  70.7441879  38.6640445  34.4089519  71.4031902
  38.3479493  33.0629814  70.7864835  34.1342506  39.9781139  86.5244643
  34.0339233  40.9275496  86.4556734  33.9164048  39.6499378  85.6520713
  33.3355577  37.2266064  63.1085320  34.1974741  37.5520962  63.3681138
  33.5205922  36.4397560  62.5958386  25.3522993  45.3088404  75.3865509
  24.6586465  44.8942357  74.8735463  26.0995984  45.3508940  74.7898928
  41.4888214  36.0994591  70.2520543  40.9086883  36.7579395  69.8698596
  41.2224147  35.2771935  69.8407961  39.9391780  35.4999648  72.4541864
  40.4391559  35.6116183  71.6456182  40.5827388  35.1960701  73.0942672
  33.9973776  43.4078278  85.3409705  33.5140858  44.2078638  85.5473594
  34.0834715  43.4186223  84.3877149  27.2659736  45.2406658  73.2631524
  27.2430424  45.3394345  72.3113407  27.5760372  46.0871808  73.5848690
  29.9247114  47.2982813  77.3778138  30.8790367  47.2666755  77.3108070
  29.7259637  46.8373436  78.1928364  30.5146496  45.8683929  79.9448936
  31.3339385  46.3628007  79.9683773  30.7883303  44.9515897  79.9166503
  40.2713092  38.2594681  69.3076891  39.3838947  38.5444332  69.0897086
  40.6867081  38.0988444  68.4604168  43.6227628  38.2841202  73.0231231
  44.3988018  38.7737654  73.2955848  42.8975762  38.7099256  73.4803100
  46.0600187  38.9968821  74.0805171  46.6544678  38.7564557  73.3698480
  46.1326770  38.2775952  74.7078708  28.2797342  52.8402432  74.3948336
  28.1451810  52.0802833  73.8286334  27.8629405  53.5643332  73.9277125
  39.4156305  48.0239356  63.4024911  40.1192156  48.2289358  64.0182567
  38.6918954  48.5916118  63.6673995  40.2454116  43.7749217  69.5227182
  40.1889317  44.2317768  68.6834814  40.7982458  43.0139902  69.3450024
  44.0558922  39.5638949  70.3477301  43.7995856  39.1635584  71.1785509
  43.4311790  40.2782743  70.2227440  31.4366468  53.7371749  74.6066779
  31.3198852  54.6817182  74.5045469  30.6158915  53.4345311  74.9952578
  41.3243003  48.4621885  65.4523372  42.1588607  48.0303083  65.2700846
  41.1627346  48.2903899  66.3800266  40.9788895  44.9653998  66.8179711
  40.9237699  44.7998270  65.8768155  40.3534950  45.6730031  66.9741901
  25.7681410  40.2022063  80.6441133  26.4140274  39.6921017  81.1328358
  25.5598561  40.9390744  81.2184558  34.2885020  34.4662107  66.3965029
  34.2763690  35.4103947  66.5533300  35.1808442  34.2832253  66.1024490
  38.1037140  31.0604884  70.6510966  37.3369536  30.5063371  70.7967648
  38.5147845  31.1326753  71.5125118  30.1078901  37.3489680  84.7416147
  30.9710363  36.9926485  84.9519472  29.5344312  37.0103574  85.4291552
  44.4625264  57.7007211  64.8157013  44.7150784  57.1788733  64.0540476
  43.5249823  57.5373357  64.9183697  49.6778624  62.1415840  67.3220413
  49.0424457  62.2150467  68.0341318  49.3476030  62.7309439  66.6439492
  44.1821552  59.6035317  67.0181388  44.0657810  58.9280221  67.6862472
  44.2923812  59.1167691  66.2013541  46.1658580  54.0935364  65.7189426
  46.3332983  54.9615601  66.0859897  45.9755749  54.2562646  64.7950715
  46.1447801  56.5493022  66.7036093  46.0247426  56.9950073  67.5421573
  45.4500389  56.8978339  66.1449631  51.8432867  57.0214495  67.5316427
  52.7550723  57.2541882  67.3564124  51.3342514  57.6051539  66.9691505
  44.9399298  57.8637874  68.9969658  45.6423341  58.3158918  69.4643585
  44.6079926  57.2221693  69.6249551  49.4935808  58.1917989  66.1103092
  48.9782432  58.9622594  66.3491480  49.2213117  57.5183126  66.7336154
  42.7856858  54.9159432  65.9658324  41.9494170  55.2534119  66.2867599
  42.6461628  54.7808412  65.0285461  44.7609939  49.7596220  70.6737508
  44.1074351  49.4445237  70.0494123  44.7190413  49.1371961  71.3997331
  45.8721144  60.0415515  62.5890800  44.9648205  59.8104769  62.7881949
  46.3692176  59.2453134  62.7764782  48.7789222  68.7513022  65.5087487
  48.1050921  69.0544719  66.1172444  49.1655044  69.5542103  65.1592944
  47.0509377  60.1428110  67.1114790  46.1420596  59.8587143  67.2087260
  47.0804461  60.5627189  66.2518097  46.7485465  61.6836854  64.4502869
  46.3104895  60.9672713  63.9908506  47.4895906  61.9112968  63.8887960
  46.9780438  68.9192695  67.7234566  47.1532193  68.4480738  68.5380188
  46.2913226  69.5458461  67.9515826  50.8696692  60.5421235  64.0434927
  50.2525863  59.8168063  63.9467979  50.4013181  61.3030596  63.7002001
  42.6595238  54.7606660  63.1656231  41.7824705  54.6395460  62.8018478
  43.1352991  53.9692738  62.9135120  51.6934378  63.8660407  68.1627566
  51.9694222  63.7517002  69.0721440  50.8238876  63.4677892  68.1239739
  44.2171744  52.8210204  67.2977232  44.9380107  53.1991457  66.7940949
  43.5937048  53.5399081  67.4012210  52.7445963  66.3298506  66.7827310
  53.4396868  66.9505198  67.0014624  53.0869113  65.4793857  67.0579688
  40.3613707  55.7005662  66.7237886  39.6682952  55.7750017  66.0677922
  40.1165459  54.9366006  67.2459403  46.8360832  66.4360257  65.6902403
  46.2634799  67.0550445  65.2372875  47.4093625  66.9859619  66.2242325
  50.0558091  66.7197408  66.8210986  50.9888765  66.6542969  67.0243861
  49.9681304  67.5553674  66.3625518  52.6846108  66.0363278  63.7814933
  52.6059740  65.7023142  64.6750691  53.5055775  66.5285046  63.7806405
  47.2207630  57.7721070  63.0318456  48.1666735  57.6427278  63.1006874
  46.8421875  57.0335732  63.5087884  45.4050547  55.6971047  62.9673341
  44.4982003  55.4004159  63.0436055  45.6826528  55.4000865  62.1007627
  47.0212613  50.2407936  69.1217582  46.2113341  49.8955021  69.4972828
  47.7097030  49.9315480  69.7105194  44.1749332  52.5557982  63.1085320
  45.0368496  52.8812880  63.3681138  44.3599676  51.7689478  62.5958386
  50.2550060  63.3531273  63.4024911  50.9585910  63.5581276  64.0182567
  49.5312709  63.9208035  63.6673995  54.8952676  54.8930866  70.3477301
  54.6389610  54.4927502  71.1785509  54.2705544  55.6074660  70.2227440
  52.1636757  63.7913803  65.4523372  52.9982361  63.3595001  65.2700846
  52.0021100  63.6195816  66.3800266  45.1278775  49.7954025  66.3965029
  45.1157445  50.7395865  66.5533300  46.0202197  49.6124170  66.1024490
  60.7921032  74.3083454  75.5478548  61.4299442  74.1890201  74.8441888
  60.6741875  75.2564298  75.6066500  57.6010739  74.2610882  75.4840073
  57.2629250  74.1451946  74.5960608  58.4700507  73.8602047  75.4641079
  53.4597554  76.1146358  71.4736964  52.8962420  76.0236295  70.7053252
  53.3449949  75.2946263  71.9539456  58.0830522  75.4145734  81.4426278
  58.0719162  75.0198532  80.5706782  58.2451161  74.6811806  82.0360050
  51.0061986  77.6097550  74.3121184  51.7983278  77.2688374  73.8967484
  51.2458636  77.7192525  75.2323338  59.0397113  79.7817326  66.7851429
  58.3885093  80.3671406  66.3985443  59.8341476  80.3123521  66.8446466
  52.9652740  76.8706463  67.1838563  53.7383616  76.3235450  67.0451439
  53.3178139  77.7350712  67.3953025  54.8037783  78.1982845  80.3905462
  54.5127649  79.1028476  80.2752129  55.4394767  78.2399373  81.1049532
  55.7293990  75.5759694  76.9806822  56.3257562  75.3515716  76.2663785
  55.7868961  74.8344439  77.5832270  55.3019018  73.0299129  64.8157013
  55.5544539  72.5080650  64.0540476  54.3643577  72.8665275  64.9183697
  60.3462301  72.0334908  72.6231756  61.1325390  71.6154331  72.2722173
  60.6101005  72.9381000  72.7913405  55.0215307  74.9327235  67.0181388
  54.9051565  74.2572139  67.6862472  55.1317567  74.4459609  66.2013541
  57.3646848  74.3937382  70.7228077  57.0005055  73.8668003  71.4340999
  58.2213964  74.0035851  70.5494563  57.0052335  69.4227282  65.7189426
  57.1726737  70.2907518  66.0859897  56.8149504  69.5854564  64.7950715
  53.2140149  74.3358058  73.4191961  52.2890646  74.2034272  73.6269652
  53.4624563  75.1152277  73.9161903  56.9841556  71.8784939  66.7036093
  56.8641181  72.3241990  67.5421573  56.2894144  72.2270257  66.1449631
  50.5748960  73.9791331  74.2535750  50.7041342  74.2325810  75.1675161
  49.8946412  74.5719039  73.9340405  54.7448448  84.6488581  70.3526224
  54.6672477  85.5996406  70.4314704  54.1410091  84.3034454  71.0101150
  62.6826622  72.3506413  67.5316427  63.5944478  72.5833799  67.3564124
  62.1736269  72.9343457  66.9691505  55.4912050  74.6301900  82.5705558
  56.2326734  75.1686944  82.2940381  54.7849035  75.2568189  82.7277110
  60.9667389  76.7731040  81.1677719  61.3750745  76.3313451  80.4232352
  60.2444651  76.1983668  81.4211912  56.8424166  77.0706639  72.1880093
  57.3062511  77.3494342  71.3984716  56.5780964  76.1690084  72.0053184
  53.7348247  76.6178121  75.1259856  54.3049604  77.0465389  74.4877341
  54.3256359  76.3360705  75.8244042  55.7793052  73.1929792  68.9969658
  56.4817095  73.6450835  69.4643585  55.4473680  72.5513610  69.6249551
  57.3038799  78.3402627  79.2052783  57.3683231  78.8023034  80.0410955
  56.5949723  77.7099992  79.3335093  57.0186817  80.0070734  69.0731764
  56.8832491  80.8522270  69.5016611  57.5596629  80.2090012  68.3097697
  50.4716214  77.5246172  69.6459689  50.9840735  78.3189422  69.7965253
  51.1238927  76.8272463  69.5793290  52.2811099  80.6411928  71.7282442
  52.4577727  81.5629893  71.5403426  53.0767932  80.3270348  72.1576822
  58.6455293  80.6294301  83.2032106  58.2019147  79.8430679  82.8853010
  59.3072507  80.8173451  82.5375996  53.4042414  82.1590102  77.7292784
  53.9549839  82.0307166  76.9569778  52.5653890  82.4584991  77.3787677
  60.7436531  80.9097101  81.2313507  60.7255006  81.7305982  80.7393776
  61.6656451  80.7851176  81.4563648  57.2009585  78.4241230  82.0737015
  57.7337922  77.6629518  81.8436323  56.6723666  78.1314882  82.8161170
  48.4365131  75.8534826  70.4219259  49.2740353  76.2631835  70.2052967
  48.6143398  74.9134269  70.3919453  60.3329563  73.5209907  66.1103092
  59.8176186  74.2914512  66.3491480  60.0606871  72.8475043  66.7336154
  57.9176674  68.3659608  71.1688331  57.0618270  67.9766458  70.9893969
  58.3303626  68.4451569  70.3088116  60.1215866  71.3936999  67.9362873
  59.8166002  71.7083148  68.7873017  61.0746308  71.4718419  67.9790206
  62.3560603  74.1020616  72.7526815  62.8692484  74.7350608  73.2548525
  63.0061827  73.5021811  72.3870175  53.6250613  70.2451350  65.9658324
  52.7887925  70.5826036  66.2867599  53.4855382  70.1100330  65.0285461
  55.6003693  65.0888138  70.6737508  54.9468106  64.7737155  70.0494123
  55.5584167  64.4663878  71.3997331  56.7114898  75.3707433  62.5890800
  55.8041960  75.1396686  62.7881949  57.2085930  74.5745052  62.7764782
  59.6176481  72.9761487  70.1287836  60.3648300  73.4882884  69.8194958
  59.8868071  72.6545540  70.9892230  57.8903132  75.4720028  67.1114790
  56.9814351  75.1879060  67.2087260  57.9198215  75.8919106  66.2518097
  56.4388026  73.0848648  73.2124586  56.4936635  72.1322485  73.1367062
  55.6279228  73.2408087  73.6965884  57.5879219  77.0128771  64.4502869
  57.1498649  76.2964630  63.9908506  58.3289660  77.2404886  63.8887960
  54.3780385  71.7025708  70.9714965  53.5648251  72.0019879  71.3780157
  54.8739380  71.3081397  71.6889447  56.5288963  81.6983465  72.9049229
  56.4865142  81.9244311  71.9757761  57.4451662  81.4646840  73.0535030
  65.7052334  75.2885968  70.5079188  65.5670233  75.4787564  69.5800377
  65.3488553  76.0505351  70.9647239  54.6454764  78.5746494  72.7011192
  55.4395363  78.0796814  72.4993767  53.9346457  78.0464357  72.3378898
  50.9537528  72.7189576  68.7770945  50.0235116  72.6574031  68.9940907
  51.0495000  72.1965528  67.9807586  61.6552372  77.5492939  83.6264225
  61.5037878  77.3203490  82.7094309  61.6457051  78.5063540  83.6395570
  58.4237708  75.1224852  78.6110492  59.3529768  75.2736011  78.4379459
  58.0028738  75.2108872  77.7559138  57.2226040  79.1475516  76.3809029
  57.0837126  78.7794300  77.2534967  56.4340636  79.6623155  76.2092987
  58.7731255  78.5257119  73.7697867  58.4381088  78.4857889  74.6655517
  58.2735201  77.8601835  73.2968277  52.7475499  73.9324749  79.2950448
  52.6095297  73.2004988  79.8961987  53.6580423  73.8433649  79.0134636
  61.7090447  75.8713153  64.0434927  61.0919618  75.1459981  63.9467979
  61.2406935  76.6322513  63.7002001  55.3757800  73.6444708  78.7834128
  56.0857418  73.0037900  78.7420746  55.3327108  73.8957603  79.7060309
  52.3835277  87.3973975  74.4974426  52.6231876  88.0292499  75.1753444
  51.5404474  87.0462015  74.7839785  53.4988993  70.0898577  63.1656231
  52.6218459  69.9687378  62.8018478  53.9746746  69.2984656  62.9135120
  56.8963139  83.2053098  76.9015930  56.8233311  84.0108069  77.4135234
  56.4540532  83.4045063  76.0763951  56.6852919  82.4424868  70.4118751
  55.9020441  82.9846548  70.5056976  57.3845664  82.9598847  70.8112993
  56.5784538  70.3936880  72.7824641  56.2082325  69.8407920  73.4705547
  57.0743630  69.7895014  72.2299641  64.4651901  72.8508504  71.1641414
  64.9312353  73.6836495  71.0901717  64.9159402  72.3853485  71.8686673
  54.4073736  80.8534375  79.8779659  55.1083196  81.4870858  80.0309054
  53.9368851  81.1949107  79.1175299  59.1682196  83.4438676  71.8060380
  59.3504591  82.6260332  72.2688132  59.9915182  83.6606368  71.3685270
  59.5024362  82.3706861  69.0675428  60.0312128  81.8599315  68.4545591
  59.7652581  82.0549391  69.9320961  58.2562595  74.1498794  84.1898247
  57.5803232  74.0492923  84.8600622  59.0790229  73.9938007  84.6534244
  50.0041454  80.3870730  76.8110762  50.5894891  79.6414418  76.9438666
  49.8066293  80.6974687  77.6947426  52.8580110  83.4221978  71.8273204
  52.1890485  83.9068105  71.3437244  52.7192979  83.6691198  72.7416583
  61.8496253  80.2826979  84.2804517  62.3936156  80.8956937  83.7859472
  61.2683097  80.8406557  84.7971530  59.2035107  81.0009433  73.2403447
  59.0560070  80.0726140  73.4211017  60.0288601  81.0229524  72.7560522
  55.0565499  68.1502122  67.2977232  55.7773861  68.5283374  66.7940949
  54.4330803  68.8690998  67.4012210  59.1996621  68.8547271  68.2335564
  59.4160236  69.7371908  67.9324393  58.7190689  68.4633484  67.5041206
  55.2029122  67.6849912  70.1274769  55.3245033  66.7566558  70.3265656
  54.9131164  67.6988598  69.2153084  57.1451190  83.0224203  80.4404517
  57.4538316  82.7773349  81.3127217  57.9426672  83.2270841  79.9523387
  57.1671802  85.1762112  72.6709894  56.7276792  84.6838491  73.3642750
  57.9179919  84.6335080  72.4301969  49.6464141  81.3673653  72.6734522
  50.4722160  81.0677425  72.2933165  49.2958193  80.5981276  73.1224310
  54.6145674  80.7200121  74.7432195  53.9925683  80.0570826  74.4434423
  55.2850541  80.7461253  74.0605843  47.8472746  79.2859980  73.6323455
  47.0104654  78.8582154  73.4507457  47.8196391  79.4792423  74.5694247
  54.1759181  79.2704045  68.2190656  54.3247301  79.9539509  67.5657329
  54.9825624  79.2509135  68.7340112  51.9311814  75.2969222  69.2251725
  51.6857856  74.3931552  69.4231935  52.1007728  75.2986373  68.2831203
  51.2007461  71.0297580  66.7237886  50.5076706  71.1041935  66.0677922
  50.9559213  70.2657924  67.2459403  58.0601385  73.1012988  63.0318456
  59.0060489  72.9719196  63.1006874  57.6815630  72.3627650  63.5087884
  57.9440077  77.1530734  84.4919113  58.8643087  77.3309333  84.6859159
  57.9089660  76.2086779  84.3398812  56.2444302  71.0262964  62.9673341
  55.3375757  70.7296077  63.0436055  56.5220283  70.7292782  62.1007627
  50.9402150  75.0631769  77.1341894  51.1588160  75.9948877  77.1529928
  51.3527924  74.7039743  77.9196698  57.8606368  65.5699854  69.1217582
  57.0507096  65.2246939  69.4972828  58.5490784  65.2607398  69.7105194
  55.0143086  67.8849900  63.1085320  55.8762250  68.2104798  63.3681138
  55.1993431  67.0981395  62.5958386  55.6761285  74.0662113  85.3409705
  55.1928367  74.8662473  85.5473594  55.7622224  74.0770058  84.3877149
  48.9447245  75.8990493  73.2631524  48.9217933  75.9978180  72.3113407
  49.2547881  76.7455644  73.5848690  51.6034623  77.9566648  77.3778138
  52.5577876  77.9250590  77.3108070  51.4047146  77.4957272  78.1928364
  52.1934005  76.5267764  79.9448936  53.0126894  77.0211843  79.9683773
  52.4670812  75.6099732  79.9166503  61.9500601  68.9178516  69.3076891
  61.0626456  69.2028167  69.0897086  62.3654590  68.7572280  68.4604168
  49.9584851  83.4986268  74.3948336  49.8239319  82.7386668  73.8286334
  49.5416914  84.2227167  73.9277125  65.7346431  70.2222784  70.3477301
  65.4783365  69.8219420  71.1785509  65.1099299  70.9366578  70.2227440
  53.1153977  84.3955585  74.6066779  52.9986361  85.3401017  74.5045469
  52.2946424  84.0929146  74.9952578  59.9722311  77.9286745  86.1433274
  60.8413471  78.1027398  85.7819909  59.4929063  78.7481162  86.0209003
  55.9672529  65.1245943  66.3965029  55.9551199  66.0687782  66.5533300
  56.8595951  64.9416088  66.1024490  54.1408491  85.0483846  77.8222707
  55.0435738  85.0807457  78.1389202  53.9145861  84.1184297  77.8369043
  55.8962093  83.8014833  74.4832786  54.9457724  83.8016695  74.3697158
  56.1994580  83.0547568  73.9668820  64.3447911  81.4154232  85.7346119
  63.9514856  80.8620430  86.4093763  65.1614051  81.7264810  86.1252636
  62.2895898  85.2055921  82.6750782  62.9167937  84.8232998  83.2888306
  61.4323817  84.9870123  83.0406474  62.6260164  83.3365433  84.7416147
  63.4891626  82.9802238  84.9519472  62.0525575  82.9979328  85.4291552
  76.4235957 115.3072417  70.3526224  76.3459986 116.2580242  70.4314704
  75.8197600 114.9618289  71.0101150  74.0622786 118.0557811  74.4974426
  74.3019385 118.6876335  75.1753444  73.2191983 117.7045851  74.7839785
  74.5367619 114.0805813  71.8273204  73.8677994 114.5651941  71.3437244
  74.3980488 114.3275033  72.7416583  70.0929014 105.0122164  77.7493970
  69.5482482 105.7881971  77.8814245  70.9708364 105.3592968  77.5913092
  72.6189659 105.7215604  77.1341894  72.8375668 106.6532712  77.1529928
  73.0315433 105.3623578  77.9196698  68.7098011 106.6256075  75.3865509
  68.0161483 106.2110027  74.8735463  69.4571002 106.6676611  74.7898928
  71.6372360 114.1570103  74.3948336  71.5026828 113.3970504  73.8286334
  71.2204423 114.8811003  73.9277125  91.5578377 125.7693079  66.7851429
  90.9066356 126.3547159  66.3985443  92.3522739 126.2999274  66.8446466
  85.4834004 122.8582216  67.1838563  86.2564880 122.3111203  67.0451439
  85.8359403 123.7226465  67.3953025  87.8200282 119.0174882  64.8157013
  88.0725802 118.4956403  64.0540476  86.8824841 118.8541028  64.9183697
  82.9897477 123.5121925  69.6459689  83.5021998 124.3065175  69.7965253
  83.6420190 122.8148216  69.5793290  91.1636556 126.6170054  83.2032106
  90.7200411 125.8306432  82.8853010  91.8253770 126.8049204  82.5375996
  86.1431876 116.2327103  65.9658324  85.3069188 116.5701789  66.2867599
  86.0036646 116.0976083  65.0285461  89.2296162 121.3583186  62.5890800
  88.3223223 121.1272439  62.7881949  89.7267194 120.5620805  62.7764782
  92.1364240 130.0680693  65.5087487  91.4625939 130.3712390  66.1172444
  92.5230062 130.8709773  65.1592944  90.1060483 123.0004524  64.4502869
  89.6679913 122.2840383  63.9908506  90.8470924 123.2280639  63.8887960
  90.3355456 130.2360365  67.7234566  90.5107211 129.7648409  68.5380188
  89.6488244 130.8626132  67.9515826  94.2271710 121.8588906  64.0434927
  93.6100881 121.1335734  63.9467979  93.7588199 122.6198266  63.7002001
  86.0170256 116.0774330  63.1656231  85.1399723 115.9563131  62.8018478
  86.4928009 115.2860409  62.9135120  77.5372396 120.8651490  73.2597738
  78.2243436 120.5513220  72.6718753  77.3820525 121.7692855  72.9864989
  95.0509396 125.1828078  68.1627566  95.3269240 125.0684673  69.0721440
  94.1813894 124.7845563  68.1239739  91.6863460 129.4314429  71.8060380
  91.8685854 128.6136085  72.2688132  92.5096446 129.6482121  71.3685270
  92.0205625 128.3582614  69.0675428  92.5493392 127.8475068  68.4545591
  92.2833845 128.0425144  69.9320961  87.5746762 114.1377875  67.2977232
  88.2955125 114.5159127  66.7940949  86.9512066 114.8566751  67.4012210
  95.1145809 128.3299412  69.6830411  95.2882686 127.7645835  68.9304264
  95.6074700 129.1300307  69.5009901  96.1020981 127.6466177  66.7827310
  96.7971886 128.2672869  67.0014624  96.4444131 126.7961528  67.0579688
  98.0012404 125.0965882  68.3114640  98.5263728 125.4353155  67.5863960
  97.9134757 124.1612897  68.1277775  84.4493077 121.2844975  69.2251725
  84.2039119 120.3807305  69.4231935  84.6188992 121.2862126  68.2831203
  83.7188725 117.0173333  66.7237886  83.0257970 117.0917688  66.0677922
  83.4740477 116.2533677  67.2459403  90.1935850 127.7527928  65.6902403
  89.6209817 128.3718115  65.2372875  90.7668643 128.3027290  66.2242325
  93.4133109 128.0365078  66.8210986  94.3463783 127.9710640  67.0243861
  93.3256322 128.8721345  66.3625518  96.0421126 127.3530949  63.7814933
  95.9634758 127.0190812  64.6750691  96.8630793 127.8452717  63.7806405
  90.5782648 119.0888741  63.0318456  91.5241753 118.9594949  63.1006874
  90.1996893 118.3503403  63.5087884  88.7625565 117.0138717  62.9673341
  87.8557021 116.7171830  63.0436055  89.0401546 116.7168535  62.1007627
  87.5324350 113.8725653  63.1085320  88.3943514 114.1980551  63.3681138
  87.7174694 113.0857148  62.5958386  93.6125078 124.6698944  63.4024911
  94.3160928 124.8748947  64.0182567  92.8887727 125.2375706  63.6673995
  95.5211775 125.1081473  65.4523372  96.3557379 124.6762672  65.2700846
  95.3596118 124.9363487  66.3800266 104.1496050 135.6251124  75.5478548
 104.7874460 135.5057872  74.8441888 104.0316893 136.5731968  75.6066500
 100.9585757 135.5778552  75.4840073 100.6204268 135.4619617  74.5960608
 101.8275525 135.1769718  75.4641079  96.8172572 137.4314029  71.4736964
  96.2537437 137.3403966  70.7053252  96.7024967 136.6113933  71.9539456
 101.4405540 136.7313404  81.4426278 101.4294180 136.3366202  80.5706782
 101.6026179 135.9979477  82.0360050  94.3637004 138.9265221  74.3121184
  95.1558296 138.5856045  73.8967484  94.6033654 139.0360196  75.2323338
 102.3972131 141.0984997  66.7851429 101.7460111 141.6839077  66.3985443
 103.1916494 141.6291192  66.8446466  96.3227758 138.1874134  67.1838563
  97.0958634 137.6403121  67.0451439  96.6753157 139.0518383  67.3953025
  98.1612801 139.5150516  80.3905462  97.8702667 140.4196147  80.2752129
  98.7969785 139.5567044  81.1049532  99.0869008 136.8927365  76.9806822
  99.6832580 136.6683387  76.2663785  99.1443979 136.1512110  77.5832270
  98.6594036 134.3466800  64.8157013  98.9119557 133.8248321  64.0540476
  97.7218595 134.1832945  64.9183697 103.7037319 133.3502578  72.6231756
 104.4900408 132.9322001  72.2722173 103.9676023 134.2548670  72.7913405
 103.8747396 138.7875429  67.3220413 103.2393229 138.8610055  68.0341318
 103.5444803 139.3769027  66.6439492 109.1045746 133.2877811  73.5264735
 109.8370918 132.7177028  73.7602564 108.3485102 132.8999412  73.9671240
  98.3790325 136.2494906  67.0181388  98.2626583 135.5739809  67.6862472
  98.4892585 135.7627280  66.2013541 100.7221866 135.7105053  70.7228077
 100.3580073 135.1835674  71.4340999 101.5788982 135.3203522  70.5494563
 106.6271166 126.9999386  77.9859343 106.2954491 127.8694797  77.7620558
 106.0316780 126.6835670  78.6653374 100.3627353 130.7394953  65.7189426
 100.5301755 131.6075189  66.0859897 100.1724522 130.9022234  64.7950715
 103.1202686 139.2011932  77.3855256 102.8203409 140.1036970  77.2771063
 102.7753745 138.9344115  78.2376409  96.5715167 135.6525728  73.4191961
  95.6465664 135.5201942  73.6269652  96.8199581 136.4319948  73.9161903
 106.5199830 131.7194472  75.0652693 105.6116707 131.6509880  74.7711454
 106.4687425 132.1966417  75.8934519 100.3416574 133.1952610  66.7036093
 100.2216199 133.6409661  67.5421573  99.6469162 133.5437928  66.1449631
  93.9323978 135.2959002  74.2535750  94.0616360 135.5493481  75.1675161
  93.2521430 135.8886710  73.9340405  98.1023466 145.9656252  70.3526224
  98.0247495 146.9164077  70.4314704  97.4985109 145.6202124  71.0101150
 100.5940695 133.1384117  83.0087591  99.8174029 133.6978037  82.9990455
 101.2331258 133.6240900  83.5302461 108.3861476 129.9210910  76.8430567
 107.7435856 130.2143443  76.1970362 107.8816405 129.8063830  77.6483764
 106.0401640 133.6674083  67.5316427 106.9519496 133.9001470  67.3564124
 105.5311287 134.2511128  66.9691505  98.8487068 135.9469571  82.5705558
  99.5901752 136.4854615  82.2940381  98.1424053 136.5735859  82.7277110
 104.3242407 138.0898711  81.1677719 104.7325763 137.6481122  80.4232352
 103.6019669 137.5151339  81.4211912 100.6773477 133.0271318  78.5411276
 101.5234673 133.4510731  78.6845925 100.6172115 132.3704942  79.2349839
 104.6471222 138.6499902  74.9230008 104.0180084 138.8145616  74.2206076
 104.2596884 139.0641511  75.6940972 108.5260454 139.5854340  72.2774372
 107.8411492 139.9653241  71.7271405 108.6104303 140.1949666  73.0106320
 103.8272923 130.6875686  80.1992450 103.5833855 131.4417747  79.6626726
 104.1032853 131.0661034  81.0339697 105.7811386 137.2314299  78.8769715
 105.9928281 137.8746059  78.2004096 105.7341134 136.3976615  78.4091645
 103.3837614 129.8432119  75.7806288 102.5222094 130.1413373  76.0723025
 103.4100049 130.0602518  74.8487320 100.1999184 138.3874310  72.1880093
 100.6637529 138.6662013  71.3984716  99.9355982 137.4857754  72.0053184
  97.0923265 137.9345791  75.1259856  97.6624622 138.3633060  74.4877341
  97.6831377 137.6528376  75.8244042  99.1368070 134.5097462  68.9969658
  99.8392113 134.9618506  69.4643585  98.8048698 133.8681281  69.6249551
  97.5848431 133.1009219  83.3720868  96.9547092 133.7825500  83.6056265
  97.4784519 132.9892300  82.4274006  92.8793404 132.7681015  74.2986792
  92.0892458 133.0238543  73.8226903  93.3704651 133.5829353  74.4038832
 106.8957213 140.1086254  77.0492073 107.7174657 139.7066441  76.7674754
 106.8919616 140.0054488  78.0008189  94.8308149 133.1325594  71.2570269
  94.0339313 133.2444288  71.7753764  94.6033741 133.4712246  70.3911159
 100.6613817 139.6570297  79.2052783 100.7258249 140.1190705  80.0410955
  99.9524741 139.0267662  79.3335093  91.1631107 133.0211505  76.7301783
  91.4139145 133.9058515  76.9959359  91.6990655 132.8416107  75.9576875
 114.9863207 136.4525003  73.3977044 114.2326915 135.8832401  73.2421049
 115.1210748 136.4187667  74.3447679 100.3761835 141.3238405  69.0731764
 100.2407509 142.1689941  69.5016611 100.9171647 141.5257682  68.3097697
  93.8291232 138.8413843  69.6459689  94.3415753 139.6357093  69.7965253
  94.4813945 138.1440133  69.5793290  95.6386117 141.9579599  71.7282442
  95.8152745 142.8797564  71.5403426  96.4342950 141.6438018  72.1576822
  94.9238473 134.0044231  81.6044605  94.8091988 133.1029488  81.9051704
  94.0682991 134.2507928  81.2529422 102.0030311 141.9461971  83.2032106
 101.5594165 141.1598350  82.8853010 102.6647525 142.1341122  82.5375996
  96.7617432 143.4757773  77.7292784  97.3124857 143.3474836  76.9569778
  95.9228908 143.7752662  77.3787677 104.1011549 142.2264771  81.2313507
 104.0830024 143.0473652  80.7393776 105.0231469 142.1018847  81.4563648
 100.5584603 139.7408901  82.0737015 101.0912940 138.9797189  81.8436323
 100.0298684 139.4482553  82.8161170  91.7940149 137.1702497  70.4219259
  92.6315371 137.5799506  70.2052967  91.9718416 136.2301939  70.3919453
 103.6904581 134.8377578  66.1103092 103.1751204 135.6082182  66.3491480
 103.4181889 134.1642714  66.7336154 101.2751692 129.6827279  71.1688331
 100.4193288 129.2934129  70.9893969 101.6878644 129.7619239  70.3088116
 102.8050839 127.2173622  75.5679890 102.3015634 127.1803757  74.7547696
 103.0981445 128.1266365  75.6276547  99.0493724 127.3012352  74.5746072
  99.9146721 127.1055160  74.2151961  99.1171233 127.0722703  75.5015429
 108.6638855 137.5909932  68.0456266 107.8868298 137.2521092  67.6011428
 109.3430336 137.5962556  67.3711231 103.4790884 132.7104670  67.9362873
 103.1741020 133.0250819  68.7873017 104.4321326 132.7886090  67.9790206
 101.9237316 138.8694893  69.5855827 101.3958677 138.1347653  69.2729065
 101.4224819 139.6469570  69.3395796 106.9030162 137.0643914  74.7022874
 106.2453836 137.7543175  74.7903002 107.7070561 137.4540346  75.0456860
  96.6556043 129.5314560  71.9462439  97.2299795 129.3089741  71.2135632
  97.2427026 129.6003254  72.6991040 105.7135621 135.4188286  72.7526815
 106.2267502 136.0518278  73.2548525 106.3636845 134.8189482  72.3870175
  96.9825631 131.5619021  65.9658324  96.1462943 131.8993707  66.2867599
  96.8430400 131.4268000  65.0285461  98.9578711 126.4055808  70.6737508
  98.3043124 126.0904826  70.0494123  98.9159185 125.7831549  71.3997331
 100.0689916 136.6875104  62.5890800  99.1616978 136.4564357  62.7881949
 100.5660948 135.8912723  62.7764782 102.9757995 145.3972611  65.5087487
 102.3019694 145.7004307  66.1172444 103.3623817 146.2001691  65.1592944
 102.1916452 132.8937742  74.9985156 101.2739013 133.1152689  74.8406844
 102.6076595 132.9684052  74.1396863 102.9751499 134.2929158  70.1287836
 103.7223318 134.8050555  69.8194958 103.2443089 133.9713210  70.9892230
 101.2478149 136.7887698  67.1114790 100.3389369 136.5046731  67.2087260
 101.2773233 137.2086777  66.2518097 106.4797417 140.3994288  70.8805958
 106.0259744 139.5585198  70.9371148 105.8491384 141.0355686  71.2180738
 105.4230336 131.3286274  72.1106625 104.6853093 130.8163660  72.4416868
 105.6757110 130.8886656  71.2989902 104.9230356 142.2370785  71.8155776
 105.2153331 142.7975842  71.0968142 105.4328977 142.5299346  72.5708935
  91.8166320 134.5093213  71.0929993  91.6190720 133.9162573  70.3681059
  91.2612984 134.2045423  71.8105931  99.7963044 134.4016319  73.2124586
  99.8511653 133.4490155  73.1367062  98.9854246 134.5575758  73.6965884
 100.9454237 138.3296442  64.4502869 100.5073667 137.6132301  63.9908506
 101.6864678 138.5572557  63.8887960  97.7355403 133.0193379  70.9714965
  96.9223269 133.3187549  71.3780157  98.2314398 132.6249067  71.6889447
  99.8863981 143.0151136  72.9049229  99.8440160 143.2411982  71.9757761
 100.8026680 142.7814510  73.0535030 103.3329615 133.4835203  79.8029859
 103.6879003 133.7106676  80.6624324 103.9801746 133.8153580  79.1807114
 109.0627352 136.6053639  70.5079188 108.9245251 136.7955235  69.5800377
 108.7063571 137.3673022  70.9647239  97.2269478 130.5911734  76.5876200
  97.8668858 130.4500493  75.8899163  96.3947009 130.3046248  76.2114802
 109.0896732 138.6730166  75.5190459 109.5233238 138.5805455  76.3673513
 109.8028312 138.6487667  74.8810475  98.0029782 139.8914165  72.7011192
  98.7970381 139.3964485  72.4993767  97.2921475 139.3632028  72.3378898
 102.8224627 142.2732260  77.0523560 102.8761649 142.8423197  77.8201276
 101.9539408 142.4434145  76.6877597  94.3112546 134.0357246  68.7770945
  93.3810134 133.9741702  68.9940907  94.4070018 133.5133199  67.9807586
  94.2298095 130.5612059  71.3649186  94.4904912 131.4757392  71.2558347
  95.0515267 130.0936502  71.5145799  95.7023020 131.9749816  78.5348011
  96.3746073 131.7667179  77.8860660  94.8752806 131.7771902  78.0953243
 109.9512281 138.7153867  78.0523344 110.1448171 139.6199677  78.2982619
 109.8512899 138.2561286  78.8861930 105.0127390 138.8660609  83.6264225
 104.8612896 138.6371161  82.7094309 105.0032069 139.8231211  83.6395570
 101.7812726 136.4392522  78.6110492 102.7104786 136.5903682  78.4379459
 101.3603756 136.5276543  77.7559138 100.5801058 140.4643187  76.3809029
 100.4412144 140.0961971  77.2534967  99.7915654 140.9790826  76.2092987
 101.1749210 145.5652283  67.7234566 101.3500966 145.0940326  68.5380188
 100.4881998 146.1918049  67.9515826 102.1306273 139.8424789  73.7697867
 101.7956106 139.8025559  74.6655517 101.6310219 139.1769505  73.2968277
  96.1050517 135.2492419  79.2950448  95.9670315 134.5172658  79.8961987
  97.0155441 135.1601319  79.0134636 105.0665465 137.1880824  64.0434927
 104.4494636 136.4627652  63.9467979 104.5981953 137.9490184  63.7002001
  98.7332818 134.9612379  78.7834128  99.4432436 134.3205571  78.7420746
  98.6902126 135.2125274  79.7060309 106.7219597 141.8979732  81.7040707
 106.6632143 141.2138952  81.0371290 107.1239115 142.6398722  81.2521333
  97.4461752 131.9477597  80.6029767  96.9099109 131.4968335  81.2551364
  96.8578460 132.0823505  79.8600232  95.7410295 148.7141646  74.4974426
  95.9806894 149.3460170  75.1753444  94.8979492 148.3629686  74.7839785
  96.8564011 131.4066248  63.1656231  95.9793477 131.2855049  62.8018478
  97.3321764 130.6152326  62.9135120 106.7237004 139.8619316  79.9354687
 105.8363783 139.5245238  80.0581086 107.2935555 139.1302347  80.1723452
 100.2538157 144.5220768  76.9015930 100.1808329 145.3275740  77.4135234
  99.8115550 144.7212734  76.0763951 100.0427937 143.7592538  70.4118751
  99.2595459 144.3014219  70.5056976 100.7420682 144.2766518  70.8112993
 103.3524587 129.5687168  73.0552957 103.8493287 128.8157130  72.7354027
 102.5811568 129.6051484  72.4896166 111.2054344 135.2727533  74.6971248
 111.1944221 136.1552249  74.3265181 110.3371724 134.9199084  74.5025785
 102.7136841 144.4207602  79.0574088 103.4264813 145.0555067  78.9849990
 102.2226869 144.5171468  78.2414090 104.4354368 138.3258855  70.6291380
 103.5010646 138.4460317  70.4596084 104.6131036 137.4231322  70.3651390
  99.9359556 131.7104551  72.7824641  99.5657343 131.1575591  73.4705547
 100.4318648 131.1062684  72.2299641 107.8226919 134.1676174  71.1641414
 108.2887371 135.0004166  71.0901717 108.2734420 133.7021156  71.8686673
  97.7648754 142.1702046  79.8779659  98.4658214 142.8038529  80.0309054
  97.2943869 142.5116777  79.1175299 105.8903150 140.5119996  68.1627566
 106.1662994 140.3976590  69.0721440 105.0207649 140.1137480  68.1239739
 105.5650040 134.7246653  77.7032210 104.9121490 134.9722561  77.0484662
 105.9430420 133.9110791  77.3694687 102.5257214 144.7606346  71.8060380
 102.7079609 143.9428002  72.2688132 103.3490200 144.9774039  71.3685270
 102.8599380 143.6874532  69.0675428 103.3887146 143.1766986  68.4545591
 103.1227599 143.3717062  69.9320961 101.6137613 135.4666464  84.1898247
 100.9378250 135.3660594  84.8600622 102.4365247 135.3105678  84.6534244
  93.3616472 141.7038401  76.8110762  93.9469909 140.9582089  76.9438666
  93.1641311 142.0142358  77.6947426  96.2155128 144.7389648  71.8273204
  95.5465503 145.2235776  71.3437244  96.0767997 144.9858869  72.7416583
 100.3560396 146.7733392  78.4255863 100.9078704 146.9365013  79.1904948
 100.6966590 147.3637830  77.7535888  94.8077162 131.1931674  82.6750782
  95.4349201 130.8108751  83.2888306  93.9505081 130.9745876  83.0406474
 105.2071270 141.5994649  84.2804517 105.7511174 142.2124608  83.7859472
 104.6258115 142.1574228  84.7971530  91.5842705 133.0008103  68.6069137
  91.8796146 132.0918782  68.5536190  90.6830740 132.9795843  68.2850139
 103.4928783 144.7215367  75.4119545 103.3679923 143.9205107  74.9030490
 104.1507875 145.2161561  74.9233515  95.1136952 131.0764100  74.5896685
  94.3923537 131.6900068  74.4504158  95.9030207 131.6121865  74.5113331
 105.5563692 142.5224387  77.0399095 104.6094027 142.4029739  76.9677422
 105.9046465 141.6346885  77.1225356  93.3130546 130.6822201  68.7308462
  92.9843252 129.8019580  68.5483568  93.6669917 130.6269870  69.6184851
 102.5610125 142.3177104  73.2403447 102.4135088 141.3893811  73.4211017
 103.3863619 142.3397194  72.7560522  96.4272369 130.9695171  69.0983939
  96.7668442 131.4981092  68.3762548  96.8744490 131.3075577  69.8742506
 106.1644247 143.1405662  74.3268320 107.0890794 142.9348524  74.1892771
 105.9959550 142.8922064  75.2357661  98.4140517 129.4669792  67.2977232
  99.1348879 129.8451045  66.7940949  97.7905821 130.1858669  67.4012210
 102.5571639 130.1714941  68.2335564 102.7735254 131.0539579  67.9324393
 102.0765707 129.7801155  67.5041206  97.2970861 133.1300654  74.8106309
  97.1515442 133.4440958  75.7030591  96.8196064 133.7485555  74.2577208
  99.1567244 130.1203202  74.8587199  99.1428812 129.2244296  74.5219497
  99.8739672 130.1273866  75.4925485 101.0093374 130.5540543  76.9040326
 100.7511152 131.4757613  76.9024656 100.4778415 130.1570977  77.5940790
 105.9539563 143.6591330  69.6830411 106.1276441 143.0937752  68.9304264
 106.4468454 144.4592225  69.5009901  91.7716523 135.6705999  77.7493970
  91.2269991 136.4465807  77.8814245  92.6495873 136.0176803  77.5913092
  98.5604140 129.0017583  70.1274769  98.6820051 128.0734229  70.3265656
  98.2706182 129.0156269  69.2153084 101.4295330 126.6872493  73.2641489
 101.4517027 126.7511826  72.3093468 101.8463389 125.8477002  73.4581995
 111.8078954 136.4227753  71.3020711 112.2510100 135.6735078  70.9039834
 110.9305465 136.4137889  70.9194443 106.9414736 142.9758094  66.7827310
 107.6365640 143.5964787  67.0014624 107.2837886 142.1253445  67.0579688
  92.5582545 134.7975895  80.6424127  91.8164281 134.9458531  81.2288758
  92.2375289 135.0584161  79.7790877 108.8406159 140.4257800  68.3114640
 109.3657483 140.7645072  67.5863960 108.7528511 139.4904815  68.1277775
 100.5026207 144.3391873  80.4404517 100.8113334 144.0941020  81.3127217
 101.3001689 144.5438512  79.9523387 100.5246820 146.4929783  72.6709894
 100.0851810 146.0006162  73.3642750 101.2754936 145.9502751  72.4301969
  93.0039159 142.6841324  72.6734522  93.8297178 142.3845096  72.2933165
  92.6533210 141.9148946  73.1224310  97.9720692 142.0367792  74.7432195
  97.3500701 141.3738497  74.4434423  98.6425559 142.0628924  74.0605843
  91.2047764 140.6027650  73.6323455  90.3679672 140.1749825  73.4507457
  91.1771409 140.7960094  74.5694247 108.5300065 141.0590703  83.6165838
 107.7395609 141.0414842  83.0770338 108.2933419 141.5978997  84.3714875
 108.6497940 137.9083170  80.9298567 108.6995945 137.7433177  81.8714090
 108.5411863 137.0410429  80.5396448  97.5334199 140.5871715  68.2190656
  97.6822319 141.2707180  67.5657329  98.3400642 140.5676805  68.7340112
 105.9401702 133.8914098  82.2457874 106.8411565 133.7520563  81.9541871
 106.0149677 134.0568553  83.1856051 110.1516137 140.3280111  81.1740589
 109.8600945 140.6910092  82.0104049 109.5388268 139.6147120  80.9953921
 111.3511819 137.8932991  73.6943159 112.1858710 138.3322795  73.8580719
 111.4870948 137.4171644  72.8751405 108.4003325 135.4512726  79.6420646
 108.8757447 135.6440372  78.8339498 107.4768890 135.5071912  79.3964030
  95.2886832 136.6136893  69.2251725  95.0432874 135.7099223  69.4231935
  95.4582746 136.6154044  68.2831203  94.5582479 132.3465251  66.7237886
  93.8651724 132.4209606  66.0677922  94.3134231 131.5825594  67.2459403
 101.0329604 143.0819846  65.6902403 100.4603571 143.7010033  65.2372875
 101.6062398 143.6319208  66.2242325 107.1004994 132.3278486  77.8748952
 108.0522417 132.4276584  77.8961176 106.9308444 131.5356755  78.3847036
 105.1219373 129.4134069  78.0608353 104.5269306 129.6939082  77.3654842
 104.8369070 129.9027970  78.8325094 104.2526864 143.3656996  66.8210986
 105.1857537 143.3002558  67.0243861 104.1650077 144.2013263  66.3625518
 106.8814881 142.6822866  63.7814933 106.8028512 142.3482730  64.6750691
 107.7024547 143.1744634  63.7806405 109.5793072 135.5484606  76.9891252
 109.5469392 134.6100606  77.1750936 110.1893695 135.6268642  76.2557077
 101.4176403 134.4180659  63.0318456 102.3635507 134.2886867  63.1006874
 101.0390648 133.6795321  63.5087884 109.7287560 132.3395649  77.0349535
 109.2126609 131.5554106  76.8479464 110.6127509 132.0114366  77.1996054
 115.3969622 136.6100613  76.1297289 116.1273010 136.3485901  76.6904992
 114.7876567 135.8729334  76.1699357 113.4784919 134.7508475  76.7271740
 112.7518082 134.6164440  76.1188231 113.0632206 135.0585304  77.5328458
 101.3015095 138.4698405  84.4919113 102.2218105 138.6477004  84.6859159
 101.2664678 137.5254450  84.3398812  99.6019320 132.3430635  62.9673341
  98.6950775 132.0463748  63.0436055  99.8795301 132.0460453  62.1007627
  94.2977168 136.3799439  77.1341894  94.5163177 137.3116547  77.1529928
  94.7102942 136.0207414  77.9196698  99.1705033 131.9532645  86.5244643
  99.0701760 132.9027002  86.4556734  98.9526575 131.6250884  85.6520713
  98.3718104 129.2017570  63.1085320  99.2337268 129.5272469  63.3681138
  98.5568449 128.4149066  62.5958386  99.0336303 135.3829784  85.3409705
  98.5503385 136.1830144  85.5473594  99.1197242 135.3937729  84.3877149
  92.3022263 137.2158164  73.2631524  92.2792951 137.3145851  72.3113407
  92.6122899 138.0623315  73.5848690  94.9609641 139.2734319  77.3778138
  95.9152894 139.2418261  77.3108070  94.7622164 138.8124942  78.1928364
  95.5509023 137.8435435  79.9448936  96.3701912 138.3379513  79.9683773
  95.8245830 136.9267403  79.9166503 111.0962714 130.9720327  74.0805171
 111.6907204 130.7316063  73.3698480 111.1689297 130.2527458  74.7078708
  93.3159869 144.8153938  74.3948336  93.1814337 144.0554339  73.8286334
  92.8991932 145.5394838  73.9277125 104.4518832 139.9990862  63.4024911
 105.1554682 140.2040864  64.0182567 103.7281481 140.5667624  63.6673995
 105.2816643 135.7500723  69.5227182 105.2251844 136.2069274  68.6834814
 105.8344985 134.9891408  69.3450024 109.0921449 131.5390455  70.3477301
 108.8358383 131.1387091  71.1785509 108.4674317 132.2534249  70.2227440
 113.4033786 134.2786528  72.8548593 112.8433344 134.3479717  73.6280155
 112.7977290 134.1027513  72.1348089  96.4728995 145.7123255  74.6066779
  96.3561379 146.6568688  74.5045469  95.6521441 145.4096817  74.9952578
 106.3605530 140.4373391  65.4523372 107.1951134 140.0054589  65.2700846
 106.1989873 140.2655405  66.3800266 106.0151422 136.9405504  66.8179711
 105.9600226 136.7749776  65.8768155 105.3897477 137.6481537  66.9741901
  90.8043937 132.1773569  80.6441133  91.4502801 131.6672523  81.1328358
  90.5961088 132.9142250  81.2184558 103.3297329 139.2454416  86.1433274
 104.1988489 139.4195068  85.7819909 102.8504081 140.0648833  86.0209003
  99.3247547 126.4413613  66.3965029  99.3126217 127.3855453  66.5533300
 100.2170969 126.2583759  66.1024490  97.4983509 146.3651517  77.8222707
  98.4010756 146.3975127  78.1389202  97.2720879 145.4351968  77.8369043
  99.2537111 145.1182504  74.4832786  98.3032742 145.1184365  74.3697158
  99.5569598 144.3715238  73.9668820  95.1441428 129.3241186  84.7416147
  96.0072889 128.9677991  84.9519472  94.5706839 128.9855081  85.4291552
 111.7979511 150.9070470  75.4840073 111.4598023 150.7911535  74.5960608
 112.6669279 150.5061635  75.4641079 107.6566327 152.7605947  71.4736964
 107.0931192 152.6695884  70.7053252 107.5418722 151.9405851  71.9539456
 105.2030759 154.2557138  74.3121184 105.9952051 153.9147963  73.8967484
 105.4427409 154.3652113  75.2323338 107.1621513 153.5166051  67.1838563
 107.9352389 152.9695039  67.0451439 107.5146912 154.3810301  67.3953025
 109.9262762 152.2219282  76.9806822 110.5226334 151.9975305  76.2663785
 109.9837734 151.4804028  77.5832270 109.4987791 149.6758718  64.8157013
 109.7513311 149.1540239  64.0540476 108.5612350 149.5124863  64.9183697
 114.5431073 148.6794496  72.6231756 115.3294163 148.2613919  72.2722173
 114.8069778 149.5840588  72.7913405 109.2184079 151.5786824  67.0181388
 109.1020337 150.9031727  67.6862472 109.3286339 151.0919197  66.2013541
 111.5615620 151.0396971  70.7228077 111.1973827 150.5127592  71.4340999
 112.4182736 150.6495440  70.5494563 117.4664921 142.3291303  77.9859343
 117.1348246 143.1986714  77.7620558 116.8710534 142.0127587  78.6653374
 111.2021107 146.0686870  65.7189426 111.3695510 146.9367107  66.0859897
 111.0118276 146.2314152  64.7950715 107.4108922 150.9817646  73.4191961
 106.4859418 150.8493860  73.6269652 107.6593335 151.7611865  73.9161903
 117.3593584 147.0486389  75.0652693 116.4510461 146.9801798  74.7711454
 117.3081180 147.5258334  75.8934519 111.1810328 148.5244528  66.7036093
 111.0609953 148.9701579  67.5421573 110.4862916 148.8729845  66.1449631
 104.7717733 150.6250920  74.2535750 104.9010114 150.8785399  75.1675161
 104.0915184 151.2178628  73.9340405 111.4334450 148.4676035  83.0087591
 110.6567784 149.0269955  82.9990455 112.0725013 148.9532818  83.5302461
 119.2255231 145.2502828  76.8430567 118.5829611 145.5435361  76.1970362
 118.7210159 145.1355748  77.6483764 109.6880822 151.2761488  82.5705558
 110.4295507 151.8146532  82.2940381 108.9817808 151.9027777  82.7277110
 111.5167232 148.3563236  78.5411276 112.3628427 148.7802649  78.6845925
 111.4565870 147.6996860  79.2349839 114.6666677 146.0167604  80.1992450
 114.4227609 146.7709664  79.6626726 114.9426608 146.3952952  81.0339697
 114.2231369 145.1724037  75.7806288 113.3615848 145.4705291  76.0723025
 114.2493804 145.3894436  74.8487320 107.9317019 153.2637709  75.1259856
 108.5018377 153.6924977  74.4877341 108.5225131 152.9820294  75.8244042
 109.9761824 149.8389380  68.9969658 110.6785868 150.2910424  69.4643585
 109.6442453 149.1973199  69.6249551 108.4242186 148.4301137  83.3720868
 107.7940847 149.1117417  83.6056265 108.3178274 148.3184218  82.4274006
 103.7187158 148.0972933  74.2986792 102.9286212 148.3530461  73.8226903
 104.2098406 148.9121270  74.4038832 105.6701904 148.4617512  71.2570269
 104.8733067 148.5736206  71.7753764 105.4427496 148.8004164  70.3911159
 102.0024861 148.3503423  76.7301783 102.2532900 149.2350433  76.9959359
 102.5384410 148.1708025  75.9576875 107.7022929 142.7321902  85.7346119
 107.3089874 142.1788101  86.4093763 108.5189069 143.0432481  86.1252636
 104.6684986 154.1705761  69.6459689 105.1809507 154.9649011  69.7965253
 105.3207699 153.4732051  69.5793290 110.6190890 144.1479781  83.3266375
 111.3600603 144.7486935  83.2470838 110.8508813 143.4057419  82.7684418
 105.7632228 149.3336149  81.6044605 105.6485743 148.4321406  81.9051704
 104.9076745 149.5799845  81.2529422 114.5648053 140.1760884  77.6030657
 114.2212322 141.0662526  77.5269768 114.9327015 139.9862542  76.7400242
 102.6333903 152.4994415  70.4219259 103.4709125 152.9091423  70.2052967
 102.8112171 151.5593857  70.3919453 112.1145446 145.0119196  71.1688331
 111.2587043 144.6226047  70.9893969 112.5272398 145.0911157  70.3088116
 113.6444593 142.5465540  75.5679890 113.1409389 142.5095675  74.7547696
 113.9375200 143.4558282  75.6276547 109.8887479 142.6304269  74.5746072
 110.7540476 142.4347078  74.2151961 109.9564988 142.4014621  75.5015429
 114.3184639 148.0396588  67.9362873 114.0134774 148.3542737  68.7873017
 115.2715081 148.1178007  67.9790206 107.4949798 144.8606477  71.9462439
 108.0693550 144.6381659  71.2135632 108.0820780 144.9295172  72.6991040
 107.8219385 146.8910938  65.9658324 106.9856697 147.2285625  66.2867599
 107.6824155 146.7559918  65.0285461 109.7972466 141.7347726  70.6737508
 109.1436878 141.4196743  70.0494123 109.7552940 141.1123467  71.3997331
 110.9083671 152.0167021  62.5890800 110.0010732 151.7856275  62.7881949
 111.4054703 151.2204640  62.7764782 113.0310206 148.2229660  74.9985156
 112.1132767 148.4444607  74.8406844 113.4470350 148.2975970  74.1396863
 116.2624091 146.6578192  72.1106625 115.5246848 146.1455578  72.4416868
 116.5150864 146.2178573  71.2989902 116.3635718 139.4354444  72.7048395
 116.6694595 138.5751807  72.4174310 117.0888323 140.0272064  72.5047389
 102.6560074 149.8385130  71.0929993 102.4584474 149.2454491  70.3681059
 102.1006738 149.5337340  71.8105931 110.6356798 149.7308237  73.2124586
 110.6905408 148.7782073  73.1367062 109.8248000 149.8867676  73.6965884
 108.5749158 148.3485296  70.9714965 107.7617023 148.6479467  71.3780157
 109.0708152 147.9540985  71.6889447 114.1723370 148.8127121  79.8029859
 114.5272757 149.0398594  80.6624324 114.8195501 149.1445498  79.1807114
 108.0663233 145.9203652  76.5876200 108.7062612 145.7792411  75.8899163
 107.2340763 145.6338165  76.2114802 105.1506300 149.3649164  68.7770945
 104.2203888 149.3033620  68.9940907 105.2463772 148.8425117  67.9807586
 105.0691849 145.8903977  71.3649186 105.3298666 146.8049310  71.2558347
 105.8909021 145.4228419  71.5145799 106.5416774 147.3041734  78.5348011
 107.2139828 147.0959096  77.8860660 105.7146561 147.1063820  78.0953243
 112.4442346 143.9303675  80.5513672 111.7970262 144.6293625  80.4578148
 113.2143362 144.3639819  80.9189920 106.9444272 150.5784337  79.2950448
 106.8064070 149.8464576  79.8961987 107.8549195 150.4893237  79.0134636
 109.5726572 150.2904296  78.7834128 110.2826191 149.6497489  78.7420746
 109.5295881 150.5417191  79.7060309 108.2855506 147.2769514  80.6029767
 107.7492863 146.8260253  81.2551364 107.6972215 147.4115423  79.8600232
 107.6957765 146.7358166  63.1656231 106.8187232 146.6146966  62.8018478
 108.1715518 145.9444244  62.9135120  99.2159905 151.5235325  73.2597738
  99.9030945 151.2097055  72.6718753  99.0608034 152.4276690  72.9864989
 104.0194628 146.4125522  77.6882762 103.9352816 145.8051192  76.9533172
 103.1977334 146.9034540  77.6892258 114.1918341 144.8979085  73.0552957
 114.6887041 144.1449048  72.7354027 113.4205323 144.9343402  72.4896166
 110.7753310 147.0396468  72.7824641 110.4051098 146.4867509  73.4705547
 111.2712403 146.4354602  72.2299641 116.6337336 141.8648679  75.2032316
 115.7200416 142.0952906  75.3714523 117.0630438 141.9487123  76.0546348
 112.4531368 150.7958382  84.1898247 111.7772005 150.6952511  84.8600622
 113.2759002 150.6397596  84.6534244 104.2010227 157.0330319  76.8110762
 104.7863664 156.2874006  76.9438666 104.0035065 157.3434275  77.6947426
  98.7927882 149.6035919  75.5315205  98.8311981 149.0699509  76.3252323
  98.2868174 149.0771124  74.9126182 106.1718644 144.4500459  79.0277747
 106.2359970 145.3115290  78.6155145 106.1085764 143.8374461  78.2950106
 105.6470916 146.5223592  82.6750782 106.2742955 146.1400669  83.2888306
 104.7898835 146.3037794  83.0406474 102.4236459 148.3300021  68.6069137
 102.7189900 147.4210699  68.5536190 101.5224495 148.3087760  68.2850139
 105.9530706 146.4056017  74.5896685 105.2317292 147.0191985  74.4504158
 106.7423962 146.9413782  74.5113331 108.7557020 143.7410444  80.8637337
 109.2791421 143.9872741  81.6263646 108.5369353 144.5730479  80.4440474
 104.1524301 146.0114119  68.7308462 103.8237007 145.1311497  68.5483568
 104.5063671 145.9561787  69.6184851 107.2666124 146.2987088  69.0983939
 107.6062196 146.8273010  68.3762548 107.7138244 146.6367494  69.8742506
 109.9609565 144.6824139  78.5487007 109.6206385 143.8831952  78.9507687
 109.2548571 144.9825850  77.9763841 110.6126037 141.7673452  77.0014330
 111.4352106 141.2933930  76.8793221 110.8564100 142.5463935  77.5013017
 109.2534271 144.7961710  67.2977232 109.9742634 145.1742963  66.7940949
 108.6299575 145.5150587  67.4012210 113.3965394 145.5006859  68.2335564
 113.6129008 146.3831497  67.9324393 112.9159461 145.1093072  67.5041206
 108.1364615 148.4592572  74.8106309 107.9909196 148.7732875  75.7030591
 107.6589819 149.0777472  74.2577208 109.9960998 145.4495120  74.8587199
 109.9822567 144.5536213  74.5219497 110.7133426 145.4565784  75.4925485
 111.8487129 145.8832460  76.9040326 111.5904907 146.8049531  76.9024656
 111.3172169 145.4862895  77.5940790 102.6110277 150.9997917  77.7493970
 102.0663746 151.7757725  77.8814245 103.4889627 151.3468721  77.5913092
 109.3997894 144.3309500  70.1274769 109.5213805 143.4026147  70.3265656
 109.1099936 144.3448186  69.2153084 112.2689085 142.0164411  73.2641489
 112.2910781 142.0803744  72.3093468 112.6857144 141.1768920  73.4581995
 103.3976299 150.1267813  80.6424127 102.6558035 150.2750448  81.2288758
 103.0769044 150.3876078  79.7790877 102.0441518 155.9319568  73.6323455
 101.2073426 155.5041742  73.4507457 102.0165163 156.1252011  74.5694247
 108.8838974 145.8441498  84.3364701 108.9327129 146.7203621  83.9542471
 109.4261488 145.3018891  83.7636345 111.1138262 146.5972870  81.0911060
 110.2441572 146.8906436  80.8193649 111.3497742 147.1813315  81.8118324
 106.1280586 151.9428811  69.2251725 105.8826628 151.0391141  69.4231935
 106.2976501 151.9445961  68.2831203 113.8177296 142.8152487  78.6076480
 114.3359240 143.5513514  78.2822969 113.4632429 143.1216480  79.4423240
 105.3976234 147.6757168  66.7237886 104.7045479 147.7501523  66.0677922
 105.1527985 146.9117512  67.2459403 114.0689890 139.2352770  74.1277377
 114.3491644 138.5675959  74.7537804 114.8540497 139.4281865  73.6152041
 115.9613128 144.7425987  78.0608353 115.3663060 145.0231000  77.3654842
 115.6762825 145.2319888  78.8325094 112.2570157 149.7472576  63.0318456
 113.2029262 149.6178784  63.1006874 111.8784402 149.0087238  63.5087884
 118.2292042 141.4128582  72.9945348 118.0316863 141.1043671  73.8788680
 118.8391747 142.1390221  73.1243277 110.4413074 147.6722553  62.9673341
 109.5344530 147.3755665  63.0436055 110.7189055 147.3752371  62.1007627
 101.3591015 148.9928916  73.4172387 101.0393799 148.1394224  73.1246761
 100.8124443 149.2077494  74.1730355 105.1370922 151.7091357  77.1341894
 105.3556932 152.6408465  77.1529928 105.5496696 151.3499332  77.9196698
 112.0575140 142.2159442  69.1217582 111.2475868 141.8706527  69.4972828
 112.7459557 141.9066986  69.7105194 113.9865688 141.2937489  70.7441879
 114.5396727 141.7132943  71.4031902 114.2235775 140.3673237  70.7864835
 110.0098787 147.2824563  86.5244643 109.9095514 148.2318920  86.4556734
 109.7920330 146.9542802  85.6520713 109.2111859 144.5309488  63.1085320
 110.0731023 144.8564386  63.3681138 109.3962203 143.7440984  62.5958386
 101.2279275 152.6131828  75.3865509 100.5342746 152.1985780  74.8735463
 101.9752266 152.6552364  74.7898928 117.3644495 143.4038014  70.2520543
 116.7843164 144.0622818  69.8698596 117.0980428 142.5815359  69.8407961
 115.8148062 142.8043072  72.4541864 116.3147840 142.9159607  71.6456182
 116.4583670 142.5004125  73.0942672 109.8730058 150.7121702  85.3409705
 109.3897139 151.5122062  85.5473594 109.9590997 150.7229647  84.3877149
 103.1416017 152.5450081  73.2631524 103.1186705 152.6437769  72.3113407
 103.4516654 153.3915232  73.5848690 105.8003395 154.6026236  77.3778138
 106.7546649 154.5710179  77.3108070 105.6015919 154.1416860  78.1928364
 106.3902777 153.1727352  79.9448936 107.2095666 153.6671431  79.9683773
 106.6639585 152.2559321  79.9166503 116.1469373 145.5638105  69.3076891
 115.2595228 145.8487755  69.0897086 116.5623362 145.4031868  68.4604168
 119.4983910 145.5884626  73.0231231 120.2744300 146.0781078  73.2955848
 118.7732044 146.0142680  73.4803100 101.6437691 147.5065486  80.6441133
 102.2896555 146.9964440  81.1328358 101.4354843 148.2434168  81.2184558
 110.1641302 141.7705531  66.3965029 110.1519972 142.7147371  66.5533300
 111.0564724 141.5875676  66.1024490 113.9793421 138.3648308  70.6510966
 113.2125817 137.8106794  70.7967648 114.3904126 138.4370176  71.5125118
 105.9835182 144.6533103  84.7416147 106.8466644 144.2969908  84.9519472
 105.4100593 144.3146998  85.4291552  28.2739770   5.3269823  62.2723855
  28.9118180   5.2076571  61.5687195  28.1560613   6.2750667  62.3311807
  25.0829476   5.2797251  62.2085380  24.7447988   5.1638316  61.3205914
  25.9519245   4.8788416  62.1886386  25.5649259   6.4332103  68.1671585
  25.5537900   6.0384901  67.2952089  25.7269899   5.6998176  68.7605357
  26.5215851  10.8003695  53.5096735  25.8703831  11.3857776  53.1230749
  27.3160214  11.3309890  53.5691773  22.2856521   9.2169215  67.1150769
  21.9946387  10.1214846  66.9997435  22.9213505   9.2585742  67.8294839
  27.8281039   3.0521277  59.3477063  28.6144128   2.6340700  58.9967480
  28.0919743   3.9567369  59.5158711  27.9991116   8.4894127  54.0465720
  27.3636949   8.5628754  54.7586624  27.6688522   9.0787726  53.3684799
  33.2289466   2.9896510  60.2510041  33.9614638   2.4195727  60.4847871
  32.4728822   2.6018111  60.6916547  27.2446406   8.9030630  64.1100563
  26.9447129   9.8055669  64.0016370  26.8997465   8.6362814  64.9621716
  22.2267185  15.6674951  57.0771530  22.1491215  16.6182776  57.1560011
  21.6228829  15.3220823  57.7346457  30.1645360   3.3692782  54.2561733
  31.0763216   3.6020169  54.0809431  29.6555007   3.9529826  53.6936812
  28.4486127   7.7917410  67.8923026  28.8569483   7.3499821  67.1477658
  27.7263389   7.2170038  68.1457219  28.7714942   8.3518601  61.6475315
  28.1423804   8.5164315  60.9451383  28.3840604   8.7660210  62.4186279
  32.6504174   9.2873038  59.0019679  31.9655212   9.6671940  58.4516712
  32.7348023   9.8968365  59.7351626  29.9055105   6.9332997  65.6015022
  30.1172001   7.5764757  64.9249403  29.8584854   6.0995314  65.1336952
  24.3242904   8.0893009  58.9125400  24.7881249   8.3680712  58.1230022
  24.0599702   7.1876453  58.7298491  21.2166985   7.6364490  61.8505163
  21.7868342   8.0651759  61.2122648  21.8075097   7.3547075  62.5489349
  31.0200933   9.8104953  63.7737379  31.8418377   9.4085140  63.4920061
  31.0163336   9.7073187  64.7253495  24.7857537   9.3588996  65.9298090
  24.8501969   9.8209403  66.7656262  24.0768461   8.7286361  66.0580400
  39.1106926   6.1543701  60.1222351  38.3570635   5.5851099  59.9666355
  39.2454468   6.1206366  61.0692986  24.5005554  11.0257104  55.7977070
  24.3651229  11.8708639  56.2261918  25.0415367  11.2276381  55.0343004
  19.7629836  11.6598298  58.4527748  19.9396465  12.5816263  58.2648732
  20.5586670  11.3456717  58.8822128  26.1274031  11.6480670  69.9277412
  25.6837885  10.8617049  69.6098317  26.7891244  11.8359821  69.2621303
  20.8861152  13.1776472  64.4538091  21.4368577  13.0493535  63.6815085
  20.0472628  13.4771361  64.1032984  28.2255269  11.9283470  67.9558814
  28.2073744  12.7492351  67.4639083  29.1475189  11.8037545  68.1808955
  24.6828323   9.4427600  68.7982322  25.2156660   8.6815888  68.5681630
  24.1542404   9.1501251  69.5406476  27.8148301   4.5396277  52.8348399
  27.2994924   5.3100881  53.0736786  27.5425609   3.8661413  53.4581460
  32.7882575   7.2928631  54.7701572  32.0112018   6.9539791  54.3256734
  33.4674056   7.2981255  54.0956537  26.0481036   8.5713592  56.3101134
  25.5202397   7.8366352  55.9974371  25.5468538   9.3488268  56.0641102
  31.0273882   6.7662613  61.4268180  30.3697556   7.4561874  61.5148309
  31.8314281   7.1559045  61.7702167  29.8379341   5.1206985  59.4772122
  30.3511222   5.7536977  59.9793832  30.4880564   4.5208181  59.1115482
  24.1933636   6.3893802  49.3136107  23.2860698   6.1583056  49.5127256
  24.6904668   5.5931422  49.5010089  27.1001715  15.0991310  52.2332793
  26.4263414  15.4023006  52.8417751  27.4867537  15.9020390  51.8838250
  27.0995219   3.9947857  56.8533143  27.8467038   4.5069254  56.5440265
  27.3686809   3.6731909  57.7137536  25.3721869   6.4906397  53.8360097
  24.4633089   6.2065430  53.9332567  25.4016953   6.9105476  52.9763404
  30.6041137  10.1012987  57.6051265  30.1503464   9.2603897  57.6616455
  29.9735103  10.7374385  57.9426045  29.0474076  11.9389483  58.5401083
  29.3397050  12.4994541  57.8213448  29.5572697  12.2318044  59.2954242
  25.0697957   8.0315141  51.1748176  24.6317387   7.3151000  50.7153813
  25.8108398   8.2591256  50.6133267  24.0107701  12.7169835  59.6294536
  23.9683880  12.9430681  58.7003068  24.9270400  12.4833209  59.7780337
  27.4573335   3.1853902  66.5275165  27.8122723   3.4125375  67.3869631
  28.1045466   3.5172279  65.9052420  33.1871072   6.3072338  57.2324494
  33.0488970   6.4973934  56.3045683  32.8307291   7.0691721  57.6892545
  33.2140452   8.3748865  62.2435766  33.6476958   8.2824154  63.0918820
  33.9272032   8.3506365  61.6055782  22.1273502   9.5932864  59.4256499
  22.9214100   9.0983184  59.2239074  21.4165194   9.0650727  59.0624204
  26.9468346  11.9750959  63.7768866  27.0005369  12.5441895  64.5446582
  26.0783128  12.1452844  63.4122903  34.0756001   8.4172566  64.7768651
  34.2691891   9.3218376  65.0227926  33.9756619   7.9579985  65.6107236
  29.1371110   8.5679308  70.3509532  28.9856616   8.3389860  69.4339615
  29.1275789   9.5249910  70.3640877  25.9056446   6.1411221  65.3355798
  26.8348506   6.2922381  65.1624765  25.4847476   6.2295242  64.4804445
  24.7044778  10.1661886  63.1054336  24.5655864   9.7980670  63.9780274
  23.9159374  10.6809525  62.9338294  25.2992930  15.2670982  54.4479872
  25.4744686  14.7959025  55.2625495  24.6125718  15.8936748  54.6761133
  26.2549993   9.5443488  60.4943174  25.9199826   9.5044258  61.3900823
  25.7553939   8.8788204  60.0213584  29.1909185   6.8899523  50.7680233
  28.5738355   6.1646351  50.6713286  28.7225673   7.6508883  50.4247307
  30.8463316  11.5998431  68.4286014  30.7875863  10.9157651  67.7616597
  31.2482835  12.3417421  67.9766640  19.8654015  18.4160345  61.2219732
  20.1050613  19.0478869  61.8998751  19.0223212  18.0648385  61.5085092
  30.8480724   9.5638015  66.6599993  29.9607502   9.2263937  66.7826392
  31.4179275   8.8321046  66.8968759  24.3781877  14.2239467  63.6261236
  24.3052049  15.0294439  64.1380541  23.9359270  14.4231433  62.8009258
  24.1671657  13.4611237  57.1364058  23.3839179  14.0032917  57.2302283
  24.8664402  13.9785217  57.5358299  35.3298064   4.9746232  61.4216555
  35.3187940   5.8570948  61.0510488  34.4615444   4.6217783  61.2271092
  26.8380561  14.1226301  65.7819395  27.5508533  14.7573766  65.7095297
  26.3470589  14.2190167  64.9659397  28.5598087   8.0277554  57.3536687
  27.6254366   8.1479016  57.1841391  28.7374756   7.1250021  57.0896697
  31.9470639   3.8694873  57.8886721  32.4131091   4.7022865  57.8147024
  32.3978139   3.4039855  58.5931979  21.8892474  11.8720745  66.6024966
  22.5901934  12.5057228  66.7554360  21.4187589  12.2135476  65.8420605
  30.0146870  10.2138694  54.8872873  30.2906714  10.0995289  55.7966747
  29.1451369   9.8156179  54.8485046  29.6893760   4.4265352  64.4277516
  29.0365210   4.6741260  63.7729969  30.0674140   3.6129490  64.0939994
  26.6500934  14.4625045  58.5305687  26.8323328  13.6446701  58.9933439
  27.4733920  14.6792738  58.0930577  26.9843099  13.3893230  55.7920735
  27.5130866  12.8785685  55.1790897  27.2471319  13.0735761  56.6566268
  25.7381333   5.1685163  70.9143553  25.0621970   5.0679293  71.5845929
  26.5608967   5.0124377  71.3779551  17.4860192  11.4057100  63.5356069
  18.0713629  10.6600788  63.6683973  17.2885031  11.7161056  64.4192733
  20.3398847  14.4408347  58.5518511  19.6709223  14.9254475  58.0682551
  20.2011717  14.6877568  59.4661890  24.4804116  16.4752091  65.1501169
  25.0322424  16.6383712  65.9150255  24.8210309  17.0656528  64.4781194
  29.3314990  11.3013348  71.0049824  29.8754894  11.9143306  70.5104779
  28.7501835  11.8592927  71.5216837  27.6172503  14.4234066  62.1364852
  27.4923643  13.6223806  61.6275797  28.2751594  14.9180260  61.6478822
  29.6807412  12.2243086  63.7644402  28.7337747  12.1048437  63.6922728
  30.0290185  11.3365584  63.8470663  26.6853845  12.0195802  59.9648754
  26.5378807  11.0912510  60.1456324  27.5107338  12.0415893  59.4805829
  30.2887967  12.8424361  61.0513627  31.2134514  12.6367223  60.9138078
  30.1203270  12.5940762  61.9602968  30.0783283  13.3610029  56.4075718
  30.2520161  12.7956451  55.6549571  30.5712174  14.1610924  56.2255208
  35.9322674   6.1246452  58.0266018  36.3753820   5.3753777  57.6285141
  35.0549184   6.1156588  57.6439750  31.0658455  12.6776793  53.5072616
  31.7609360  13.2983486  53.7259931  31.4081606  11.8272144  53.7824994
  32.9649879  10.1276499  55.0359947  33.4901203  10.4663771  54.3109267
  32.8772231   9.1923514  54.8523082  24.6269927  14.0410572  67.1649824
  24.9357054  13.7959719  68.0372523  25.4245409  14.2457211  66.6768694
  24.6490539  16.1948482  59.3955200  24.2095530  15.7024861  60.0888057
  25.3998656  15.6521450  59.1547276  17.1282878  12.3860023  59.3979828
  17.9540898  12.0863795  59.0178472  16.7776930  11.6167645  59.8469617
  22.0964412  11.7386491  61.4677502  21.4744421  11.0757196  61.1679730
  22.7669278  11.7647623  60.7851150  32.6543785  10.7609402  70.3411145
  31.8639328  10.7433541  69.8015644  32.4177139  11.2997696  71.0960182
  32.7741660   7.6101869  67.6543874  32.8239665   7.4451876  68.5959396
  32.6655583   6.7429128  67.2641754  21.6577918  10.2890414  54.9435963
  21.8066039  10.9725879  54.2902635  22.4644362  10.2695504  55.4585418
  30.0645422   3.5932797  68.9703180  30.9655285   3.4539261  68.6787178
  30.1393397   3.7587251  69.9101358  34.2759857  10.0298810  67.8985895
  33.9844665  10.3928791  68.7349356  33.6631988   9.3165818  67.7199227
  35.4755539   7.5951690  60.4188465  36.3102430   8.0341494  60.5826026
  35.6114668   7.1190343  59.5996711  32.5247045   5.1531425  66.3665953
  33.0001166   5.3459071  65.5584805  31.6012610   5.2090611  66.1209337
  25.1573324  12.7838545  52.4147710  24.5847291  13.4028732  51.9618182
  25.7306118  13.3337906  52.9487632  31.2248714   2.0297185  64.5994259
  32.1766137   2.1295282  64.6206483  31.0552164   1.2375453  65.1092343
  28.3770584  13.0675695  53.5456292  29.3101257  13.0021257  53.7489168
  28.2893797  13.9031962  53.0870825  31.0058600  12.3841565  50.5060240
  30.9272232  12.0501429  51.3995998  31.8268267  12.8763333  50.5051712
  33.7036792   5.2503305  63.7136558  33.6713112   4.3119305  63.8996242
  34.3137415   5.3287341  62.9802383  33.8531280   2.0414348  63.7594842
  33.3370329   1.2572805  63.5724770  34.7371229   1.7133065  63.9241361
  39.5213341   6.3119311  62.8542595  40.2516730   6.0504599  63.4150299
  38.9120287   5.5748033  62.8944663  37.6028639   4.4527174  63.4517046
  36.8761802   4.3183139  62.8433538  37.1875925   4.7604003  64.2573764
  25.4258815   8.1717104  71.2164419  26.3461824   8.3495703  71.4104466
  25.3908398   7.2273149  71.0644119  32.7833875  -0.0388593  59.7476537
  33.5594265   0.4507859  60.0201154  32.0582009   0.3869461  60.2048407
  35.2206433   0.6739026  60.8050478  35.8150924   0.4334762  60.0943786
  35.2933017  -0.0453843  61.4324014  17.4403589  14.5172637  61.1193643
  17.3058057  13.7573038  60.5531641  17.0235651  15.2413537  60.6522432
  28.5762552   9.7009561  50.1270218  29.2798402   9.9059563  50.7427874
  27.8525201  10.2686323  50.3919302  29.4060362   5.4519422  56.2472488
  29.3495564   5.9087973  55.4080121  29.9588705   4.6910106  56.0695331
  33.2165168   1.2409154  57.0722608  32.9602103   0.8405789  57.9030815
  32.5918036   1.9552948  56.9472747  37.5277506   3.9805227  59.5793899
  36.9677064   4.0498416  60.3525461  36.9221010   3.8046212  58.8593395
  20.5972715  15.4141954  61.3312085  20.4805099  16.3587387  61.2290776
  19.7765161  15.1115516  61.7197885  30.4849250  10.1392090  52.1768678
  31.3194854   9.7073288  51.9946153  30.3233592   9.9674104  53.1045573
  30.1395142   6.6424203  53.5425017  30.0843946   6.4768475  52.6013462
  29.5141197   7.3500236  53.6987207  27.4541049   8.9473115  72.8678580
  28.3232209   9.1213767  72.5065215  26.9747800   9.7667532  72.7454310
  21.6227229  16.0670216  64.5468014  22.5254476  16.0993826  64.8634509
  21.3964599  15.1370667  64.5614350  23.3780831  14.8201203  61.2078093
  22.4276462  14.8203064  61.0942465  23.6813317  14.0733937  60.6914127
  39.1133525  20.6561741  62.2723855  39.7511935  20.5368488  61.5687195
  38.9954368  21.6042585  62.3311807  35.9223231  20.6089169  62.2085380
  35.5841742  20.4930234  61.3205914  36.7912999  20.2080334  62.1886386
  31.7810047  22.4624645  58.1982271  31.2174912  22.3714582  57.4298558
  31.6662442  21.6424550  58.6784763  36.4043014  21.7624021  68.1671585
  36.3931655  21.3676819  67.2952089  36.5663653  21.0290093  68.7605357
  29.3274479  23.9575837  61.0366491  30.1195771  23.6166662  60.6212790
  29.5671129  24.0670812  61.9568644  37.3609605  26.1295613  53.5096735
  36.7097585  26.7149694  53.1230749  38.1553968  26.6601808  53.5691773
  31.2865233  23.2184750  53.9083870  32.0596109  22.6713737  53.7696746
  31.6390631  24.0829000  54.1198331  33.1250275  24.5461133  67.1150769
  32.8340141  25.4506763  66.9997435  33.7607259  24.5877660  67.8294839
  34.0506482  21.9237981  63.7052129  34.6470054  21.6994003  62.9909092
  34.1081453  21.1822727  64.3077577  33.6231510  19.3777416  51.5402320
  33.8757031  18.8558938  50.7785783  32.6856069  19.2143562  51.6429003
  38.6674793  18.3813195  59.3477063  39.4537882  17.9632618  58.9967480
  38.9313497  19.2859287  59.5158711  38.8384871  23.8186045  54.0465720
  38.2030703  23.8920672  54.7586624  38.5082277  24.4079644  53.3684799
  44.0683220  18.3188428  60.2510041  44.8008392  17.7487645  60.4847871
  43.3122576  17.9310028  60.6916547  33.3427799  21.2805522  53.7426695
  33.2264057  20.6050426  54.4107779  33.4530059  20.7937896  52.9258848
  35.6859340  20.7415669  57.4473384  35.3217547  20.2146290  58.1586305
  36.5426456  20.3514139  57.2739869  41.5908641  12.0310002  64.7104650
  41.2591965  12.9005413  64.4865865  40.9954254  11.7146286  65.3898680
  35.3264827  15.7705569  52.4434732  35.4939229  16.6385806  52.8105203
  35.1361996  15.9332851  51.5196022  38.0840160  24.2322548  64.1100563
  37.7840883  25.1347587  64.0016370  37.7391220  23.9654731  64.9621716
  31.5352642  20.6836345  60.1437267  30.6103138  20.5512559  60.3514959
  31.7837055  21.4630564  60.6407210  41.4837304  16.7505088  61.7898000
  40.5754181  16.6820497  61.4956761  41.4324900  17.2277033  62.6179826
  35.3054048  18.2263227  53.4281399  35.1853673  18.6720277  54.2666880
  34.6106636  18.5748544  52.8694937  28.8961453  20.3269618  60.9781056
  29.0253834  20.5804097  61.8920468  28.2158904  20.9197326  60.6585711
  33.0660940  30.9966868  57.0771530  32.9884970  31.9474694  57.1560011
  32.4622584  30.6512741  57.7346457  35.5578170  18.1694734  69.7332897
  34.7811504  18.7288654  69.7235762  36.1968733  18.6551517  70.2547768
  43.3498950  14.9521527  63.5675874  42.7073331  15.2454060  62.9215669
  42.8453879  14.8374447  64.3729071  41.0039114  18.6984700  54.2561733
  41.9156970  18.9312087  54.0809431  40.4948761  19.2821744  53.6936812
  33.8124542  20.9780187  69.2950864  34.5539226  21.5165231  69.0185688
  33.1061528  21.6046476  69.4522416  39.2879882  23.1209328  67.8923026
  39.6963238  22.6791738  67.1477658  38.5657143  22.5461955  68.1457219
  35.6410952  18.0581934  65.2656583  36.4872147  18.4821348  65.4091232
  35.5809589  17.4015559  65.9595146  39.6108696  23.6810518  61.6475315
  38.9817559  23.8456232  60.9451383  39.2234358  24.0952128  62.4186279
  43.4897928  24.6164956  59.0019679  42.8048966  24.9963858  58.4516712
  43.5741778  25.2260283  59.7351626  38.7910397  15.7186303  66.9237756
  38.5471329  16.4728363  66.3872032  39.0670328  16.0971650  67.7585004
  40.7448860  22.2624915  65.6015022  40.9565755  22.9056675  64.9249403
  40.6978608  21.4287232  65.1336952  38.3475089  14.8742736  62.5051594
  37.4859568  15.1723989  62.7968332  38.3737523  15.0913135  61.5732627
  35.1636658  23.4184926  58.9125400  35.6275004  23.6972629  58.1230022
  34.8993456  22.5168371  58.7298491  32.0560739  22.9656408  61.8505163
  32.6262096  23.3943676  61.2122648  32.6468851  22.6838993  62.5489349
  34.1005544  19.5408079  55.7214965  34.8029588  19.9929122  56.1888891
  33.7686173  18.8991898  56.3494858  32.5485906  18.1319835  70.0966174
  31.9184566  18.8136116  70.3301571  32.4421994  18.0202917  69.1519313
  27.8430878  17.7991631  61.0232099  27.0529932  18.0549160  60.5472209
  28.3342126  18.6139969  61.1284139  41.8594688  25.1396871  63.7737379
  42.6812132  24.7377058  63.4920061  41.8557091  25.0365105  64.7253495
  29.7945624  18.1636211  57.9815575  28.9976787  18.2754905  58.4999071
  29.5671216  18.5022863  57.1156466  35.6251291  24.6880914  65.9298090
  35.6895724  25.1501321  66.7656262  34.9162215  24.0578279  66.0580400
  26.1268581  18.0522122  63.4547089  26.3776620  18.9369132  63.7204665
  26.6628130  17.8726723  62.6822181  49.9500681  21.4835619  60.1222351
  49.1964389  20.9143017  59.9666355  50.0848222  21.4498284  61.0692986
  35.3399309  26.3549021  55.7977070  35.2044984  27.2000557  56.2261918
  35.8809121  26.5568299  55.0343004  31.8266649  12.4340601  72.4591425
  31.4333594  11.8806800  73.1339070  32.6432789  12.7451180  72.8497943
  28.7928706  23.8724459  56.3704995  29.3053227  24.6667710  56.5210560
  29.4451419  23.1750750  56.3038597  30.6023591  26.9890216  58.4527748
  30.7790219  27.9108180  58.2648732  31.3980425  26.6748635  58.8822128
  34.7434610  13.8498480  70.0511682  35.4844323  14.4505633  69.9716144
  34.9752532  13.1076118  69.4929725  29.8875948  19.0354848  68.3289912
  29.7729463  18.1340105  68.6297011  29.0320465  19.2818544  67.9774728
  36.9667785  26.9772588  69.9277412  36.5231639  26.1908966  69.6098317
  37.6284999  27.1651738  69.2621303  31.7254906  28.5068389  64.4538091
  32.2762332  28.3785453  63.6815085  30.8866382  28.8063279  64.1032984
  39.0649023  27.2575388  67.9558814  39.0467499  28.0784269  67.4639083
  39.9868943  27.1329463  68.1808955  35.5222077  24.7719517  68.7982322
  36.0550414  24.0107805  68.5681630  34.9936159  24.4793169  69.5406476
  38.6891772   9.8779583  64.3275964  38.3456042  10.7681225  64.2515074
  39.0570735   9.6881241  63.4645549  26.7577623  22.2013114  57.1464566
  27.5952845  22.6110122  56.9298274  26.9355891  21.2612556  57.1164760
  38.6542055  19.8688194  52.8348399  38.1388679  20.6392799  53.0736786
  38.3819364  19.1953331  53.4581460  36.2389166  14.7137895  57.8933637
  35.3830763  14.3244746  57.7139276  36.6516118  14.7929856  57.0333423
  37.7688313  12.2484238  62.2925197  37.2653108  12.2114374  61.4793002
  38.0618920  13.1576981  62.3521854  34.0131199  12.3322968  61.2991379
  34.8784196  12.1365777  60.9397268  34.0808708  12.1033320  62.2260735
  43.6276329  22.6220549  54.7701572  42.8505772  22.2831709  54.3256734
  44.3067810  22.6273172  54.0956537  38.4428358  17.7415286  54.6608180
  38.1378494  18.0561436  55.5118323  39.3958800  17.8196706  54.7035513
  36.8874790  23.9005510  56.3101134  36.3596152  23.1658269  55.9974371
  36.3862293  24.6780186  56.0641102  41.8667636  22.0954530  61.4268180
  41.2091311  22.7853792  61.5148309  42.6708035  22.4850962  61.7702167
  31.6193518  14.5625176  58.6707745  32.1937270  14.3400358  57.9380938
  32.2064500  14.6313871  59.4236347  40.6773095  20.4498903  59.4772122
  41.1904977  21.0828895  59.9793832  41.3274319  19.8500098  59.1115482
  31.9463105  16.5929637  52.6903631  31.1100417  16.9304324  53.0112905
  31.8067875  16.4578617  51.7530768  33.9216186  11.4366425  57.3982815
  33.2680598  11.1215442  56.7739430  33.8796660  10.8142165  58.1242638
  35.0327390  21.7185720  49.3136107  34.1254452  21.4874973  49.5127256
  35.5298422  20.9223339  49.5010089  37.9395469  30.4283227  52.2332793
  37.2657168  30.7314924  52.8417751  38.3261291  31.2312308  51.8838250
  37.1553926  17.9248359  61.7230463  36.2376487  18.1463306  61.5652151
  37.5714070  17.9994669  60.8642170  37.9388974  19.3239774  56.8533143
  38.6860793  19.8361171  56.5440265  38.2080563  19.0023827  57.7137536
  36.2115624  21.8198315  53.8360097  35.3026843  21.5357348  53.9332567
  36.2410708  22.2397393  52.9763404  41.4434891  25.4304904  57.6051265
  40.9897218  24.5895814  57.6616455  40.8128858  26.0666303  57.9426045
  40.3867811  16.3596890  58.8351932  39.6490568  15.8474277  59.1662175
  40.6394584  15.9197272  58.0235209  39.8867830  27.2681401  58.5401083
  40.1790805  27.8286458  57.8213448  40.3966451  27.5609962  59.2954242
  40.4879438   9.1373142  59.4293701  40.7938315   8.2770506  59.1419616
  41.2132043   9.7290763  59.2292695  26.7803794  19.5403829  57.8175299
  26.5828194  18.9473190  57.0926366  26.2250458  19.2356039  58.5351238
  34.7600518  19.4326936  59.9369892  34.8149128  18.4800772  59.8612369
  33.9491720  19.5886375  60.4211191  35.9091712  23.3607059  51.1748176
  35.4711142  22.6442918  50.7153813  36.6502152  23.5883173  50.6133267
  32.6992878  18.0503995  57.6960271  31.8860743  18.3498166  58.1025463
  33.1951872  17.6559684  58.4134754  34.8501456  28.0461752  59.6294536
  34.8077634  28.2722598  58.7003068  35.7664155  27.8125127  59.7780337
  38.2967089  18.5145820  66.5275165  38.6516477  18.7417293  67.3869631
  38.9439221  18.8464197  65.9052420  44.0264826  21.6364256  57.2324494
  43.8882725  21.8265852  56.3045683  43.6701045  22.3983638  57.6892545
  32.1906953  15.6222351  63.3121506  32.8306332  15.4811110  62.6144470
  31.3584483  15.3356864  62.9360108  44.0534206  23.7040783  62.2435766
  44.4870713  23.6116072  63.0918820  44.7665787  23.6798283  61.6055782
  32.9667256  24.9224781  59.4256499  33.7607855  24.4275101  59.2239074
  32.2558949  24.3942644  59.0624204  37.7862101  27.3042877  63.7768866
  37.8399123  27.8733813  64.5446582  36.9176882  27.4744762  63.4122903
  29.2750020  19.0667863  55.5016251  28.3447608  19.0052318  55.7186214
  29.3707492  18.5443816  54.7052893  29.1935569  15.5922676  58.0894493
  29.4542386  16.5068009  57.9803654  30.0152741  15.1247118  58.2391106
  30.6660494  17.0060433  65.2593318  31.3383548  16.7977795  64.6105966
  29.8390281  16.8082519  64.8198550  44.9149756  23.7464483  64.7768651
  45.1085646  24.6510294  65.0227926  44.8150374  23.2871902  65.6107236
  36.5686066  13.6322374  67.2758978  35.9213981  14.3312324  67.1823455
  37.3387082  14.0658518  67.6435227  39.9764864  23.8971226  70.3509532
  39.8250371  23.6681778  69.4339615  39.9669544  24.8541827  70.3640877
  36.7450201  21.4703139  65.3355798  37.6742261  21.6214298  65.1624765
  36.3241231  21.5587160  64.4804445  35.5438532  25.4953803  63.1054336
  35.4049618  25.1272588  63.9780274  34.7553129  26.0101443  62.9338294
  36.1386684  30.5962900  54.4479872  36.3138440  30.1250943  55.2625495
  35.4519472  31.2228666  54.6761133  37.0943748  24.8735406  60.4943174
  36.7593580  24.8336176  61.3900823  36.5947693  24.2080122  60.0213584
  31.0687992  20.2803036  66.0195755  30.9307789  19.5483275  66.6207294
  31.9792915  20.1911936  65.7379942  40.0302939  22.2191440  50.7680233
  39.4132110  21.4938268  50.6713286  39.5619428  22.9800801  50.4247307
  33.6970292  19.9922995  65.5079434  34.4069911  19.3516187  65.4666053
  33.6539600  20.2435890  66.4305615  41.6857071  26.9290349  68.4286014
  41.6269617  26.2449569  67.7616597  42.0876589  27.6709339  67.9766640
  32.4099226  16.9788213  67.3275074  31.8736583  16.5278952  67.9796670
  31.8215935  17.1134122  66.5845538  30.7047770  33.7452262  61.2219732
  30.9444368  34.3770787  61.8998751  29.8616966  33.3940302  61.5085092
  31.8201485  16.4376865  49.8901538  30.9430951  16.3165665  49.5263784
  32.2959238  15.6462943  49.6380426  41.6874478  24.8929933  66.6599993
  40.8001257  24.5555854  66.7826392  42.2573029  24.1612964  66.8968759
  23.3403625  21.2254024  59.9843045  24.0274665  20.9115754  59.3964060
  23.1851754  22.1295389  59.7110296  28.1438347  16.1144221  64.4128068
  28.0596536  15.5069890  63.6778478  27.3221054  16.6053239  64.4137565
  35.2175632  29.5531385  63.6261236  35.1445803  30.3586356  64.1380541
  34.7753025  29.7523351  62.8009258  35.0065411  28.7903155  57.1364058
  34.2232933  29.3324835  57.2302283  35.7058156  29.3077135  57.5358299
  38.3162061  14.5997784  59.7798263  38.8130761  13.8467747  59.4599334
  37.5449043  14.6362101  59.2141473  46.1691819  20.3038150  61.4216555
  46.1581695  21.1862865  61.0510488  45.3009198  19.9509701  61.2271092
  37.6774315  29.4518219  65.7819395  38.3902287  30.0865684  65.7095297
  37.1864344  29.5482085  64.9659397  39.3991842  23.3569472  57.3536687
  38.4648121  23.4770934  57.1841391  39.5768510  22.4541938  57.0896697
  34.8997030  16.7415167  59.5069948  34.5294818  16.1886208  60.1950854
  35.3956122  16.1373301  58.9544948  42.7864393  19.1986791  57.8886721
  43.2524846  20.0314782  57.8147024  43.2371894  18.7331772  58.5931979
  32.7286229  27.2012662  66.6024966  33.4295688  27.8349145  66.7554360
  32.2581344  27.5427394  65.8420605  40.8540624  25.5430612  54.8872873
  41.1300468  25.4287207  55.7966747  39.9845123  25.1448097  54.8485046
  40.7581056  11.5667378  61.9277622  39.8444136  11.7971605  62.0959829
  41.1874158  11.6505822  62.7791655  40.5287515  19.7557270  64.4277516
  39.8758965  20.0033177  63.7729969  40.9067894  18.9421408  64.0939994
  37.4894688  29.7916963  58.5305687  37.6717083  28.9738619  58.9933439
  38.3127674  30.0084655  58.0930577  37.8236854  28.7185148  55.7920735
  38.3524620  28.2077603  55.1790897  38.0865074  28.4027678  56.6566268
  36.5775088  20.4977081  70.9143553  35.9015725  20.3971210  71.5845929
  37.4002721  20.3416295  71.3779551  28.3253947  26.7349017  63.5356069
  28.9107383  25.9892705  63.6683973  28.1278785  27.0452974  64.4192733
  31.1792602  29.7700265  58.5518511  30.5102977  30.2546392  58.0682551
  31.0405472  30.0169485  59.4661890  22.9171601  19.3054618  62.2560512
  22.9555701  18.7718208  63.0497630  22.4111894  18.7789823  61.6371489
  35.3197870  31.8044008  65.1501169  35.8716179  31.9675630  65.9150255
  35.6604064  32.3948446  64.4781194  30.2962364  14.1519158  65.7523054
  30.3603690  15.0133989  65.3400452  30.2329484  13.5393160  65.0195413
  29.7714636  16.2242291  69.3996088  30.3986675  15.8419368  70.0133613
  28.9142555  16.0056493  69.7651781  40.1708745  26.6305266  71.0049824
  40.7148649  27.2435224  70.5104779  39.5895590  27.1884844  71.5216837
  26.5480179  18.0318720  55.3314443  26.8433620  17.1229398  55.2781497
  25.6468215  18.0106459  55.0095446  38.4566258  29.7525984  62.1364852
  38.3317397  28.9515724  61.6275797  39.1145349  30.2472177  61.6478822
  30.0774426  16.1074716  61.3141992  29.3561012  16.7210684  61.1749465
  30.8667682  16.6432481  61.2358638  40.5201166  27.5535004  63.7644402
  39.5731502  27.4340355  63.6922728  40.8683939  26.6657502  63.8470663
  32.8800740  13.4429143  67.5882644  33.4035141  13.6891439  68.3508953
  32.6613073  14.2749178  67.1685781  28.2768021  15.7132817  55.4553768
  27.9480727  14.8330196  55.2728874  28.6307391  15.6580486  56.3430158
  37.5247599  27.3487720  59.9648754  37.3772562  26.4204428  60.1456324
  38.3501093  27.3707811  59.4805829  31.3909844  16.0005787  55.8229246
  31.7305916  16.5291708  55.1007854  31.8381964  16.3386193  56.5987813
  41.1281721  28.1716279  61.0513627  42.0528269  27.9659140  60.9138078
  40.9597025  27.9232680  61.9602968  34.0853285  14.3842838  65.2732314
  33.7450105  13.5850651  65.6752994  33.3792291  14.6844549  64.7009147
  34.7369756  11.4692150  63.7259637  35.5595826  10.9952629  63.6038527
  34.9807820  12.2482634  64.2258323  33.3777991  14.4980409  54.0222539
  34.0986353  14.8761662  53.5186256  32.7543295  15.2169286  54.1257517
  37.5209114  15.2025558  54.9580871  37.7372728  16.0850196  54.6569699
  37.0403181  14.8111771  54.2286513  32.2608335  18.1611271  61.5351616
  32.1152916  18.4751574  62.4275897  31.7833539  18.7796171  60.9822514
  34.1204718  15.1513819  61.5832505  34.1066287  14.2554912  61.2464803
  34.8377146  15.1584483  62.2170791  35.9730849  15.5851159  63.6285633
  35.7148627  16.5068230  63.6269963  35.4415889  15.1881594  64.3186097
  40.9177037  28.6901946  56.4075718  41.0913915  28.1248369  55.6549571
  41.4105929  29.4902841  56.2255208  26.7353997  20.7016615  64.4739277
  26.1907465  21.4776423  64.6059551  27.6133347  21.0487420  64.3158398
  33.5241614  14.0328199  56.8520075  33.6457525  13.1044845  57.0510963
  33.2343656  14.0466885  55.9398391  36.3932804  11.7183110  59.9886795
  36.4154501  11.7822443  59.0338775  36.8100863  10.8787618  60.1827301
  46.7716429  21.4538369  58.0266018  47.2147575  20.7045694  57.6285141
  45.8942939  21.4448506  57.6439750  41.9052210  28.0068711  53.5072616
  42.6003115  28.6275403  53.7259931  42.2475360  27.1564062  53.7824994
  27.5220019  19.8286512  67.3669434  26.7801755  19.9769147  67.9534064
  27.2012763  20.0894777  66.5036183  43.8043633  25.4568416  55.0359947
  44.3294957  25.7955689  54.3109267  43.7165986  24.5215432  54.8523082
  35.4663682  29.3702490  67.1649824  35.7750808  29.1251637  68.0372523
  36.2639164  29.5749128  66.6768694  35.4884294  31.5240400  59.3955200
  35.0489284  31.0316778  60.0888057  36.2392411  30.9813367  59.1547276
  27.9676633  27.7151940  59.3979828  28.7934653  27.4155712  59.0178472
  27.6170685  26.9459563  59.8469617  32.9358166  27.0678409  61.4677502
  32.3138175  26.4049114  61.1679730  33.6063033  27.0939541  60.7851150
  26.1685238  25.6338267  60.3568762  25.3317146  25.2060441  60.1752763
  26.1408883  25.8270710  61.2939553  33.0082693  15.5460197  71.0610008
  33.0570849  16.4222319  70.6787778  33.5505208  15.0037590  70.4881651
  43.4937539  26.0901320  70.3411145  42.7033083  26.0725459  69.8015644
  43.2570894  26.6289614  71.0960182  43.6135414  22.9393786  67.6543874
  43.6633419  22.7743794  68.5959396  43.5049338  22.0721045  67.2641754
  32.4971673  25.6182332  54.9435963  32.6459793  26.3017796  54.2902635
  33.3038116  25.5987422  55.4585418  40.9039177  18.9224714  68.9703180
  41.8049039  18.7831179  68.6787178  40.9787151  19.0879169  69.9101358
  35.2381982  16.2991569  67.8156367  34.3685291  16.5925135  67.5438955
  35.4741462  16.8832014  68.5363630  45.1153611  25.3590728  67.8985895
  44.8238419  25.7220708  68.7349356  44.5025742  24.6457736  67.7199227
  46.3149293  22.9243608  60.4188465  47.1496185  23.3633412  60.5826026
  46.4508422  22.4482261  59.5996711  43.3640799  20.4823342  66.3665953
  43.8394921  20.6750989  65.5584805  42.4406365  20.5382528  66.1209337
  30.2524306  21.6447510  55.9497031  30.0070348  20.7409840  56.1477242
  30.4220220  21.6464660  55.0076509  37.9421016  12.5171186  65.3321787
  38.4602960  13.2532213  65.0068276  37.5876149  12.8235179  66.1668546
  29.5219953  17.3775867  53.4483193  28.8289198  17.4520222  52.7923229
  29.2771705  16.6136211  53.9704710  38.1933610   8.9371469  60.8522684
  38.4735364   8.2694658  61.4783110  38.9784217   9.1300564  60.3397347
  35.9967078  28.1130462  52.4147710  35.4241046  28.7320650  51.9618182
  36.5699872  28.6629824  52.9487632  42.0642468  17.3589103  64.5994259
  43.0159891  17.4587200  64.6206483  41.8945919  16.5667371  65.1092343
  40.0856848  14.4444686  64.7853660  39.4906780  14.7249698  64.0900148
  39.8006544  14.9338587  65.5570401  39.2164338  28.3967613  53.5456292
  40.1495011  28.3313174  53.7489168  39.1287551  29.2323879  53.0870825
  41.8452355  27.7133483  50.5060240  41.7665986  27.3793346  51.3995998
  42.6662022  28.2055251  50.5051712  44.5430546  20.5795222  63.7136558
  44.5106866  19.6411223  63.8996242  45.1531170  20.6579259  62.9802383
  36.3813877  19.4491275  49.7563762  37.3272982  19.3197483  49.8252180
  36.0028122  18.7105937  50.2333191  44.6925035  17.3706266  63.7594842
  44.1764083  16.5864722  63.5724770  45.5764983  17.0424982  63.9241361
  42.3535761  11.1147281  59.7190654  42.1560583  10.8062369  60.6033986
  42.9635467  11.8408920  59.8488584  50.3607096  21.6411229  62.8542595
  51.0910484  21.3796517  63.4150299  49.7514041  20.9039951  62.8944663
  48.4422393  19.7819092  63.4517046  47.7155557  19.6475057  62.8433538
  48.0269680  20.0895920  64.2573764  36.2652569  23.5009021  71.2164419
  37.1855579  23.6787620  71.4104466  36.2302153  22.5565067  71.0644119
  34.5656794  17.3741252  49.6918648  33.6588249  17.0774364  49.7681361
  34.8432775  17.0771070  48.8252934  25.4834734  18.6947615  60.1417694
  25.1637519  17.8412923  59.8492068  24.9368163  18.9096193  60.8975661
  29.2614642  21.4110056  63.8587201  29.4800652  22.3427164  63.8775234
  29.6740416  21.0518030  64.6442004  36.1818860  11.9178141  55.8462889
  35.3719588  11.5725226  56.2218135  36.8703277  11.6085685  56.4350501
  38.1109408  10.9956188  57.4687186  38.6640447  11.4151642  58.1277209
  38.3479494  10.0691936  57.5110142  34.1342507  16.9843262  73.2489950
  34.0339234  17.9337619  73.1802041  33.9164049  16.6561501  72.3766020
  33.3355579  14.2328187  49.8330627  34.1974743  14.5583085  50.0926444
  33.5205923  13.4459683  49.3203693  25.3522994  22.3150526  62.1110816
  24.6586466  21.9004479  61.5980770  26.0995985  22.3571063  61.5144235
  41.4888215  13.1056713  56.9765850  40.9086884  13.7641517  56.5943902
  41.2224148  12.2834058  56.5653267  39.9391782  12.5061771  59.1787170
  40.4391560  12.6178305  58.3701489  40.5827389  12.2022824  59.8187979
  33.9973777  20.4140401  72.0655011  33.5140859  21.2140761  72.2718900
  34.0834716  20.4248345  71.1122455  27.2659737  22.2468780  59.9876831
  27.2430425  22.3456468  59.0358714  27.5760373  23.0933931  60.3093997
  29.9247115  24.3044935  64.1023445  30.8790368  24.2728878  64.0353377
  29.7259638  23.8435559  64.9173671  30.5146497  22.8746051  66.6694243
  31.3339386  23.3690130  66.6929080  30.7883305  21.9578019  66.6411810
  40.2713093  15.2656804  56.0322198  39.3838948  15.5506454  55.8142393
  40.6867082  15.1050567  55.1849475  43.6227629  15.2903325  59.7476537
  44.3988019  15.7799777  60.0201154  42.8975764  15.7161379  60.2048407
  46.0600188  16.0030944  60.8050478  46.6544679  15.7626680  60.0943786
  46.1326772  15.2838074  61.4324014  28.2797344  29.8464555  61.1193643
  28.1451812  29.0864956  60.5531641  27.8629406  30.5705455  60.6522432
  39.4156307  25.0301478  50.1270218  40.1192157  25.2351481  50.7427874
  38.6918955  25.5978240  50.3919302  40.2454117  20.7811340  56.2472488
  40.1889318  21.2379891  55.4080121  40.7982459  20.0202024  56.0695331
  44.0558923  16.5701071  57.0722608  43.7995857  16.1697707  57.9030815
  43.4311791  17.2844865  56.9472747  48.3671261  19.3097145  59.5793899
  47.8070819  19.3790334  60.3525461  47.7614764  19.1338129  58.8593395
  31.4366470  30.7433872  61.3312085  31.3198854  31.6879304  61.2290776
  30.6158916  30.4407433  61.7197885  41.3243004  25.4684007  52.1768678
  42.1588608  25.0365206  51.9946153  41.1627347  25.2966021  53.1045573
  40.9788896  21.9716121  53.5425017  40.9237700  21.8060392  52.6013462
  40.3534952  22.6792154  53.6987207  25.7681411  17.2084185  67.3686440
  26.4140275  16.6983139  67.8573665  25.5598562  17.9452867  67.9429865
  38.2934803  24.2765033  72.8678580  39.1625963  24.4505685  72.5065215
  37.8141555  25.0959449  72.7454310  34.2885022  11.4724230  53.1210336
  34.2763692  12.4166070  53.2778607  35.1808444  11.2894375  52.8269797
  32.4620984  31.3962134  64.5468014  33.3648230  31.4285744  64.8634509
  32.2358354  30.4662585  64.5614350  34.2174586  30.1493120  61.2078093
  33.2670217  30.1494982  61.0942465  34.5207072  29.4025855  60.6914127
  38.1037141   8.0667006  57.3756273  37.3369537   7.5125493  57.5212955
  38.5147846   8.1388875  58.2370424  30.1078902  14.3551802  71.4661454
  30.9710364  13.9988607  71.6764778  29.5344313  14.0165697  72.1536858
  49.9527279  35.9853659  62.2723855  50.5905689  35.8660406  61.5687195
  49.8348122  36.9334503  62.3311807  46.7616985  35.9381087  62.2085380
  46.4235497  35.8222151  61.3205914  47.6306754  35.5372252  62.1886386
  42.6203801  37.7916563  58.1982271  42.0568666  37.7006500  57.4298558
  42.5056196  36.9716468  58.6784763  47.2436768  37.0915938  68.1671585
  47.2325409  36.6968737  67.2952089  47.4057408  36.3582011  68.7605357
  40.1668233  39.2867755  61.0366491  40.9589525  38.9458579  60.6212790
  40.4064883  39.3962730  61.9568644  48.2003360  41.4587531  53.5096735
  47.5491340  42.0441611  53.1230749  48.9947723  41.9893726  53.5691773
  42.1258987  38.5476668  53.9083870  42.8989863  38.0005655  53.7696746
  42.4784386  39.4120917  54.1198331  43.9644030  39.8753050  67.1150769
  43.6733896  40.7798681  66.9997435  44.6001014  39.9169578  67.8294839
  44.8900236  37.2529899  63.7052129  45.4863809  37.0285921  62.9909092
  44.9475208  36.5114644  64.3077577  44.4625265  34.7069334  51.5402320
  44.7150786  34.1850855  50.7785783  43.5249824  34.5435480  51.6429003
  49.5068548  33.7105112  59.3477063  50.2931637  33.2924536  58.9967480
  49.7707252  34.6151205  59.5158711  49.6778625  39.1477963  54.0465720
  49.0424458  39.2212589  54.7586624  49.3476031  39.7371562  53.3684799
  54.9076975  33.6480346  60.2510041  55.6402147  33.0779562  60.4847871
  54.1516330  33.2601946  60.6916547  44.1821554  36.6097440  53.7426695
  44.0657812  35.9342343  54.4107779  44.2923813  36.1229814  52.9258848
  46.5253095  36.0707587  57.4473384  46.1611302  35.5438208  58.1586305
  47.3820210  35.6806056  57.2739869  52.4302395  27.3601920  64.7104650
  52.0985720  28.2297331  64.4865865  51.8348009  27.0438204  65.3898680
  46.1658581  31.0997487  52.4434732  46.3332984  31.9677723  52.8105203
  45.9755751  31.2624769  51.5196022  48.9233915  39.5614466  64.1100563
  48.6234638  40.4639505  64.0016370  48.5784974  39.2946649  64.9621716
  42.3746396  36.0128263  60.1437267  41.4496893  35.8804477  60.3514959
  42.6230809  36.7922482  60.6407210  52.3231058  32.0797006  61.7898000
  51.4147936  32.0112414  61.4956761  52.2718654  32.5568951  62.6179826
  46.1447802  33.5555144  53.4281399  46.0247428  34.0012195  54.2666880
  45.4500391  33.9040462  52.8694937  39.7355207  35.6561536  60.9781056
  39.8647588  35.9096015  61.8920468  39.0552658  36.2489244  60.6585711
  43.9054694  46.3258786  57.0771530  43.8278724  47.2766611  57.1560011
  43.3016338  45.9804659  57.7346457  46.3971924  33.4986652  69.7332897
  45.6205258  34.0580572  69.7235762  47.0362487  33.9843435  70.2547768
  54.1892705  30.2813444  63.5675874  53.5467085  30.5745977  62.9215669
  53.6847633  30.1666365  64.3729071  51.8432869  34.0276618  54.2561733
  52.7550725  34.2604004  54.0809431  51.3342516  34.6113662  53.6936812
  44.6518297  36.3072105  69.2950864  45.3932981  36.8457149  69.0185688
  43.9455282  36.9338394  69.4522416  50.1273636  38.4501245  67.8923026
  50.5356992  38.0083656  67.1477658  49.4050898  37.8753873  68.1457219
  46.4804706  33.3873852  65.2656583  47.3265901  33.8113266  65.4091232
  46.4203344  32.7307476  65.9595146  50.4502451  39.0102436  61.6475315
  49.8211313  39.1748150  60.9451383  50.0628113  39.4244046  62.4186279
  54.3291683  39.9456874  59.0019679  53.6442721  40.3255775  58.4516712
  54.4135532  40.5552200  59.7351626  49.6304152  31.0478220  66.9237756
  49.3865083  31.8020281  66.3872032  49.9064082  31.4263568  67.7585004
  51.5842614  37.5916833  65.6015022  51.7959510  38.2348593  64.9249403
  51.5372363  36.7579149  65.1336952  49.1868843  30.2034653  62.5051594
  48.3253322  30.5015907  62.7968332  49.2131278  30.4205052  61.5732627
  46.0030413  38.7476844  58.9125400  46.4668758  39.0264547  58.1230022
  45.7387211  37.8460289  58.7298491  42.8954494  38.2948326  61.8505163
  43.4655851  38.7235594  61.2122648  43.4862606  38.0130910  62.5489349
  44.9399299  34.8699996  55.7214965  45.6423342  35.3221040  56.1888891
  44.6079927  34.2283815  56.3494858  43.3879660  33.4611753  70.0966174
  42.7578321  34.1428034  70.3301571  43.2815748  33.3494835  69.1519313
  38.6824633  33.1283549  61.0232099  37.8923687  33.3841078  60.5472209
  39.1735880  33.9431887  61.1284139  52.6988442  40.4688788  63.7737379
  53.5205886  40.0668976  63.4920061  52.6950845  40.3657022  64.7253495
  40.6339378  33.4928128  57.9815575  39.8370541  33.6046823  58.4999071
  40.4064970  33.8314781  57.1156466  46.4645046  40.0172832  65.9298090
  46.5289478  40.4793239  66.7656262  45.7555970  39.3870196  66.0580400
  36.9662336  33.3814040  63.4547089  37.2170374  34.2661049  63.7204665
  37.5021884  33.2018641  62.6822181  60.7894435  36.8127537  60.1222351
  60.0358144  36.2434935  59.9666355  60.9241977  36.7790201  61.0692986
  46.1793063  41.6840939  55.7977070  46.0438738  42.5292475  56.2261918
  46.7202876  41.8860217  55.0343004  42.6660403  27.7632519  72.4591425
  42.2727349  27.2098717  73.1339070  43.4826543  28.0743097  72.8497943
  39.6322461  39.2016377  56.3704995  40.1446981  39.9959627  56.5210560
  40.2845174  38.5042668  56.3038597  41.4417345  42.3182133  58.4527748
  41.6183974  43.2400098  58.2648732  42.2374179  42.0040553  58.8822128
  45.5828364  29.1790398  70.0511682  46.3238077  29.7797551  69.9716144
  45.8146287  28.4368036  69.4929725  40.7269702  34.3646765  68.3289912
  40.6123217  33.4632022  68.6297011  39.8714220  34.6110462  67.9774728
  47.8061540  42.3064506  69.9277412  47.3625394  41.5200884  69.6098317
  48.4678753  42.4943656  69.2621303  42.5648661  43.8360307  64.4538091
  43.1156086  43.7077371  63.6815085  41.7260137  44.1355196  64.1032984
  49.9042778  42.5867305  67.9558814  49.8861253  43.4076187  67.4639083
  50.8262698  42.4621381  68.1808955  46.3615832  40.1011435  68.7982322
  46.8944169  39.3399723  68.5681630  45.8329913  39.8085087  69.5406476
  49.5285527  25.2071501  64.3275964  49.1849796  26.0973143  64.2515074
  49.8964490  25.0173159  63.4645549  37.5971378  37.5305031  57.1464566
  38.4346600  37.9402040  56.9298274  37.7749645  36.5904474  57.1164760
  49.4935810  35.1980112  52.8348399  48.9782433  35.9684717  53.0736786
  49.2213118  34.5245248  53.4581460  47.0782921  30.0429813  57.8933637
  46.2224517  29.6536663  57.7139276  47.4909872  30.1221774  57.0333423
  48.6082067  27.5776156  62.2925197  48.1046863  27.5406291  61.4793002
  48.9012674  28.4868899  62.3521854  44.8524953  27.6614886  61.2991379
  45.7177950  27.4657694  60.9397268  44.9202462  27.4325238  62.2260735
  54.4670084  37.9512467  54.7701572  53.6899527  37.6123626  54.3256734
  55.1461565  37.9565090  54.0956537  49.2822113  33.0707204  54.6608180
  48.9772248  33.3853353  55.5118323  50.2352555  33.1488624  54.7035513
  47.7268545  39.2297427  56.3101134  47.1989906  38.4950187  55.9974371
  47.2256047  40.0072104  56.0641102  52.7061391  37.4246448  61.4268180
  52.0485065  38.1145709  61.5148309  53.5101790  37.8142880  61.7702167
  42.4587272  29.8917094  58.6707745  43.0331024  29.6692275  57.9380938
  43.0458255  29.9605788  59.4236347  51.5166850  35.7790821  59.4772122
  52.0298731  36.4120812  59.9793832  52.1668073  35.1792016  59.1115482
  42.7856859  31.9221555  52.6903631  41.9494172  32.2596241  53.0112905
  42.6461629  31.7870535  51.7530768  44.7609940  26.7658343  57.3982815
  44.1074352  26.4507360  56.7739430  44.7190414  26.1434083  58.1242638
  45.8721145  37.0477638  49.3136107  44.9648207  36.8166891  49.5127256
  46.3692177  36.2515257  49.5010089  48.7789224  45.7575145  52.2332793
  48.1050923  46.0606842  52.8417751  49.1655046  46.5604225  51.8838250
  47.9947680  33.2540276  61.7230463  47.0770242  33.4755223  61.5652151
  48.4107824  33.3286587  60.8642170  48.7782728  34.6531692  56.8533143
  49.5254547  35.1653089  56.5440265  49.0474318  34.3315745  57.7137536
  47.0509378  37.1490233  53.8360097  46.1420598  36.8649265  53.9332567
  47.0804462  37.5689311  52.9763404  52.2828646  40.7596822  57.6051265
  51.8290973  39.9187732  57.6616455  51.6522612  41.3958220  57.9426045
  51.2261565  31.6888808  58.8351932  50.4884322  31.1766194  59.1662175
  51.4788339  31.2489190  58.0235209  50.7261585  42.5973319  58.5401083
  51.0184559  43.1578376  57.8213448  51.2360206  42.8901880  59.2954242
  51.3273193  24.4665060  59.4293701  51.6332069  23.6062424  59.1419616
  52.0525797  25.0582680  59.2292695  37.6197549  34.8695747  57.8175299
  37.4221949  34.2765107  57.0926366  37.0644213  34.5647957  58.5351238
  45.5994272  34.7618853  59.9369892  45.6542882  33.8092690  59.8612369
  44.7885474  34.9178292  60.4211191  46.7485466  38.6898976  51.1748176
  46.3104896  37.9734835  50.7153813  47.4895907  38.9175091  50.6133267
  43.5386632  33.3795913  57.6960271  42.7254498  33.6790083  58.1025463
  44.0345626  32.9851602  58.4134754  45.6895210  43.3753670  59.6294536
  45.6471389  43.6014516  58.7003068  46.6057909  43.1417044  59.7780337
  49.1360844  33.8437737  66.5275165  49.4910232  34.0709211  67.3869631
  49.7832975  34.1756114  65.9052420  54.8658581  36.9656173  57.2324494
  54.7276479  37.1557769  56.3045683  54.5094800  37.7275556  57.6892545
  43.0300707  30.9514268  63.3121506  43.6700086  30.8103028  62.6144470
  42.1978238  30.6648782  62.9360108  54.8927960  39.0332700  62.2435766
  55.3264467  38.9407989  63.0918820  55.6059541  39.0090201  61.6055782
  43.8061011  40.2516699  59.4256499  44.6001609  39.7567019  59.2239074
  43.0952703  39.7234562  59.0624204  48.6255855  42.6334794  63.7768866
  48.6792878  43.2025731  64.5446582  47.7570637  42.8036679  63.4122903
  40.1143774  34.3959781  55.5016251  39.1841362  34.3344236  55.7186214
  40.2101246  33.8735733  54.7052893  40.0329323  30.9214593  58.0894493
  40.2936141  31.8359927  57.9803654  40.8546496  30.4539036  58.2391106
  41.5054249  32.3352351  65.2593318  42.1777302  32.1269713  64.6105966
  40.6784035  32.1374437  64.8198550  47.4079821  28.9614292  67.2758978
  46.7607736  29.6604241  67.1823455  48.1780836  29.3950435  67.6435227
  50.8158619  39.2263144  70.3509532  50.6644125  38.9973695  69.4339615
  50.8063298  40.1833745  70.3640877  47.5843955  36.7995056  65.3355798
  48.5136015  36.9506216  65.1624765  47.1634985  36.8879077  64.4804445
  46.3832287  40.8245721  63.1054336  46.2443373  40.4564505  63.9780274
  45.5946883  41.3393360  62.9338294  46.9780439  45.9254817  54.4479872
  47.1532195  45.4542861  55.2625495  46.2913227  46.5520584  54.6761133
  47.9337502  40.2027324  60.4943174  47.5987335  40.1628094  61.3900823
  47.4341448  39.5372039  60.0213584  41.9081746  35.6094954  66.0195755
  41.7701544  34.8775192  66.6207294  42.8186669  35.5203854  65.7379942
  50.8696694  37.5483358  50.7680233  50.2525864  36.8230186  50.6713286
  50.4013182  38.3092718  50.4247307  44.5364047  35.3214913  65.5079434
  45.2463665  34.6808105  65.4666053  44.4933355  35.5727808  66.4305615
  43.2492981  32.3080131  67.3275074  42.7130338  31.8570869  67.9796670
  42.6609689  32.4426040  66.5845538  41.5441524  49.0744180  61.2219732
  41.7838122  49.7062704  61.8998751  40.7010721  48.7232220  61.5085092
  42.6595240  31.7668782  49.8901538  41.7824706  31.6457583  49.5263784
  43.1352993  30.9754861  49.6380426  52.5268233  40.2221850  66.6599993
  51.6395011  39.8847772  66.7826392  53.0966784  39.4904881  66.8968759
  34.1797380  36.5545942  59.9843045  34.8668420  36.2407672  59.3964060
  34.0245508  37.4587307  59.7110296  38.9832102  31.4436138  64.4128068
  38.8990291  30.8361808  63.6778478  38.1614808  31.9345157  64.4137565
  46.0569386  44.8823303  63.6261236  45.9839558  45.6878274  64.1380541
  45.6146779  45.0815268  62.8009258  45.8459166  44.1195073  57.1364058
  45.0626688  44.6616753  57.2302283  46.5451911  44.6369052  57.5358299
  49.1555816  29.9289702  59.7798263  49.6524515  29.1759664  59.4599334
  48.3842797  29.9654019  59.2141473  57.0085573  35.6330068  61.4216555
  56.9975449  36.5154783  61.0510488  56.1402953  35.2801618  61.2271092
  48.5168070  44.7810137  65.7819395  49.2296042  45.4157601  65.7095297
  48.0258098  44.8774003  64.9659397  50.2385596  38.6861389  57.3536687
  49.3041875  38.8062852  57.1841391  50.4162265  37.7833856  57.0896697
  45.7390785  32.0707085  59.5069948  45.3688572  31.5178125  60.1950854
  46.2349877  31.4665218  58.9544948  53.6258148  34.5278709  57.8886721
  54.0918600  35.3606700  57.8147024  54.0765648  34.0623690  58.5931979
  43.5679983  42.5304580  66.6024966  44.2689443  43.1641063  66.7554360
  43.0975098  42.8719312  65.8420605  51.6934379  40.8722530  54.8872873
  51.9694223  40.7579124  55.7966747  50.8238878  40.4740015  54.8485046
  51.5974811  26.8959296  61.9277622  50.6837890  27.1263522  62.0959829
  52.0267912  26.9797740  62.7791655  51.3681269  35.0849187  64.4277516
  50.7152719  35.3325095  63.7729969  51.7461649  34.2713326  64.0939994
  48.3288443  45.1208881  58.5305687  48.5110837  44.3030537  58.9933439
  49.1521429  45.3376573  58.0930577  48.6630608  44.0477066  55.7920735
  49.1918375  43.5369520  55.1790897  48.9258828  43.7319596  56.6566268
  47.4168842  35.8268999  70.9143553  46.7409479  35.7263128  71.5845929
  48.2396476  35.6708212  71.3779551  39.1647701  42.0640935  63.5356069
  39.7501138  41.3184623  63.6683973  38.9672540  42.3744892  64.4192733
  42.0186356  45.0992182  58.5518511  41.3496732  45.5838310  58.0682551
  41.8799226  45.3461403  59.4661890  33.7565356  34.6346535  62.2560512
  33.7949455  34.1010126  63.0497630  33.2505649  34.1081741  61.6371489
  46.1591625  47.1335926  65.1501169  46.7109933  47.2967547  65.9150255
  46.4997818  47.7240364  64.4781194  41.1356118  29.4811076  65.7523054
  41.1997445  30.3425907  65.3400452  41.0723238  28.8685077  65.0195413
  40.6108391  31.5534208  69.3996088  41.2380430  31.1711286  70.0133613
  39.7536310  31.3348410  69.7651781  37.3873933  33.3610637  55.3314443
  37.6827375  32.4521316  55.2781497  36.4861969  33.3398377  55.0095446
  49.2960012  45.0817902  62.1364852  49.1711152  44.2807641  61.6275797
  49.9539103  45.5764095  61.6478822  40.9168180  31.4366634  61.3141992
  40.1954766  32.0502602  61.1749465  41.7061436  31.9724399  61.2358638
  51.3594921  42.8826922  63.7644402  50.4125256  42.7632273  63.6922728
  51.7077694  41.9949420  63.8470663  43.7194494  28.7721061  67.5882644
  44.2428896  29.0183357  68.3508953  43.5006827  29.6041095  67.1685781
  39.1161775  31.0424735  55.4553768  38.7874481  30.1622114  55.2728874
  39.4701146  30.9872404  56.3430158  48.3641354  42.6779638  59.9648754
  48.2166316  41.7496345  60.1456324  49.1894847  42.6999729  59.4805829
  42.2303598  31.3297705  55.8229246  42.5699671  31.8583626  55.1007854
  42.6775719  31.6678111  56.5987813  51.9675476  43.5008197  61.0513627
  52.8922023  43.2951058  60.9138078  51.7990779  43.2524598  61.9602968
  44.9247039  29.7134756  65.2732314  44.5843859  28.9142569  65.6752994
  44.2186045  30.0136466  64.7009147  45.5763511  26.7984068  63.7259637
  46.3989580  26.3244546  63.6038527  45.8201574  27.5774552  64.2258323
  44.2171745  29.8272326  54.0222539  44.9380108  30.2053579  53.5186256
  43.5937049  30.5461203  54.1257517  48.3602868  30.5317475  54.9580871
  48.5766483  31.4142113  54.6569699  47.8796935  30.1403689  54.2286513
  43.1002090  33.4903189  61.5351616  42.9546670  33.8043492  62.4275897
  42.6227293  34.1088089  60.9822514  44.9598473  30.4805737  61.5832505
  44.9460041  29.5846830  61.2464803  45.6770901  30.4876400  62.2170791
  46.8124603  30.9143077  63.6285633  46.5542381  31.8360148  63.6269963
  46.2809644  30.5173511  64.3186097  51.7570792  44.0193864  56.4075718
  51.9307670  43.4540286  55.6549571  52.2499683  44.8194759  56.2255208
  37.5747752  36.0308533  64.4739277  37.0301220  36.8068341  64.6059551
  38.4527102  36.3779338  64.3158398  44.3635368  29.3620117  56.8520075
  44.4851280  28.4336763  57.0510963  44.0737411  29.3758803  55.9398391
  47.2326559  27.0475027  59.9886795  47.2548256  27.1114360  59.0338775
  47.6494618  26.2079536  60.1827301  57.6110183  36.7830287  58.0266018
  58.0541329  36.0337612  57.6285141  56.7336693  36.7740423  57.6439750
  52.7445964  43.3360628  53.5072616  53.4396869  43.9567321  53.7259931
  53.0869115  42.4855980  53.7824994  38.3613774  35.1578429  67.3669434
  37.6195510  35.3061065  67.9534064  38.0406518  35.4186695  66.5036183
  54.6437388  40.7860334  55.0359947  55.1688712  41.1247607  54.3109267
  54.5559740  39.8507349  54.8523082  46.3057436  44.6994408  67.1649824
  46.6144563  44.4543554  68.0372523  47.1032918  44.9041046  66.6768694
  46.3278048  46.8532317  59.3955200  45.8883039  46.3608696  60.0888057
  47.0786165  46.3105285  59.1547276  38.8070387  43.0443858  59.3979828
  39.6328407  42.7447630  59.0178472  38.4564439  42.2751481  59.8469617
  43.7751920  42.3970326  61.4677502  43.1531930  41.7341031  61.1679730
  44.4456787  42.4231458  60.7851150  37.0078992  40.9630185  60.3568762
  36.1710901  40.5352359  60.1752763  36.9802638  41.1562628  61.2939553
  43.8476448  30.8752114  71.0610008  43.8964603  31.7514237  70.6787778
  44.3898962  30.3329507  70.4881651  43.3365427  40.9474250  54.9435963
  43.4853548  41.6309714  54.2902635  44.1431871  40.9279340  55.4585418
  46.0775736  31.6283487  67.8156367  45.2079046  31.9217053  67.5438955
  46.3135217  32.2123932  68.5363630  57.1543048  38.2535525  60.4188465
  57.9889939  38.6925329  60.5826026  57.2902177  37.7774178  59.5996711
  41.0918060  36.9739427  55.9497031  40.8464102  36.0701757  56.1477242
  41.2613975  36.9756578  55.0076509  48.7814770  27.8463104  65.3321787
  49.2996714  28.5824131  65.0068276  48.4269903  28.1527097  66.1668546
  40.3613708  32.7067785  53.4483193  39.6682953  32.7812140  52.7923229
  40.1165460  31.9428128  53.9704710  49.0327364  24.2663386  60.8522684
  49.3129118  23.5986575  61.4783110  49.8177971  24.4592482  60.3397347
  46.8360833  43.4422380  52.4147710  46.2634800  44.0612567  51.9618182
  47.4093627  43.9921742  52.9487632  52.9036223  32.6881020  64.5994259
  53.8553646  32.7879118  64.6206483  52.7339673  31.8959289  65.1092343
  50.9250602  29.7736603  64.7853660  50.3300534  30.0541616  64.0900148
  50.6400299  30.2630504  65.5570401  50.0558093  43.7259530  53.5456292
  50.9888766  43.6605092  53.7489168  49.9681306  44.5615797  53.0870825
  52.6846109  43.0425401  50.5060240  52.6059741  42.7085264  51.3995998
  53.5055776  43.5347168  50.5051712  55.3824301  35.9087140  63.7136558
  55.3500621  34.9703141  63.8996242  55.9924924  35.9871177  62.9802383
  47.2207631  34.7783193  49.7563762  48.1666736  34.6489401  49.8252180
  46.8421876  34.0397855  50.2333191  55.5318789  32.6998183  63.7594842
  55.0157838  31.9156640  63.5724770  56.4158738  32.3716900  63.9241361
  53.1929516  26.4439199  59.7190654  52.9954337  26.1354287  60.6033986
  53.8029222  27.1700838  59.8488584  61.2000850  36.9703147  62.8542595
  61.9304239  36.7088435  63.4150299  60.5907796  36.2331869  62.8944663
  59.2816148  35.1111009  63.4517046  58.5549311  34.9766974  62.8433538
  58.8663434  35.4187838  64.2573764  47.1046324  38.8300939  71.2164419
  48.0249333  39.0079538  71.4104466  47.0695907  37.8856984  71.0644119
  45.4050549  32.7033169  49.6918648  44.4982004  32.4066282  49.7681361
  45.6826530  32.4062987  48.8252934  36.3228489  34.0239533  60.1417694
  36.0031273  33.1704841  59.8492068  35.7761917  34.2388111  60.8975661
  40.1008397  36.7401974  63.8587201  40.3194406  37.6719081  63.8775234
  40.5134170  36.3809948  64.6442004  47.0212614  27.2470059  55.8462889
  46.2113343  26.9017144  56.2218135  47.7097031  26.9377603  56.4350501
  48.9503163  26.3248106  57.4687186  49.5034201  26.7443559  58.1277209
  49.1873249  25.3983854  57.5110142  44.9736262  32.3135179  73.2489950
  44.8732989  33.2629536  73.1802041  44.7557804  31.9853418  72.3766020
  44.1749333  29.5620104  49.8330627  45.0368497  29.8875003  50.0926444
  44.3599677  28.7751600  49.3203693  36.1916749  37.6442444  62.1110816
  35.4980220  37.2296397  61.5980770  36.9389740  37.6862981  61.5144235
  52.3281970  28.4348631  56.9765850  51.7480639  29.0933435  56.5943902
  52.0617902  27.6125976  56.5653267  50.7785536  27.8353689  59.1787170
  51.2785314  27.9470223  58.3701489  51.4221144  27.5314741  59.8187979
  44.8367532  35.7432318  72.0655011  44.3534614  36.5432678  72.2718900
  44.9228471  35.7540263  71.1122455  38.1053491  37.5760698  59.9876831
  38.0824180  37.6748385  59.0358714  38.4154128  38.4225849  60.3093997
  40.7640869  39.6336853  64.1023445  41.7184123  39.6020795  64.0353377
  40.5653393  39.1727477  64.9173671  41.3540251  38.2037969  66.6694243
  42.1733140  38.6982048  66.6929080  41.6277059  37.2869937  66.6411810
  51.1106848  30.5948721  56.0322198  50.2232703  30.8798372  55.8142393
  51.5260837  30.4342485  55.1849475  54.4621384  30.6195242  59.7476537
  55.2381774  31.1091695  60.0201154  53.7369518  31.0453296  60.2048407
  56.8993942  31.3322861  60.8050478  57.4938433  31.0918597  60.0943786
  56.9720526  30.6129992  61.4324014  39.1191098  45.1756472  61.1193643
  38.9845566  44.4156873  60.5531641  38.7023160  45.8997372  60.6522432
  50.2550061  40.3593396  50.1270218  50.9585911  40.5643398  50.7427874
  49.5312710  40.9270158  50.3919302  51.0847871  36.1103257  56.2472488
  51.0283073  36.5671809  55.4080121  51.6376214  35.3493942  56.0695331
  54.8952677  31.8992989  57.0722608  54.6389612  31.4989625  57.9030815
  54.2705545  32.6136783  56.9472747  59.2065015  34.6389062  59.5793899
  58.6464573  34.7082252  60.3525461  58.6008519  34.4630047  58.8593395
  42.2760224  46.0725789  61.3312085  42.1592608  47.0171222  61.2290776
  41.4552670  45.7699351  61.7197885  52.1636759  40.7975925  52.1768678
  52.9982362  40.3657124  51.9946153  52.0021101  40.6257939  53.1045573
  51.8182651  37.3008038  53.5425017  51.7631455  37.1352310  52.6013462
  51.1928706  38.0084071  53.6987207  36.6075166  32.5376103  67.3686440
  37.2534029  32.0275057  67.8573665  36.3992317  33.2744784  67.9429865
  45.1278776  26.8016147  53.1210336  45.1157446  27.7457987  53.2778607
  46.0202198  26.6186293  52.8269797  43.3014738  46.7254051  64.5468014
  44.2041985  46.7577662  64.8634509  43.0752108  45.7954502  64.5614350
  45.0568340  45.4785038  61.2078093  44.1063971  45.4786899  61.0942465
  45.3600826  44.7317772  60.6914127  48.9430896  23.3958924  57.3756273
  48.1763291  22.8417411  57.5212955  49.3541601  23.4680793  58.2370424
  40.9472657  29.6843720  71.4661454  41.8104118  29.3280525  71.6764778
  40.3738067  29.3457615  72.1536858  60.7921034  51.3145576  62.2723855
  61.4299444  51.1952324  61.5687195  60.6741877  52.2626420  62.3311807
  57.6010740  51.2673004  62.2085380  57.2629251  51.1514069  61.3205914
  58.4700508  50.8664169  62.1886386  53.4597556  53.1208481  58.1982271
  52.8962421  53.0298418  57.4298558  53.3449951  52.3008385  58.6784763
  58.0830523  52.4207856  68.1671585  58.0719164  52.0260654  67.2952089
  58.2451162  51.6873929  68.7605357  51.0061988  54.6159672  61.0366491
  51.7983279  54.2750497  60.6212790  51.2458638  54.7254647  61.9568644
  59.0397114  56.7879448  53.5096735  58.3885094  57.3733529  53.1230749
  59.8341477  57.3185643  53.5691773  52.9652741  53.8768586  53.9083870
  53.7383617  53.3297573  53.7696746  53.3178140  54.7412835  54.1198331
  55.7293991  52.5821816  63.7052129  56.3257563  52.3577839  62.9909092
  55.7868962  51.8406562  64.3077577  55.3019019  50.0361252  51.5402320
  55.5544540  49.5142773  50.7785783  54.3643578  49.8727397  51.6429003
  60.3462302  49.0397030  59.3477063  61.1325391  48.6216453  58.9967480
  60.6101006  49.9443122  59.5158711  60.5172379  54.4769880  54.0465720
  59.8818212  54.5504507  54.7586624  60.1869786  55.0663479  53.3684799
  65.7470729  48.9772263  60.2510041  66.4795901  48.4071480  60.4847871
  64.9910085  48.5893864  60.6916547  55.0215308  51.9389358  53.7426695
  54.9051566  51.2634261  54.4107779  55.1317568  51.4521732  52.9258848
  57.3646849  51.3999505  57.4473384  57.0005056  50.8730126  58.1586305
  58.2213965  51.0097974  57.2739869  63.2696150  42.6893837  64.7104650
  62.9379474  43.5589248  64.4865865  62.6741763  42.3730121  65.3898680
  57.0052336  46.4289405  52.4434732  57.1726738  47.2969641  52.8105203
  56.8149505  46.5916686  51.5196022  59.7627669  54.8906383  64.1100563
  59.4628392  55.7931422  64.0016370  59.4178729  54.6238567  64.9621716
  53.2140151  51.3420180  60.1437267  52.2890647  51.2096394  60.3514959
  53.4624564  52.1214400  60.6407210  63.1624813  47.4088924  61.7898000
  62.2541690  47.3404332  61.4956761  63.1112409  47.8860869  62.6179826
  56.9841557  48.8847062  53.4281399  56.8641182  49.3304113  54.2666880
  56.2894145  49.2332380  52.8694937  50.5748962  50.9853454  60.9781056
  50.7041343  51.2387933  61.8920468  49.8946413  51.5781162  60.6585711
  54.7448449  61.6550704  57.0771530  54.6672479  62.6058529  57.1560011
  54.1410093  61.3096576  57.7346457  65.0286459  45.6105362  63.5675874
  64.3860840  45.9037895  62.9215669  64.5241388  45.4958282  64.3729071
  62.6826623  49.3568535  54.2561733  63.5944479  49.5895922  54.0809431
  62.1736270  49.9405579  53.6936812  60.9667391  53.7793163  67.8923026
  61.3750747  53.3375574  67.1477658  60.2444652  53.2045791  68.1457219
  61.2896205  54.3394354  61.6475315  60.6605068  54.5040068  60.9451383
  60.9021867  54.7535963  62.4186279  65.1685437  55.2748792  59.0019679
  64.4836475  55.6547693  58.4516712  65.2529287  55.8844118  59.7351626
  62.4236369  52.9208751  65.6015022  62.6353264  53.5640510  64.9249403
  62.3766117  52.0871067  65.1336952  60.0262598  45.5326571  62.5051594
  59.1647077  45.8307825  62.7968332  60.0525032  45.7496970  61.5732627
  56.8424167  54.0768762  58.9125400  57.3062513  54.3556465  58.1230022
  56.5780965  53.1752206  58.7298491  53.7348248  53.6240243  61.8505163
  54.3049605  54.0527512  61.2122648  54.3256360  53.3422828  62.5489349
  55.7793053  50.1991914  55.7214965  56.4817097  50.6512958  56.1888891
  55.4473682  49.5575733  56.3494858  49.5218387  48.4575467  61.0232099
  48.7317441  48.7132995  60.5472209  50.0129635  49.2723805  61.1284139
  51.4733133  48.8220046  57.9815575  50.6764296  48.9338740  58.4999071
  51.2458725  49.1606698  57.1156466  57.3038800  55.3464749  65.9298090
  57.3683233  55.8085156  66.7656262  56.5949724  54.7162114  66.0580400
  47.8056090  48.7105957  63.4547089  48.0564129  49.5952967  63.7204665
  48.3415639  48.5310559  62.6822181  57.0186818  57.0132857  55.7977070
  56.8832493  57.8584392  56.2261918  57.5596630  57.2152134  55.0343004
  50.4716215  54.5308295  56.3704995  50.9840736  55.3251545  56.5210560
  51.1238928  53.8334585  56.3038597  52.2811100  57.6474051  58.4527748
  52.4577728  58.5692016  58.2648732  53.0767933  57.3332470  58.8822128
  51.5663457  49.6938683  68.3289912  51.4516972  48.7923940  68.6297011
  50.7107974  49.9402380  67.9774728  53.4042415  59.1652225  64.4538091
  53.9549841  59.0369288  63.6815085  52.5653891  59.4647114  64.1032984
  60.3679281  40.5363419  64.3275964  60.0243551  41.4265060  64.2515074
  60.7358244  40.3465076  63.4645549  48.4365132  52.8596949  57.1464566
  49.2740354  53.2693957  56.9298274  48.6143400  51.9196391  57.1164760
  60.3329564  50.5272030  52.8348399  59.8176188  51.2976634  53.0736786
  60.0606873  49.8537166  53.4581460  57.9176675  45.3721731  57.8933637
  57.0618272  44.9828581  57.7139276  58.3303627  45.4513691  57.0333423
  59.4475822  42.9068074  62.2925197  58.9440617  42.8698209  61.4793002
  59.7406429  43.8160816  62.3521854  55.6918708  42.9906803  61.2991379
  56.5571704  42.7949612  60.9397268  55.7596217  42.7617155  62.2260735
  65.3063838  53.2804384  54.7701572  64.5293281  52.9415544  54.3256734
  65.9855319  53.2857008  54.0956537  60.1215867  48.3999122  54.6608180
  59.8166003  48.7145271  55.5118323  61.0746309  48.4780542  54.7035513
  58.5662299  54.5589345  56.3101134  58.0383661  53.8242105  55.9974371
  58.0649802  55.3364021  56.0641102  63.5455145  52.7538366  61.4268180
  62.8878820  53.4437627  61.5148309  64.3495544  53.1434798  61.7702167
  53.2981027  45.2209011  58.6707745  53.8724779  44.9984193  57.9380938
  53.8852009  45.2897706  59.4236347  62.3560604  51.1082738  59.4772122
  62.8692486  51.7412730  59.9793832  63.0061828  50.5083934  59.1115482
  53.6250614  47.2513472  52.6903631  52.7887926  47.5888159  53.0112905
  53.4855384  47.1162452  51.7530768  55.6003694  42.0950260  57.3982815
  54.9468107  41.7799277  56.7739430  55.5584169  41.4726001  58.1242638
  56.7114899  52.3769555  49.3136107  55.8041961  52.1458809  49.5127256
  57.2085931  51.5807175  49.5010089  59.6182978  61.0867063  52.2332793
  58.9444677  61.3898759  52.8417751  60.0048800  61.8896143  51.8838250
  58.8341435  48.5832194  61.7230463  57.9163996  48.8047141  61.5652151
  59.2501578  48.6578504  60.8642170  59.6176483  49.9823610  56.8533143
  60.3648302  50.4945007  56.5440265  59.8868072  49.6607662  57.7137536
  57.8903133  52.4782150  53.8360097  56.9814352  52.1941183  53.9332567
  57.9198217  52.8981229  52.9763404  63.1222400  56.0888740  57.6051265
  62.6684727  55.2479650  57.6616455  62.4916367  56.7250138  57.9426045
  62.0655320  47.0180726  58.8351932  61.3278077  46.5058112  59.1662175
  62.3182093  46.5781107  58.0235209  61.5655339  57.9265236  58.5401083
  61.8578314  58.4870294  57.8213448  62.0753960  58.2193797  59.2954242
  62.1666947  39.7956978  59.4293701  62.4725824  38.9354341  59.1419616
  62.8919552  40.3874598  59.2292695  48.4591303  50.1987664  57.8175299
  48.2615703  49.6057025  57.0926366  47.9037967  49.8939875  58.5351238
  56.4388027  50.0910771  59.9369892  56.4936637  49.1384607  59.8612369
  55.6279229  50.2470210  60.4211191  57.5879221  54.0190894  51.1748176
  57.1498651  53.3026753  50.7153813  58.3289661  54.2467009  50.6133267
  54.3780387  48.7087831  57.6960271  53.5648252  49.0082001  58.1025463
  54.8739381  48.3143519  58.4134754  56.5288965  58.7045588  59.6294536
  56.4865143  58.9306434  58.7003068  57.4451663  58.4708962  59.7780337
  65.7052335  52.2948091  57.2324494  65.5670234  52.4849687  56.3045683
  65.3488554  53.0567474  57.6892545  53.8694462  46.2806186  63.3121506
  54.5093841  46.1394945  62.6144470  53.0371992  45.9940700  62.9360108
  65.7321715  54.3624618  62.2435766  66.1658222  54.2699907  63.0918820
  66.4453296  54.3382118  61.6055782  54.6454765  55.5808617  59.4256499
  55.4395364  55.0858937  59.2239074  53.9346458  55.0526480  59.0624204
  59.4649610  57.9626712  63.7768866  59.5186632  58.5317648  64.5446582
  58.5964391  58.1328597  63.4122903  50.9537529  49.7251698  55.5016251
  50.0235117  49.6636154  55.7186214  51.0495001  49.2027651  54.7052893
  50.8723078  46.2506511  58.0894493  51.1329895  47.1651844  57.9803654
  51.6940250  45.7830954  58.2391106  52.3448003  47.6644268  65.2593318
  53.0171057  47.4561630  64.6105966  51.5177790  47.4666354  64.8198550
  58.4237710  52.1286974  65.3355798  59.3529770  52.2798134  65.1624765
  58.0028740  52.2170995  64.4804445  57.2226041  56.1537639  63.1054336
  57.0837127  55.7856423  63.9780274  56.4340638  56.6685278  62.9338294
  57.8174193  61.2546735  54.4479872  57.9925949  60.7834778  55.2625495
  57.1306981  61.8812501  54.6761133  58.7731257  55.5319241  60.4943174
  58.4381089  55.4920011  61.3900823  58.2735202  54.8663957  60.0213584
  52.7475501  50.9386871  66.0195755  52.6095298  50.2067110  66.6207294
  53.6580424  50.8495771  65.7379942  61.7090448  52.8775276  50.7680233
  61.0919619  52.1522104  50.6713286  61.2406937  53.6384636  50.4247307
  55.3757801  50.6506831  65.5079434  56.0857420  50.0100023  65.4666053
  55.3327109  50.9019725  66.4305615  52.3835279  64.4036098  61.2219732
  52.6231877  65.0354622  61.8998751  51.5404475  64.0524138  61.5085092
  53.4988994  47.0960700  49.8901538  52.6218460  46.9749501  49.5263784
  53.9746747  46.3046778  49.6380426  45.0191134  51.8837860  59.9843045
  45.7062174  51.5699590  59.3964060  44.8639263  52.7879224  59.7110296
  49.8225856  46.7728056  64.4128068  49.7384045  46.1653726  63.6778478
  49.0008563  47.2637074  64.4137565  56.8963141  60.2115220  63.6261236
  56.8233312  61.0170192  64.1380541  56.4540534  60.4107186  62.8009258
  56.6852920  59.4486990  57.1364058  55.9020442  59.9908670  57.2302283
  57.3845665  59.9660970  57.5358299  59.9949570  45.2581620  59.7798263
  60.4918270  44.5051582  59.4599334  59.2236552  45.2945936  59.2141473
  61.0779351  54.0153307  57.3536687  60.1435630  54.1354769  57.1841391
  61.2556019  53.1125774  57.0896697  56.5784539  47.3999003  59.5069948
  56.2082327  46.8470043  60.1950854  57.0743631  46.7957136  58.9544948
  64.4651902  49.8570626  57.8886721  64.9312355  50.6898618  57.8147024
  64.9159403  49.3915608  58.5931979  62.5328133  56.2014448  54.8872873
  62.8087977  56.0871042  55.7966747  61.6632632  55.8031932  54.8485046
  62.4368565  42.2251213  61.9277622  61.5231645  42.4555440  62.0959829
  62.8661667  42.3089657  62.7791655  62.2075024  50.4141105  64.4277516
  61.5546474  50.6617013  63.7729969  62.5855403  49.6005243  64.0939994
  59.1682197  60.4500798  58.5305687  59.3504592  59.6322454  58.9933439
  59.9915183  60.6668491  58.0930577  59.5024363  59.3768983  55.7920735
  60.0312129  58.8661438  55.1790897  59.7652583  59.0611514  56.6566268
  50.0041456  57.3932853  63.5356069  50.5894892  56.6476541  63.6683973
  49.8066294  57.7036809  64.4192733  52.8580111  60.4284100  58.5518511
  52.1890486  60.9130228  58.0682551  52.7192981  60.6753321  59.4661890
  44.5959110  49.9638453  62.2560512  44.6343210  49.4302044  63.0497630
  44.0899403  49.4373658  61.6371489  51.9749873  44.8102993  65.7523054
  52.0391199  45.6717824  65.3400452  51.9116993  44.1976995  65.0195413
  51.4502145  46.8826126  69.3996088  52.0774184  46.5003203  70.0133613
  50.5930064  46.6640328  69.7651781  48.2267688  48.6902555  55.3314443
  48.5221129  47.7813234  55.2781497  47.3255724  48.6690295  55.0095446
  60.1353767  60.4109819  62.1364852  60.0104906  59.6099559  61.6275797
  60.7932858  60.9056013  61.6478822  51.7561935  46.7658552  61.3141992
  51.0348521  47.3794519  61.1749465  52.5455191  47.3016317  61.2358638
  49.9555530  46.3716653  55.4553768  49.6268236  45.4914032  55.2728874
  50.3094900  46.3164321  56.3430158  59.2035108  58.0071556  59.9648754
  59.0560071  57.0788263  60.1456324  60.0288602  58.0291646  59.4805829
  53.0697353  46.6589623  55.8229246  53.4093425  47.1875544  55.1007854
  53.5169473  46.9970029  56.5987813  62.8069230  58.8300114  61.0513627
  63.7315778  58.6242976  60.9138078  62.6384534  58.5816515  61.9602968
  55.7640794  45.0426673  65.2732314  55.4237614  44.2434486  65.6752994
  55.0579800  45.3428384  64.7009147  56.4157265  42.1275986  63.7259637
  57.2383335  41.6536464  63.6038527  56.6595329  42.9066469  64.2258323
  55.0565500  45.1564244  54.0222539  55.7773862  45.5345497  53.5186256
  54.4330804  45.8753121  54.1257517  59.1996623  45.8609393  54.9580871
  59.4160237  46.7434031  54.6569699  58.7190690  45.4695607  54.2286513
  53.9395844  48.8195106  61.5351616  53.7940425  49.1335409  62.4275897
  53.4621048  49.4380007  60.9822514  55.7992227  45.8097654  61.5832505
  55.7853796  44.9138748  61.2464803  56.5164655  45.8168318  62.2170791
  57.6518358  46.2434995  63.6285633  57.3936136  47.1652065  63.6269963
  57.1203398  45.8465429  64.3186097  62.5964546  59.3485782  56.4075718
  62.7701424  58.7832204  55.6549571  63.0893438  60.1486677  56.2255208
  48.4141506  51.3600451  64.4739277  47.8694974  52.1360259  64.6059551
  49.2920856  51.7071255  64.3158398  55.2029123  44.6912035  56.8520075
  55.3245034  43.7628681  57.0510963  54.9131165  44.7050721  55.9398391
  58.0720313  42.3766945  59.9886795  58.0942010  42.4406278  59.0338775
  58.4888372  41.5371454  60.1827301  68.4503938  52.1122205  58.0266018
  68.8935084  51.3629530  57.6285141  67.5730448  52.1032341  57.6439750
  63.5839719  58.6652546  53.5072616  64.2790624  59.2859239  53.7259931
  63.9262869  57.8147897  53.7824994  65.4831142  56.1152252  55.0359947
  66.0082466  56.4539524  54.3109267  65.3953495  55.1799267  54.8523082
  57.1671803  62.1824235  59.3955200  56.7276793  61.6900614  60.0888057
  57.9179920  61.6397203  59.1547276  49.6464142  58.3735776  59.3979828
  50.4722162  58.0739548  59.0178472  49.2958194  57.6043398  59.8469617
  54.6145675  57.7262244  61.4677502  53.9925684  57.0632949  61.1679730
  55.2850542  57.7523376  60.7851150  47.8472747  56.2922102  60.3568762
  47.0104655  55.8644277  60.1752763  47.8196392  56.4854546  61.2939553
  54.1759182  56.2766167  54.9435963  54.3247302  56.9601632  54.2902635
  54.9825625  56.2571257  55.4585418  67.9936802  53.5827443  60.4188465
  68.8283694  54.0217247  60.5826026  68.1295931  53.1066096  59.5996711
  65.0428308  51.1407178  66.3665953  65.5182430  51.3334824  65.5584805
  64.1193874  51.1966364  66.1209337  51.9311815  52.3031345  55.9497031
  51.6857857  51.3993675  56.1477242  52.1007729  52.3048495  55.0076509
  59.6208525  43.1755021  65.3321787  60.1390469  43.9116048  65.0068276
  59.2663658  43.4819015  66.1668546  51.2007462  48.0359703  53.4483193
  50.5076707  48.1104058  52.7923229  50.9559214  47.2720046  53.9704710
  59.8721119  39.5955304  60.8522684  60.1522873  38.9278493  61.4783110
  60.6571726  39.7884399  60.3397347  57.6754587  58.7714298  52.4147710
  57.1028554  59.3904485  51.9618182  58.2487381  59.3213659  52.9487632
  63.7429977  48.0172938  64.5994259  64.6947400  48.1171036  64.6206483
  63.5733428  47.2251206  65.1092343  61.7644357  45.1028521  64.7853660
  61.1694289  45.3833534  64.0900148  61.4794053  45.5922422  65.5570401
  60.8951847  59.0551448  53.5456292  61.8282520  58.9897010  53.7489168
  60.8075060  59.8907715  53.0870825  63.5239864  58.3717318  50.5060240
  63.4453495  58.0377182  51.3995998  64.3449531  58.8639086  50.5051712
  66.2218055  51.2379058  63.7136558  66.1894375  50.2995058  63.8996242
  66.8318679  51.3163094  62.9802383  58.0601386  50.1075111  49.7563762
  59.0060491  49.9781319  49.8252180  57.6815631  49.3689772  50.2333191
  66.3712544  48.0290101  63.7594842  65.8551592  47.2448558  63.5724770
  67.2552492  47.7008818  63.9241361  64.0323270  41.7731117  59.7190654
  63.8348092  41.4646205  60.6033986  64.6422976  42.4992755  59.8488584
  56.2444303  48.0325087  49.6918648  55.3375758  47.7358200  49.7681361
  56.5220284  47.7354905  48.8252934  47.1622243  49.3531450  60.1417694
  46.8425028  48.4996759  59.8492068  46.6155672  49.5680028  60.8975661
  50.9402151  52.0693891  63.8587201  51.1588161  53.0010999  63.8775234
  51.3527925  51.7101866  64.6442004  57.8606369  42.5761977  55.8462889
  57.0507097  42.2309062  56.2218135  58.5490786  42.2669520  56.4350501
  59.7896917  41.6540023  57.4687186  60.3427956  42.0735477  58.1277209
  60.0267003  40.7275772  57.5110142  55.0143088  44.8912022  49.8330627
  55.8762252  45.2166920  50.0926444  55.1993432  44.1043518  49.3203693
  47.0310503  52.9734362  62.1110816  46.3373975  52.5588315  61.5980770
  47.7783494  53.0154898  61.5144235  63.1675724  43.7640549  56.9765850
  62.5874393  44.4225353  56.5943902  62.9011657  42.9417893  56.5653267
  61.6179291  43.1645606  59.1787170  62.1179069  43.2762141  58.3701489
  62.2614898  42.8606659  59.8187979  48.9447246  52.9052616  59.9876831
  48.9217934  53.0040303  59.0358714  49.2547882  53.7517766  60.3093997
  51.6034624  54.9628771  64.1023445  52.5577877  54.9312713  64.0353377
  51.4047147  54.5019394  64.9173671  52.1934006  53.5329887  66.6694243
  53.0126895  54.0273965  66.6929080  52.4670814  52.6161855  66.6411810
  61.9500602  45.9240639  56.0322198  61.0626457  46.2090290  55.8142393
  62.3654591  45.7634402  55.1849475  65.3015138  45.9487160  59.7476537
  66.0775528  46.4383612  60.0201154  64.5763272  46.3745214  60.2048407
  49.9584853  60.5048390  61.1193643  49.8239321  59.7448791  60.5531641
  49.5416915  61.2289290  60.6522432  61.0943816  55.6885314  50.1270218
  61.7979666  55.8935316  50.7427874  60.3706464  56.2562076  50.3919302
  61.9241626  51.4395175  56.2472488  61.8676827  51.8963726  55.4080121
  62.4769968  50.6785860  56.0695331  65.7346432  47.2284907  57.0722608
  65.4783366  46.8281542  57.9030815  65.1099300  47.9428701  56.9472747
  53.1153979  61.4017707  61.3312085  52.9986363  62.3463140  61.2290776
  52.2946425  61.0991269  61.7197885  63.0030513  56.1267843  52.1768678
  63.8376117  55.6949041  51.9946153  62.8414856  55.9549857  53.1045573
  62.6576405  52.6299956  53.5425017  62.6025209  52.4644228  52.6013462
  62.0322461  53.3375989  53.6987207  47.4468920  47.8668021  67.3686440
  48.0927784  47.3566975  67.8573665  47.2386071  48.6036702  67.9429865
  55.9672531  42.1308065  53.1210336  55.9551201  43.0749905  53.2778607
  56.8595953  41.9478211  52.8269797  54.1408493  62.0545969  64.5468014
  55.0435739  62.0869579  64.8634509  53.9145863  61.1246420  64.5614350
  55.8962095  60.8076956  61.2078093  54.9457726  60.8078817  61.0942465
  56.1994581  60.0609690  60.6914127  59.7824650  38.7250842  57.3756273
  59.0157046  38.1709328  57.5212955  60.1935355  38.7972711  58.2370424
  64.2991310  68.4500398  58.1982271  63.7356175  68.3590335  57.4298558
  64.1843705  67.6300303  58.6784763  61.8455742  69.9451590  61.0366491
  62.6377034  69.6042415  60.6212790  62.0852392  70.0546565  61.9568644
  65.6431539  70.5336886  67.1150769  65.3521405  71.4382516  66.9997435
  66.2788523  70.5753413  67.8294839  66.1412774  65.3653169  51.5402320
  66.3938294  64.8434691  50.7785783  65.2037333  65.2019315  51.6429003
  67.8446090  61.7581322  52.4434732  68.0120493  62.6261559  52.8105203
  67.6543260  61.9208604  51.5196022  64.0533905  66.6712098  60.1437267
  63.1284402  66.5388312  60.3514959  64.3018318  67.4506317  60.6407210
  67.8235311  64.2138980  53.4281399  67.7034937  64.6596030  54.2666880
  67.1287900  64.5624297  52.8694937  61.4142716  66.3145371  60.9781056
  61.5435097  66.5679850  61.8920468  60.7340167  66.9073079  60.6585711
  64.5742003  68.9532161  61.8505163  65.1443360  69.3819429  61.2122648
  65.1650115  68.6714746  62.5489349  66.6186808  65.5283832  55.7214965
  67.3210851  65.9804875  56.1888891  66.2867436  64.8867651  56.3494858
  60.3612142  63.7867384  61.0232099  59.5711196  64.0424913  60.5472209
  60.8523389  64.6015722  61.1284139  62.3126887  64.1511964  57.9815575
  61.5158050  64.2630658  58.4999071  62.0852479  64.4898616  57.1156466
  58.6449845  64.0397875  63.4547089  58.8957883  64.9244885  63.7204665
  59.1809393  63.8602476  62.6822181  61.3109970  69.8600212  56.3704995
  61.8234490  70.6543463  56.5210560  61.9632683  69.1626503  56.3038597
  59.2758887  68.1888867  57.1464566  60.1134109  68.5985875  56.9298274
  59.4537154  67.2488309  57.1164760  70.2869576  58.2359991  62.2925197
  69.7834372  58.1990127  61.4793002  70.5800183  59.1452734  62.3521854
  66.5312462  58.3198721  61.2991379  67.3965459  58.1241530  60.9397268
  66.5989971  58.0909073  62.2260735  64.1374781  60.5500929  58.6707745
  64.7118533  60.3276111  57.9380938  64.7245764  60.6189624  59.4236347
  64.4644368  62.5805390  52.6903631  63.6281681  62.9180077  53.0112905
  64.3249138  62.4454370  51.7530768  66.4397449  57.4242178  57.3982815
  65.7861861  57.1091195  56.7739430  66.3977923  56.8017918  58.1242638
  59.2985058  65.5279582  57.8175299  59.1009457  64.9348943  57.0926366
  58.7431722  65.2231792  58.5351238  67.2781781  65.4202689  59.9369892
  67.3330391  64.4676525  59.8612369  66.4672983  65.5762128  60.4211191
  65.2174141  64.0379748  57.6960271  64.4042007  64.3373919  58.1025463
  65.7133135  63.6435437  58.4134754  64.7088216  61.6098104  63.3121506
  65.3487595  61.4686863  62.6144470  63.8765747  61.3232617  62.9360108
  61.7931283  65.0543616  55.5016251  60.8628871  64.9928071  55.7186214
  61.8888755  64.5319569  54.7052893  61.7116832  61.5798429  58.0894493
  61.9723650  62.4943762  57.9803654  62.5334005  61.1122871  58.2391106
  63.5869255  66.2678789  66.0195755  63.4489053  65.5359028  66.6207294
  64.4974178  66.1787689  65.7379942  64.3382749  62.4252618  49.8901538
  63.4612215  62.3041418  49.5263784  64.8140502  61.6338696  49.6380426
  55.8584889  67.2129777  59.9843045  56.5455929  66.8991507  59.3964060
  55.7033017  68.1171142  59.7110296  60.6619611  62.1019974  64.4128068
  60.5777800  61.4945643  63.6778478  59.8402317  62.5928992  64.4137565
  67.4178294  62.7290920  59.5069948  67.0476081  62.1761961  60.1950854
  67.9137386  62.1249054  58.9544948  60.8435210  72.7224770  63.5356069
  61.4288647  71.9768458  63.6683973  60.6460049  73.0328727  64.4192733
  55.4352865  65.2930371  62.2560512  55.4736964  64.7593961  63.0497630
  54.9293158  64.7665576  61.6371489  59.0661442  64.0194473  55.3314443
  59.3614884  63.1105151  55.2781497  58.1649478  63.9982212  55.0095446
  62.5955689  62.0950469  61.3141992  61.8742275  62.7086437  61.1749465
  63.3848945  62.6308234  61.2358638  60.7949284  61.7008570  55.4553768
  60.4661990  60.8205949  55.2728874  61.1488655  61.6456239  56.3430158
  63.9091107  61.9881540  55.8229246  64.2487180  62.5167462  55.1007854
  64.3563228  62.3261946  56.5987813  67.2551020  57.4567903  63.7259637
  68.0777089  56.9828382  63.6038527  67.4989083  58.2358387  64.2258323
  65.8959254  60.4856162  54.0222539  66.6167617  60.8637415  53.5186256
  65.2724558  61.2045039  54.1257517  64.7789599  64.1487024  61.5351616
  64.6334179  64.4627327  62.4275897  64.3014802  64.7671924  60.9822514
  66.6385981  61.1389572  61.5832505  66.6247550  60.2430665  61.2464803
  67.3558410  61.1460236  62.2170791  59.2535261  66.6892368  64.4739277
  58.7088729  67.4652176  64.6059551  60.1314611  67.0363173  64.3158398
  66.0422877  60.0203952  56.8520075  66.1638789  59.0920598  57.0510963
  65.7524920  60.0342638  55.9398391  68.9114068  57.7058863  59.9886795
  68.9335765  57.7698196  59.0338775  69.3282127  56.8663371  60.1827301
  60.4857896  73.7027693  59.3979828  61.3115916  73.4031465  59.0178472
  60.1351948  72.9335316  59.8469617  58.6866501  71.6214020  60.3568762
  57.8498410  71.1936194  60.1752763  58.6590147  71.8146463  61.2939553
  62.7705569  67.6323263  55.9497031  62.5251611  66.7285593  56.1477242
  62.9401484  67.6340413  55.0076509  62.0401217  63.3651620  53.4483193
  61.3470462  63.4395975  52.7923229  61.7952969  62.6011964  53.9704710
  68.8995140  65.4367028  49.7563762  69.8454245  65.3073236  49.8252180
  68.5209385  64.6981690  50.2333191  67.0838058  63.3617005  49.6918648
  66.1769513  63.0650117  49.7681361  67.3614039  63.0646823  48.8252934
  58.0015998  64.6823368  60.1417694  57.6818782  63.8288676  59.8492068
  57.4549426  64.8971946  60.8975661  61.7795905  67.3985809  63.8587201
  61.9981915  68.3302917  63.8775234  62.1921679  67.0393783  64.6442004
  68.7000123  57.9053894  55.8462889  67.8900852  57.5600979  56.2218135
  69.3884540  57.5961438  56.4350501  70.6290672  56.9831941  57.4687186
  71.1821710  57.4027395  58.1277209  70.8660758  56.0567689  57.5110142
  65.8536842  60.2203940  49.8330627  66.7156006  60.5458838  50.0926444
  66.0387186  59.4335436  49.3203693  57.8704258  68.3026279  62.1110816
  57.1767729  67.8880232  61.5980770  58.6177249  68.3446816  61.5144235
  59.7841000  68.2344533  59.9876831  59.7611689  68.3332221  59.0358714
  60.0941637  69.0809684  60.3093997  62.4428378  70.2920688  64.1023445
  63.3971632  70.2604631  64.0353377  62.2440902  69.8311312  64.9173671
  63.0327760  68.8621804  66.6694243  63.8520649  69.3565883  66.6929080
  63.3064568  67.9453772  66.6411810  60.7978607  75.8340308  61.1193643
  60.6633075  75.0740709  60.5531641  60.3810669  76.5581208  60.6522432
  66.8066285  57.4599983  53.1210336  66.7944955  58.4041823  53.2778607
  67.6989707  57.2770128  52.8269797  70.6218405  54.0542759  57.3756273
  69.8550800  53.5001246  57.5212955  71.0329110  54.1264628  58.2370424
  82.1959888  85.1353716  54.0465720  81.5605721  85.2088342  54.7586624
  81.8657295  85.7247315  53.3684799  82.9683714  84.9978189  61.6475315
  82.3392577  85.1623903  60.9451383  82.5809376  85.4119799  62.4186279
  85.2169706  86.4564541  63.7737379  86.0387149  86.0544729  63.4920061
  85.2132109  86.3532775  64.7253495  86.9851347  83.9388220  54.7701572
  86.2080790  83.5999379  54.3256734  87.6642828  83.9440843  54.0956537
  84.8009909  86.7472575  57.6051265  84.3472236  85.9063485  57.6616455
  84.1703876  87.3833973  57.9426045  80.4518766  86.1903077  60.4943174
  80.1168598  86.1503847  61.3900823  79.9522711  85.5247793  60.0213584
  83.3877957  83.5359111  50.7680233  82.7707128  82.8105939  50.6713286
  82.9194446  84.2968471  50.4247307  82.7566860  84.6737142  57.3536687
  81.8223139  84.7938605  57.1841391  82.9343528  83.7709609  57.0896697
  84.2115642  86.8598283  54.8872873  84.4875486  86.7454877  55.7966747
  83.3420141  86.4615768  54.8485046  87.1618651  86.7736087  55.0359947
  87.6869975  87.1123360  54.3109267  87.0741004  85.8383102  54.8523082
  84.6818022  86.7851678  52.1768678  85.5163626  86.3532877  51.9946153
  84.5202365  86.6133692  53.1045573  84.3363914  83.2883792  53.5425017
  84.2812718  83.1228063  52.6013462  83.7109969  83.9959824  53.6987207
  88.4853794  88.1183818  53.1210336  88.4732464  89.0625658  53.2778607
  89.3777216  87.9353964  52.8269797 104.1496052 112.6313247  62.2723855
 104.7874462 112.5119994  61.5687195 104.0316895 113.5794091  62.3311807
 100.9585758 112.5840675  62.2085380 100.6204269 112.4681740  61.3205914
 101.8275526 112.1831840  62.1886386  96.8172574 114.4376152  58.1982271
  96.2537439 114.3466088  57.4298558  96.7024969 113.6176056  58.6784763
  94.3637006 115.9327343  61.0366491  95.1558297 115.5918168  60.6212790
  94.6033656 116.0422318  61.9568644 102.3972132 118.1047119  53.5096735
 101.7460112 118.6901200  53.1230749 103.1916495 118.6353314  53.5691773
  96.3227759 115.1936256  53.9083870  97.0958635 114.6465243  53.7696746
  96.6753158 116.0580506  54.1198331  99.0869009 113.8989487  63.7052129
  99.6832581 113.6745510  62.9909092  99.1443980 113.1574233  64.3077577
  98.6594037 111.3528922  51.5402320  98.9119558 110.8310444  50.7785783
  97.7218596 111.1895068  51.6429003 103.7037320 110.3564701  59.3477063
 104.4900409 109.9384124  58.9967480 103.9676024 111.2610793  59.5158711
 103.8747397 115.7937551  54.0465720 103.2393230 115.8672178  54.7586624
 103.5444804 116.3831150  53.3684799 109.1045747 110.2939934  60.2510041
 109.8370919 109.7239151  60.4847871 108.3485103 109.9061534  60.6916547
  98.3790326 113.2557028  53.7426695  98.2626584 112.5801932  54.4107779
  98.4892586 112.7689402  52.9258848 100.7221867 112.7167176  57.4473384
 100.3580074 112.1897797  58.1586305 101.5788983 112.3265645  57.2739869
 103.1202687 116.2074054  64.1100563 102.8203410 117.1099093  64.0016370
 102.7753747 115.9406237  64.9621716  96.5715169 112.6587851  60.1437267
  95.6465665 112.5264065  60.3514959  96.8199582 113.4382070  60.6407210
 106.5199831 108.7256594  61.7898000 105.6116708 108.6572003  61.4956761
 106.4687427 109.2028539  62.6179826  93.9323980 112.3021125  60.9781056
  94.0616361 112.5555603  61.8920468  93.2521431 112.8948833  60.6585711
  98.1023467 122.9718374  57.0771530  98.0247497 123.9226200  57.1560011
  97.4985110 122.6264247  57.7346457 108.3861477 106.9273033  63.5675874
 107.7435858 107.2205566  62.9215669 107.8816406 106.8125953  64.3729071
 106.0401641 110.6736206  54.2561733 106.9519497 110.9063593  54.0809431
 105.5311288 111.2573250  53.6936812 100.6773479 110.0333441  65.2656583
 101.5234674 110.4572854  65.4091232 100.6172116 109.3767065  65.9595146
 104.6471223 115.6562024  61.6475315 104.0180086 115.8207738  60.9451383
 104.2596885 116.0703634  62.4186279 108.5260455 116.5916462  59.0019679
 107.8411493 116.9715364  58.4516712 108.6104304 117.2011789  59.7351626
 103.8272924 107.6937809  66.9237756 103.5833856 108.4479869  66.3872032
 104.1032855 108.0723156  67.7585004 105.7811387 114.2376421  65.6015022
 105.9928282 114.8808181  64.9249403 105.7341135 113.4038738  65.1336952
 103.3837616 106.8494242  62.5051594 102.5222095 107.1475495  62.7968332
 103.4100050 107.0664641  61.5732627 100.1999185 115.3936432  58.9125400
 100.6637531 115.6724135  58.1230022  99.9355983 114.4919877  58.7298491
  97.0923266 114.9407914  61.8505163  97.6624623 115.3695182  61.2122648
  97.6831378 114.6590499  62.5489349  99.1368071 111.5159585  55.7214965
  99.8392115 111.9680628  56.1888891  98.8048700 110.8743404  56.3494858
 106.8957215 117.1148377  63.7737379 107.7174658 116.7128564  63.4920061
 106.8919618 117.0116611  64.7253495  94.8308151 110.1387717  57.9815575
  94.0339314 110.2506411  58.4999071  94.6033743 110.4774369  57.1156466
 114.9863208 113.4587125  60.1222351 114.2326916 112.8894523  59.9666355
 115.1210749 113.4249790  61.0692986 100.3761836 118.3300527  55.7977070
 100.2407511 119.1752063  56.2261918 100.9171648 118.5319805  55.0343004
  93.8291233 115.8475965  56.3704995  94.3415754 116.6419216  56.5210560
  94.4813946 115.1502256  56.3038597  95.6386118 118.9641722  58.4527748
  95.8152746 119.8859686  58.2648732  96.4342951 118.6500141  58.8822128
  91.7940150 114.1764620  57.1464566  92.6315372 114.5861628  56.9298274
  91.9718418 113.2364062  57.1164760 103.6904582 111.8439700  52.8348399
 103.1751206 112.6144305  53.0736786 103.4181891 111.1704837  53.4581460
 102.8050840 104.2235744  62.2925197 102.3015635 104.1865880  61.4793002
 103.0981447 105.1328487  62.3521854 108.6638856 114.5972055  54.7701572
 107.8868299 114.2583215  54.3256734 109.3430337 114.6024678  54.0956537
 103.4790885 109.7166793  54.6608180 103.1741021 110.0312942  55.5118323
 104.4321327 109.7948212  54.7035513 101.9237317 115.8757016  56.3101134
 101.3958679 115.1409775  55.9974371 101.4224820 116.6531692  56.0641102
 106.9030163 114.0706036  61.4268180 106.2453838 114.7605298  61.5148309
 107.7070562 114.4602468  61.7702167 105.7135622 112.4250409  59.4772122
 106.2267504 113.0580401  59.9793832 106.3636846 111.8251605  59.1115482
 100.0689917 113.6937226  49.3136107  99.1616979 113.4626480  49.5127256
 100.5660949 112.8974845  49.5010089 102.9757996 122.4034733  52.2332793
 102.3019695 122.7066430  52.8417751 103.3623818 123.2063814  51.8838250
 102.1916453 109.8999865  61.7230463 101.2739014 110.1214812  61.5652151
 102.6076596 109.9746175  60.8642170 102.9751501 111.2991280  56.8533143
 103.7223320 111.8112677  56.5440265 103.2443090 110.9775333  57.7137536
 101.2478151 113.7949821  53.8360097 100.3389370 113.5108854  53.9332567
 101.2773235 114.2148900  52.9763404 106.4797418 117.4056410  57.6051265
 106.0259745 116.5647320  57.6616455 105.8491385 118.0417809  57.9426045
 105.4230338 108.3348397  58.8351932 104.6853095 107.8225783  59.1662175
 105.6757111 107.8948778  58.0235209 104.9230357 119.2432907  58.5401083
 105.2153332 119.8037964  57.8213448 105.4328978 119.5361468  59.2954242
  99.7963045 111.4078442  59.9369892  99.8511655 110.4552278  59.8612369
  98.9854247 111.5637881  60.4211191 100.9454239 115.3358565  51.1748176
 100.5073668 114.6194424  50.7153813 101.6864679 115.5634679  50.6133267
  97.7355405 110.0255501  57.6960271  96.9223270 110.3249672  58.1025463
  98.2314399 109.6311190  58.4134754  99.8863983 120.0213258  59.6294536
  99.8440161 120.2474105  58.7003068 100.8026681 119.7876633  59.7780337
 103.3329616 110.4897326  66.5275165 103.6879004 110.7168799  67.3869631
 103.9801748 110.8215703  65.9052420 109.0627353 113.6115762  57.2324494
 108.9245252 113.8017358  56.3045683 108.7063572 114.3735144  57.6892545
 109.0896733 115.6792289  62.2435766 109.5233240 115.5867578  63.0918820
 109.8028314 115.6549789  61.6055782  98.0029783 116.8976287  59.4256499
  98.7970382 116.4026607  59.2239074  97.2921476 116.3694150  59.0624204
 102.8224628 119.2794383  63.7768866 102.8761650 119.8485319  64.5446582
 101.9539409 119.4496268  63.4122903  94.3112547 111.0419369  55.5016251
  93.3810135 110.9803824  55.7186214  94.4070019 110.5195322  54.7052893
 109.9512283 115.7215989  64.7768651 110.1448173 116.6261800  65.0227926
 109.8512901 115.2623408  65.6107236 101.7812728 113.4454645  65.3355798
 102.7104788 113.5965804  65.1624765 101.3603758 113.5338666  64.4804445
 100.5801059 117.4705309  63.1054336 100.4412145 117.1024094  63.9780274
  99.7915656 117.9852949  62.9338294 101.1749211 122.5714406  54.4479872
 101.3500967 122.1002449  55.2625495 100.4881999 123.1980172  54.6761133
 102.1306275 116.8486912  60.4943174 101.7956107 116.8087682  61.3900823
 101.6310220 116.1831628  60.0213584 105.0665466 114.1942946  50.7680233
 104.4494637 113.4689774  50.6713286 104.5981955 114.9552307  50.4247307
  95.7410297 125.7203768  61.2219732  95.9806895 126.3522293  61.8998751
  94.8979493 125.3691809  61.5085092 106.7237005 116.8681439  66.6599993
 105.8363784 116.5307360  66.7826392 107.2935556 116.1364470  66.8968759
  88.3766152 113.2005530  59.9843045  89.0637192 112.8867260  59.3964060
  88.2214281 114.1046895  59.7110296 100.2538158 121.5282891  63.6261236
 100.1808330 122.3337862  64.1380541  99.8115552 121.7274857  62.8009258
 100.0427938 120.7654661  57.1364058  99.2595460 121.3076341  57.2302283
 100.7420683 121.2828641  57.5358299 103.3524588 106.5749290  59.7798263
 103.8493288 105.8219253  59.4599334 102.5811570 106.6113607  59.2141473
 111.2054346 112.2789656  61.4216555 111.1944222 113.1614371  61.0510488
 110.3371725 111.9261207  61.2271092 104.4354369 115.3320978  57.3536687
 103.5010648 115.4522440  57.1841391 104.6131037 114.4293444  57.0896697
  99.9359557 108.7166673  59.5069948  99.5657345 108.1637714  60.1950854
 100.4318649 108.1124807  58.9544948 107.8226920 111.1738297  57.8886721
 108.2887372 112.0066289  57.8147024 108.2734421 110.7083278  58.5931979
 105.8903151 117.5182118  54.8872873 106.1662995 117.4038713  55.7966747
 105.0207650 117.1199603  54.8485046 105.7943583 103.5418884  61.9277622
 104.8806663 103.7723111  62.0959829 106.2236684 103.6257328  62.7791655
 105.5650042 111.7308776  64.4277516 104.9121492 111.9784683  63.7729969
 105.9430421 110.9172914  64.0939994 102.5257215 121.7668469  58.5305687
 102.7079610 120.9490125  58.9933439 103.3490201 121.9836161  58.0930577
 102.8599381 120.6936654  55.7920735 103.3887147 120.1829109  55.1790897
 103.1227600 120.3779184  56.6566268  93.3616474 118.7100523  63.5356069
  93.9469910 117.9644211  63.6683973  93.1641312 119.0204480  64.4192733
  96.2155129 121.7451771  58.5518511  95.5465504 122.2297898  58.0682551
  96.0767999 121.9920991  59.4661890 100.3560397 123.7795514  65.1501169
 100.9078705 123.9427136  65.9150255 100.6966591 124.3699952  64.4781194
 103.4928785 121.7277490  62.1364852 103.3679924 120.9267230  61.6275797
 104.1507876 122.2223683  61.6478822 105.5563693 119.5286510  63.7644402
 104.6094029 119.4091861  63.6922728 105.9046466 118.6409008  63.8470663
 102.5610126 119.3239226  59.9648754 102.4135089 118.3955934  60.1456324
 103.3863620 119.3459317  59.4805829 106.1644248 120.1467785  61.0513627
 107.0890796 119.9410646  60.9138078 105.9959552 119.8984186  61.9602968
 102.5571641 107.1777064  54.9580871 102.7735255 108.0601702  54.6569699
 102.0765708 106.7863277  54.2286513 101.0093376 107.5602665  63.6285633
 100.7511153 108.4819736  63.6269963 100.4778416 107.1633100  64.3186097
 105.9539564 120.6653452  56.4075718 106.1276442 120.0999875  55.6549571
 106.4468456 121.4654347  56.2255208 111.8078956 113.4289875  58.0266018
 112.2510102 112.6797201  57.6285141 110.9305466 113.4200012  57.6439750
 106.9414737 119.9820217  53.5072616 107.6365642 120.6026909  53.7259931
 107.2837887 119.1315568  53.7824994 108.8406160 117.4319922  55.0359947
 109.3657484 117.7707195  54.3109267 108.7528513 116.4966938  54.8523082
 100.5246821 123.4991906  59.3955200 100.0851811 123.0068284  60.0888057
 101.2754938 122.9564873  59.1547276  93.0039160 119.6903446  59.3979828
  93.8297180 119.3907218  59.0178472  92.6533212 118.9211069  59.8469617
  97.9720693 119.0429915  61.4677502  97.3500702 118.3800620  61.1679730
  98.6425560 119.0691047  60.7851150  91.2047765 117.6089773  60.3568762
  90.3679673 117.1811947  60.1752763  91.1771410 117.8022216  61.2939553
  97.5334200 117.5933838  54.9435963  97.6822320 118.2769302  54.2902635
  98.3400643 117.5738928  55.4585418 111.3511820 114.8995114  60.4188465
 112.1858712 115.3384918  60.5826026 111.4870949 114.4233767  59.5996711
  95.2886833 113.6199016  55.9497031  95.0432875 112.7161346  56.1477242
  95.4582747 113.6216166  55.0076509 101.0329605 120.0881968  52.4147710
 100.4603572 120.7072156  51.9618182 101.6062399 120.6381330  52.9487632
 107.1004995 109.3340609  64.5994259 108.0522418 109.4338706  64.6206483
 106.9308446 108.5418877  65.1092343 104.2526865 120.3719119  53.5456292
 105.1857538 120.3064680  53.7489168 104.1650078 121.2075385  53.0870825
 106.8814882 119.6884989  50.5060240 106.8028513 119.3544853  51.3995998
 107.7024549 120.1806757  50.5051712 109.5793073 112.5546728  63.7136558
 109.5469393 111.6162729  63.8996242 110.1893697 112.6330765  62.9802383
 101.4176404 111.4242781  49.7563762 102.3635509 111.2948989  49.8252180
 101.0390649 110.6857443  50.2333191 109.7287561 109.3457772  63.7594842
 109.2126610 108.5616228  63.5724770 110.6127510 109.0176488  63.9241361
 115.3969623 113.6162735  62.8542595 116.1273011 113.3548023  63.4150299
 114.7876568 112.8791457  62.8944663 113.4784920 111.7570598  63.4517046
 112.7518084 111.6226563  62.8433538 113.0632207 112.0647426  64.2573764
  90.3885521 114.2902033  62.1110816  89.6948993 113.8755985  61.5980770
  91.1358512 114.3322569  61.5144235  92.3022264 114.2220286  59.9876831
  92.2792952 114.3207974  59.0358714  92.6122900 115.0685437  60.3093997
 105.3075620 107.2408310  56.0322198 104.4201475 107.5257960  55.8142393
 105.7229609 107.0802073  55.1849475 108.6590156 107.2654831  59.7476537
 109.4350546 107.7551283  60.0201154 107.9338290 107.6912885  60.2048407
 111.0962715 107.9782450  60.8050478 111.6907206 107.7378186  60.0943786
 111.1689299 107.2589580  61.4324014  93.3159871 121.8216061  61.1193643
  93.1814339 121.0616462  60.5531641  92.8991933 122.5456961  60.6522432
 104.4518834 117.0052984  50.1270218 105.1554684 117.2102987  50.7427874
 103.7281482 117.5729746  50.3919302 105.2816644 112.7562846  56.2472488
 105.2251845 113.2131397  55.4080121 105.8344986 111.9953530  56.0695331
 109.0921450 108.5452577  57.0722608 108.8358384 108.1449213  57.9030815
 108.4674318 109.2596371  56.9472747 113.4033788 111.2848651  59.5793899
 112.8433346 111.3541840  60.3525461 112.7977291 111.1089635  58.8593395
  96.4728996 122.7185378  61.3312085  96.3561381 123.6630810  61.2290776
  95.6521443 122.4158939  61.7197885 106.3605531 117.4435514  52.1768678
 107.1951135 117.0116712  51.9946153 106.1989874 117.2717527  53.1045573
 106.0151423 113.9467627  53.5425017 105.9600227 113.7811898  52.6013462
 105.3897478 114.6543660  53.6987207  99.2537113 122.1244626  61.2078093
  98.3032744 122.1246488  61.0942465  99.5569599 121.3777361  60.6914127
 114.9889806 127.9605165  62.2723855 115.6268216 127.8411912  61.5687195
 114.8710649 128.9086009  62.3311807 111.7979512 127.9132593  62.2085380
 111.4598024 127.7973657  61.3205914 112.6669281 127.5123758  62.1886386
 107.6566328 129.7668069  58.1982271 107.0931193 129.6758006  57.4298558
 107.5418723 128.9467974  58.6784763 112.2799295 129.0667444  68.1671585
 112.2687936 128.6720243  67.2952089 112.4419935 128.3333517  68.7605357
 105.2030760 131.2619261  61.0366491 105.9952052 130.9210085  60.6212790
 105.4427410 131.3714236  61.9568644 113.2365887 133.4339037  53.5096735
 112.5853867 134.0193117  53.1230749 114.0310250 133.9645232  53.5691773
 107.1621514 130.5228174  53.9083870 107.9352390 129.9757161  53.7696746
 107.5146913 131.3872423  54.1198331 109.0006557 131.8504556  67.1150769
 108.7096422 132.7550187  66.9997435 109.6363541 131.8921084  67.8294839
 109.9262763 129.2281405  63.7052129 110.5226336 129.0037427  62.9909092
 109.9837735 128.4866150  64.3077577 109.4987792 126.6820840  51.5402320
 109.7513312 126.1602361  50.7785783 108.5612351 126.5186986  51.6429003
 114.5431075 125.6856619  59.3477063 115.3294164 125.2676042  58.9967480
 114.8069779 126.5902711  59.5158711 114.7141152 131.1229469  54.0465720
 114.0786985 131.1964095  54.7586624 114.3838558 131.7123068  53.3684799
 119.9439502 125.6231852  60.2510041 120.6764674 125.0531069  60.4847871
 119.1878857 125.2353452  60.6916547 109.2184081 128.5848946  53.7426695
 109.1020339 127.9093849  54.4107779 109.3286340 128.0981320  52.9258848
 111.5615621 128.0459093  57.4473384 111.1973829 127.5189714  58.1586305
 112.4182737 127.6557562  57.2739869 117.4664922 119.3353426  64.7104650
 117.1348247 120.2048837  64.4865865 116.8710535 119.0189710  65.3898680
 111.2021108 123.0748993  52.4434732 111.3695511 123.9429229  52.8105203
 111.0118277 123.2376275  51.5196022 113.9596442 131.5365972  64.1100563
 113.6597165 132.4391011  64.0016370 113.6147501 131.2698155  64.9621716
 107.4108923 127.9879769  60.1437267 106.4859420 127.8555983  60.3514959
 107.6593336 128.7673988  60.6407210 117.3593585 124.0548512  61.7898000
 116.4510463 123.9863920  61.4956761 117.3081181 124.5320457  62.6179826
 111.1810329 125.5306650  53.4281399 111.0609954 125.9763701  54.2666880
 110.4862918 125.8791968  52.8694937 104.7717734 127.6313042  60.9781056
 104.9010115 127.8847521  61.8920468 104.0915185 128.2240750  60.6585711
 108.9417221 138.3010292  57.0771530 108.8641251 139.2518117  57.1560011
 108.3378865 137.9556165  57.7346457 119.2255232 122.2564950  63.5675874
 118.5829612 122.5497484  62.9215669 118.7210160 122.1417871  64.3729071
 116.8795395 126.0028124  54.2561733 117.7913252 126.2355510  54.0809431
 116.3705043 126.5865168  53.6936812 115.1636163 130.4252751  67.8923026
 115.5719519 129.9835162  67.1477658 114.4413425 129.8505379  68.1457219
 111.5167233 125.3625358  65.2656583 112.3628428 125.7864772  65.4091232
 111.4565871 124.7058982  65.9595146 115.4864978 130.9853942  61.6475315
 114.8573840 131.1499656  60.9451383 115.0990640 131.3995552  62.4186279
 119.3654210 131.9208380  59.0019679 118.6805248 132.3007281  58.4516712
 119.4498059 132.5303707  59.7351626 114.6666678 123.0229727  66.9237756
 114.4227610 123.7771787  66.3872032 114.9426609 123.4015074  67.7585004
 116.6205141 129.5668339  65.6015022 116.8322037 130.2100099  64.9249403
 116.5734890 128.7330655  65.1336952 114.2231370 122.1786160  62.5051594
 113.3615849 122.4767413  62.7968332 114.2493805 122.3956558  61.5732627
 111.0392940 130.7228350  58.9125400 111.5031285 131.0016053  58.1230022
 110.7749738 129.8211795  58.7298491 107.9317021 130.2699832  61.8505163
 108.5018378 130.6987100  61.2122648 108.5225133 129.9882416  62.5489349
 109.9761826 126.8451502  55.7214965 110.6785869 127.2972546  56.1888891
 109.6442454 126.2035321  56.3494858 103.7187160 125.1035055  61.0232099
 102.9286214 125.3592584  60.5472209 104.2098407 125.9183393  61.1284139
 117.7350969 132.4440294  63.7737379 118.5568413 132.0420482  63.4920061
 117.7313372 132.3408528  64.7253495 105.6701905 125.4679634  57.9815575
 104.8733068 125.5798329  58.4999071 105.4427497 125.8066287  57.1156466
 111.5007573 131.9924338  65.9298090 111.5652005 132.4544745  66.7656262
 110.7918497 131.3621703  66.0580400 102.0024863 125.3565546  63.4547089
 102.2532901 126.2412556  63.7204665 102.5384411 125.1770147  62.6822181
 125.8256962 128.7879043  60.1222351 125.0720671 128.2186441  59.9666355
 125.9604503 128.7541707  61.0692986 111.2155590 133.6592445  55.7977070
 111.0801265 134.5043981  56.2261918 111.7565403 133.8611723  55.0343004
 104.6684988 131.1767883  56.3704995 105.1809508 131.9711133  56.5210560
 105.3207701 130.4794174  56.3038597 106.4779872 134.2933639  58.4527748
 106.6546501 135.2151604  58.2648732 107.2736706 133.9792059  58.8822128
 112.8424067 134.2816012  69.9277412 112.3987921 133.4952390  69.6098317
 113.5041280 134.4695162  69.2621303 107.6011188 135.8111813  64.4538091
 108.1518613 135.6828877  63.6815085 106.7622664 136.1106702  64.1032984
 114.9405305 134.5618812  67.9558814 114.9223780 135.3827693  67.4639083
 115.8625225 134.4372887  68.1808955 111.3978359 132.0762941  68.7982322
 111.9306696 131.3151229  68.5681630 110.8692440 131.7836593  69.5406476
 114.5648054 117.1823007  64.3275964 114.2212323 118.0724649  64.2515074
 114.9327016 116.9924665  63.4645549 102.6333904 129.5056537  57.1464566
 103.4709126 129.9153546  56.9298274 102.8112172 128.5655980  57.1164760
 114.5298337 127.1731618  52.8348399 114.0144960 127.9436223  53.0736786
 114.2575645 126.4996754  53.4581460 112.1145448 122.0181319  57.8933637
 111.2587044 121.6288169  57.7139276 112.5272399 122.0973280  57.0333423
 113.6444594 119.5527662  62.2925197 113.1409390 119.5157797  61.4793002
 113.9375201 120.4620405  62.3521854 109.8887480 119.6366392  61.2991379
 110.7540477 119.4409201  60.9397268 109.9564989 119.4076744  62.2260735
 119.5032611 129.9263973  54.7701572 118.7262054 129.5875132  54.3256734
 120.1824092 129.9316596  54.0956537 114.3184640 125.0458710  54.6608180
 114.0134775 125.3604859  55.5118323 115.2715082 125.1240130  54.7035513
 112.7631072 131.2048934  56.3101134 112.2352433 130.4701693  55.9974371
 112.2618574 131.9823610  56.0641102 117.7423918 129.3997954  61.4268180
 117.0847592 130.0897215  61.5148309 118.5464317 129.7894386  61.7702167
 107.4949799 121.8668600  58.6707745 108.0693551 121.6443781  57.9380938
 108.0820782 121.9357294  59.4236347 116.5529376 127.7542327  59.4772122
 117.0661258 128.3872319  59.9793832 117.2030600 127.1543522  59.1115482
 107.8219386 123.8973061  52.6903631 106.9856699 124.2347747  53.0112905
 107.6824156 123.7622041  51.7530768 109.7972467 118.7409849  57.3982815
 109.1436879 118.4258866  56.7739430 109.7552941 118.1185589  58.1242638
 110.9083672 129.0229144  49.3136107 110.0010734 128.7918397  49.5127256
 111.4054704 128.2266763  49.5010089 113.8151751 137.7326651  52.2332793
 113.1413449 138.0358348  52.8417751 114.2017573 138.5355731  51.8838250
 113.0310207 125.2291782  61.7230463 112.1132769 125.4506729  61.5652151
 113.4470351 125.3038093  60.8642170 113.8145255 126.6283198  56.8533143
 114.5617074 127.1404595  56.5440265 114.0836845 126.3067251  57.7137536
 112.0871905 129.1241739  53.8360097 111.1783125 128.8400771  53.9332567
 112.1166989 129.5440817  52.9763404 117.3191173 132.7348328  57.6051265
 116.8653500 131.8939238  57.6616455 116.6885139 133.3709727  57.9426045
 116.2624092 123.6640314  58.8351932 115.5246849 123.1517700  59.1662175
 116.5150866 123.2240696  58.0235209 115.7624112 134.5724825  58.5401083
 116.0547086 135.1329882  57.8213448 116.2722732 134.8653386  59.2954242
 116.3635720 116.4416566  59.4293701 116.6694596 115.5813930  59.1419616
 117.0888324 117.0334186  59.2292695 102.6560076 126.8447253  57.8175299
 102.4584475 126.2516613  57.0926366 102.1006740 126.5399463  58.5351238
 110.6356799 126.7370359  59.9369892 110.6905409 125.7844196  59.8612369
 109.8248001 126.8929798  60.4211191 111.7847993 130.6650482  51.1748176
 111.3467423 129.9486341  50.7153813 112.5258434 130.8926597  50.6133267
 108.5749159 125.3547419  57.6960271 107.7617025 125.6541590  58.1025463
 109.0708153 124.9603108  58.4134754 110.7257737 135.3505176  59.6294536
 110.6833916 135.5766022  58.7003068 111.6420436 135.1168551  59.7780337
 114.1723371 125.8189243  66.5275165 114.5272759 126.0460717  67.3869631
 114.8195502 126.1507620  65.9052420 119.9021108 128.9407679  57.2324494
 119.7639006 129.1309275  56.3045683 119.5457327 129.7027062  57.6892545
 119.9290487 131.0084206  62.2435766 120.3626994 130.9159495  63.0918820
 120.6422068 130.9841707  61.6055782 108.8423538 132.2268205  59.4256499
 109.6364136 131.7318525  59.2239074 108.1315230 131.6986068  59.0624204
 113.6618382 134.6086300  63.7768866 113.7155405 135.1777237  64.5446582
 112.7933164 134.7788186  63.4122903 105.1506301 126.3711287  55.5016251
 104.2203889 126.3095742  55.7186214 105.2463773 125.8487239  54.7052893
 105.0691850 122.8966100  58.0894493 105.3298668 123.8111433  57.9803654
 105.8909023 122.4290542  58.2391106 120.7906037 131.0507907  64.7768651
 120.9841927 131.9553718  65.0227926 120.6906655 130.5915326  65.6107236
 115.8521146 131.2014650  70.3509532 115.7006652 130.9725201  69.4339615
 115.8425825 132.1585251  70.3640877 112.6206482 128.7746563  65.3355798
 113.5498542 128.9257722  65.1624765 112.1997512 128.8630583  64.4804445
 111.4194814 132.7997227  63.1054336 111.2805900 132.4316011  63.9780274
 110.6309410 133.3144866  62.9338294 112.0142966 137.9006323  54.4479872
 112.1894722 137.4294367  55.2625495 111.3275754 138.5272090  54.6761133
 112.9700029 132.1778830  60.4943174 112.6349862 132.1379600  61.3900823
 112.4703975 131.5123546  60.0213584 115.9059221 129.5234864  50.7680233
 115.2888391 128.7981692  50.6713286 115.4375709 130.2844224  50.4247307
 117.5613352 134.2333772  68.4286014 117.5025898 133.5492992  67.7616597
 117.9632871 134.9752762  67.9766640 106.5804051 141.0495686  61.2219732
 106.8200649 141.6814210  61.8998751 105.7373248 140.6983726  61.5085092
 107.6957767 123.7420288  49.8901538 106.8187233 123.6209089  49.5263784
 108.1715520 122.9506367  49.6380426 117.5630760 132.1973356  66.6599993
 116.6757538 131.8599278  66.7826392 118.1329311 131.4656387  66.8968759
  99.2159907 128.5297448  59.9843045  99.9030947 128.2159178  59.3964060
  99.0608035 129.4338813  59.7110296 111.0931913 136.8574809  63.6261236
 111.0202084 137.6629780  64.1380541 110.6509306 137.0566774  62.8009258
 110.8821693 136.0946579  57.1364058 110.0989214 136.6368259  57.2302283
 111.5814438 136.6120558  57.5358299 114.1918343 121.9041208  59.7798263
 114.6887042 121.1511170  59.4599334 113.4205324 121.9405525  59.2141473
 122.0448100 127.6081574  61.4216555 122.0337976 128.4906289  61.0510488
 121.1765480 127.2553124  61.2271092 113.5530597 136.7561643  65.7819395
 114.2658569 137.3909107  65.7095297 113.0620625 136.8525509  64.9659397
 115.2748123 130.6612895  57.3536687 114.3404402 130.7814358  57.1841391
 115.4524792 129.7585362  57.0896697 110.7753311 124.0458591  59.5069948
 110.4051099 123.4929631  60.1950854 111.2712404 123.4416725  58.9544948
 118.6620675 126.5030215  57.8886721 119.1281127 127.3358206  57.8147024
 119.1128175 126.0375196  58.5931979 108.6042510 134.5056086  66.6024966
 109.3051970 135.1392569  66.7554360 108.1337625 134.8470818  65.8420605
 116.7296906 132.8474036  54.8872873 117.0056750 132.7330630  55.7966747
 115.8601405 132.4491521  54.8485046 116.6337338 118.8710802  61.9277622
 115.7200417 119.1015028  62.0959829 117.0630439 118.9549246  62.7791655
 116.4043796 127.0600694  64.4277516 115.7515246 127.3076601  63.7729969
 116.7824176 126.2464832  64.0939994 113.3650970 137.0960387  58.5305687
 113.5473364 136.2782043  58.9933439 114.1883956 137.3128079  58.0930577
 113.6993135 136.0228572  55.7920735 114.2280902 135.5121026  55.1790897
 113.9621355 135.7071102  56.6566268 112.4531369 127.8020505  70.9143553
 111.7772006 127.7014634  71.5845929 113.2759003 127.6459718  71.3779551
 104.2010228 134.0392441  63.5356069 104.7863665 133.2936129  63.6683973
 104.0035067 134.3496398  64.4192733 107.0548883 137.0743689  58.5518511
 106.3859259 137.5589816  58.0682551 106.9161753 137.3212909  59.4661890
  98.7927883 126.6098041  62.2560512  98.8311982 126.0761632  63.0497630
  98.2868176 126.0833247  61.6371489 111.1954152 139.1087432  65.1501169
 111.7472460 139.2719054  65.9150255 111.5360345 139.6991870  64.4781194
 116.0465026 133.9348690  71.0049824 116.5904930 134.5478648  70.5104779
 115.4651871 134.4928268  71.5216837 102.4236460 125.3362144  55.3314443
 102.7189901 124.4272822  55.2781497 101.5224496 125.3149883  55.0095446
 114.3322539 137.0569408  62.1364852 114.2073679 136.2559147  61.6275797
 114.9901630 137.5515601  61.6478822 105.9530707 123.4118140  61.3141992
 105.2317293 124.0254108  61.1749465 106.7423963 123.9475905  61.2358638
 116.3957448 134.8578428  63.7644402 115.4487783 134.7383779  63.6922728
 116.7440221 133.9700926  63.8470663 104.1524302 123.0176241  55.4553768
 103.8237008 122.1373620  55.2728874 104.5063673 122.9623910  56.3430158
 113.4003881 134.6531144  59.9648754 113.2528843 133.7247851  60.1456324
 114.2257374 134.6751235  59.4805829 107.2666125 123.3049211  55.8229246
 107.6062198 123.8335132  55.1007854 107.7138246 123.6429617  56.5987813
 117.0038003 135.4759703  61.0513627 117.9284550 135.2702564  60.9138078
 116.8353306 135.2276104  61.9602968 109.9609566 121.6886262  65.2732314
 109.6206386 120.8894075  65.6752994 109.2548572 121.9887973  64.7009147
 110.6126038 118.7735574  63.7259637 111.4352107 118.2996052  63.6038527
 110.8564101 119.5526058  64.2258323 109.2534272 121.8023833  54.0222539
 109.9742635 122.1805085  53.5186256 108.6299576 122.5212709  54.1257517
 113.3965395 122.5068982  54.9580871 113.6129010 123.3893619  54.6569699
 112.9159462 122.1155195  54.2286513 108.1364617 125.4654695  61.5351616
 107.9909197 125.7794998  62.4275897 107.6589820 126.0839595  60.9822514
 109.9960999 122.4557243  61.5832505 109.9822568 121.5598336  61.2464803
 110.7133428 122.4627906  62.2170791 111.8487130 122.8894583  63.6285633
 111.5904908 123.8111654  63.6269963 111.3172171 122.4925017  64.3186097
 116.7933319 135.9945370  56.4075718 116.9670196 135.4291793  55.6549571
 117.2862210 136.7946265  56.2255208 102.6110279 128.0060039  64.4739277
 102.0663747 128.7819847  64.6059551 103.4889629 128.3530844  64.3158398
 109.3997895 121.3371623  56.8520075 109.5213807 120.4088269  57.0510963
 109.1099938 121.3510309  55.9398391 112.2689086 119.0226533  59.9886795
 112.2910783 119.0865867  59.0338775 112.6857145 118.1831042  60.1827301
 122.6472710 128.7581793  58.0266018 123.0903856 128.0089118  57.6285141
 121.7699220 128.7491929  57.6439750 117.7808491 135.3112134  53.5072616
 118.4759396 135.9318827  53.7259931 118.1231642 134.4607486  53.7824994
 119.6799915 132.7611840  55.0359947 120.2051239 133.0999113  54.3109267
 119.5922267 131.8258855  54.8523082 111.3419963 136.6745914  67.1649824
 111.6507090 136.4295060  68.0372523 112.1395445 136.8792552  66.6768694
 111.3640575 138.8283823  59.3955200 110.9245566 138.3360202  60.0888057
 112.1148692 138.2856791  59.1547276 103.8432914 135.0195364  59.3979828
 104.6690934 134.7199136  59.0178472 103.4926966 134.2502987  59.8469617
 108.8114447 134.3721832  61.4677502 108.1894457 133.7092537  61.1679730
 109.4819314 134.3982964  60.7851150 102.0441519 132.9381691  60.3568762
 101.2073428 132.5103865  60.1752763 102.0165165 133.1314134  61.2939553
 119.3693821 133.3944744  70.3411145 118.5789364 133.3768882  69.8015644
 119.1327175 133.9333037  71.0960182 119.4891696 130.2437210  67.6543874
 119.5389701 130.0787217  68.5959396 119.3805619 129.3764469  67.2641754
 108.3727954 132.9225756  54.9435963 108.5216075 133.6061220  54.2902635
 109.1794398 132.9030846  55.4585418 116.7795458 126.2268138  68.9703180
 117.6805321 126.0874603  68.6787178 116.8543433 126.3922593  69.9101358
 120.9909892 132.6634152  67.8985895 120.6994701 133.0264132  68.7349356
 120.3782024 131.9501160  67.7199227 122.1905575 130.2287031  60.4188465
 123.0252466 130.6676835  60.5826026 122.3264704 129.7525685  59.5996711
 119.2397081 127.7866766  66.3665953 119.7151202 127.9794412  65.5584805
 118.3162646 127.8425952  66.1209337 106.1280587 128.9490933  55.9497031
 105.8826629 128.0453263  56.1477242 106.2976502 128.9508084  55.0076509
 113.8177297 119.8214610  65.3321787 114.3359241 120.5575637  65.0068276
 113.4632430 120.1278603  66.1668546 105.3976235 124.6819291  53.4483193
 104.7045480 124.7563646  52.7923229 105.1527987 123.9179635  53.9704710
 114.0689891 116.2414892  60.8522684 114.3491645 115.5738081  61.4783110
 114.8540498 116.4343988  60.3397347 111.8723360 135.4173886  52.4147710
 111.2997327 136.0364073  51.9618182 112.4456154 135.9673248  52.9487632
 117.9398750 124.6632526  64.5994259 118.8916173 124.7630624  64.6206483
 117.7702200 123.8710795  65.1092343 115.9613129 121.7488109  64.7853660
 115.3663061 122.0293122  64.0900148 115.6762826 122.2382010  65.5570401
 115.0920620 135.7011036  53.5456292 116.0251293 135.6356598  53.7489168
 115.0043832 136.5367303  53.0870825 117.7208636 135.0176907  50.5060240
 117.6422268 134.6836770  51.3995998 118.5418303 135.5098675  50.5051712
 120.4186827 127.8838646  63.7136558 120.3863148 126.9454647  63.8996242
 121.0287451 127.9622683  62.9802383 112.2570158 126.7534699  49.7563762
 113.2029263 126.6240907  49.8252180 111.8784403 126.0149361  50.2333191
 120.5681316 124.6749689  63.7594842 120.0520365 123.8908146  63.5724770
 121.4521265 124.3468406  63.9241361 118.2292043 118.4190705  59.7190654
 118.0316864 118.1105793  60.6033986 118.8391748 119.1452344  59.8488584
 126.2363377 128.9454653  62.8542595 126.9666766 128.6839941  63.4150299
 125.6270323 128.2083375  62.8944663 124.3178674 127.0862515  63.4517046
 123.5911838 126.9518480  62.8433538 123.9025961 127.3939344  64.2573764
 112.1408851 130.8052445  71.2164419 113.0611860 130.9831044  71.4104466
 112.1058434 129.8608490  71.0644119 110.4413076 124.6784675  49.6918648
 109.5344531 124.3817788  49.7681361 110.7189057 124.3814493  48.8252934
 101.3591016 125.9991039  60.1417694 101.0393800 125.1456347  59.8492068
 100.8124444 126.2139617  60.8975661 105.1370923 128.7153480  63.8587201
 105.3556933 129.6470588  63.8775234 105.5496697 128.3561454  64.6442004
 112.0575141 119.2221565  55.8462889 111.2475870 118.8768650  56.2218135
 112.7459558 118.9129109  56.4350501 113.9865690 118.2999612  57.4687186
 114.5396728 118.7195065  58.1277209 114.2235776 117.3735360  57.5110142
 109.2111860 121.5371611  49.8330627 110.0731024 121.8626509  50.0926444
 109.3962204 120.7503106  49.3203693 101.2279276 129.6193950  62.1110816
 100.5342747 129.2047903  61.5980770 101.9752267 129.6614487  61.5144235
 117.3644497 120.4100137  56.9765850 116.7843166 121.0684941  56.5943902
 117.0980429 119.5877482  56.5653267 115.8148063 119.8105195  59.1787170
 116.3147841 119.9221729  58.3701489 116.4583671 119.5066248  59.8187979
 103.1416018 129.5512204  59.9876831 103.1186707 129.6499891  59.0358714
 103.4516655 130.3977355  60.3093997 105.8003396 131.6088359  64.1023445
 106.7546650 131.5772301  64.0353377 105.6015920 131.1478983  64.9173671
 116.1469375 122.5700227  56.0322198 115.2595230 122.8549878  55.8142393
 116.5623364 122.4093991  55.1849475 119.4983911 122.5946748  59.7476537
 120.2744301 123.0843201  60.0201154 118.7732045 123.0204803  60.2048407
 121.9356469 123.3074368  60.8050478 122.5300960 123.0670104  60.0943786
 122.0083053 122.5881498  61.4324014 104.1553625 137.1507978  61.1193643
 104.0208093 136.3908379  60.5531641 103.7385687 137.8748878  60.6522432
 115.2912588 132.3344902  50.1270218 115.9948438 132.5394905  50.7427874
 114.5675237 132.9021664  50.3919302 116.1210398 128.0854763  56.2472488
 116.0645600 128.5423315  55.4080121 116.6738741 127.3245448  56.0695331
 119.9315204 123.8744495  57.0722608 119.6752139 123.4741131  57.9030815
 119.3068072 124.5888289  56.9472747 124.2427542 126.6140568  59.5793899
 123.6827100 126.6833758  60.3525461 123.6371046 126.4381553  58.8593395
 107.3122751 138.0477296  61.3312085 107.1955135 138.9922728  61.2290776
 106.4915197 137.7450857  61.7197885 117.1999286 132.7727431  52.1768678
 118.0344889 132.3408630  51.9946153 117.0383628 132.6009445  53.1045573
 116.8545178 129.2759545  53.5425017 116.7993981 129.1103816  52.6013462
 116.2291233 129.9835577  53.6987207 114.1691085 131.5808456  72.8678580
 115.0382244 131.7549109  72.5065215 113.6897836 132.4002873  72.7454310
 110.1641303 118.7767654  53.1210336 110.1519973 119.7209493  53.2778607
 111.0564725 118.5937799  52.8269797 108.3377265 138.7005557  64.5468014
 109.2404512 138.7329168  64.8634509 108.1114635 137.7706008  64.5614350
 110.0930867 137.4536544  61.2078093 109.1426498 137.4538406  61.0942465
 110.3963353 136.7069279  60.6914127 113.9793423 115.3710430  57.3756273
 113.2125818 114.8168917  57.5212955 114.3904128 115.4432299  58.2370424
 122.6373267 143.2424510  62.2085380 122.2991778 143.1265575  61.3205914
 123.5063035 142.8415676  62.1886386 118.4960083 145.0959987  58.1982271
 117.9324948 145.0049924  57.4298558 118.3812478 144.2759891  58.6784763
 116.0424515 146.5911178  61.0366491 116.8345806 146.2502003  60.6212790
 116.2821165 146.7006154  61.9568644 118.0015268 145.8520092  53.9083870
 118.7746144 145.3049079  53.7696746 118.3540667 146.7164341  54.1198331
 120.7656518 144.5573322  63.7052129 121.3620090 144.3329345  62.9909092
 120.8231489 143.8158068  64.3077577 120.3381546 142.0112758  51.5402320
 120.5907067 141.4894279  50.7785783 119.4006105 141.8478903  51.6429003
 125.3824829 141.0148536  59.3477063 126.1687918 140.5967959  58.9967480
 125.6463533 141.9194628  59.5158711 120.0577835 143.9140864  53.7426695
 119.9414093 143.2385767  54.4107779 120.1680095 143.4273238  52.9258848
 122.4009376 143.3751011  57.4473384 122.0367583 142.8481632  58.1586305
 123.2576492 142.9849480  57.2739869 128.3058677 134.6645343  64.7104650
 127.9742001 135.5340754  64.4865865 127.7104290 134.3481627  65.3898680
 122.0414863 138.4040911  52.4434732 122.2089265 139.2721147  52.8105203
 121.8512032 138.5668192  51.5196022 118.2502678 143.3171686  60.1437267
 117.3253174 143.1847900  60.3514959 118.4987091 144.0965906  60.6407210
 128.1987340 139.3840430  61.7898000 127.2904217 139.3155838  61.4956761
 128.1474936 139.8612375  62.6179826 122.0204084 140.8598568  53.4281399
 121.9003709 141.3055619  54.2666880 121.3256672 141.2083886  52.8694937
 115.6111489 142.9604960  60.9781056 115.7403870 143.2139439  61.8920468
 114.9308940 143.5532668  60.6585711 122.2728206 140.8030075  69.7332897
 121.4961540 141.3623995  69.7235762 122.9118769 141.2886858  70.2547768
 130.0648986 137.5856868  63.5675874 129.4223367 137.8789401  62.9215669
 129.5603915 137.4709788  64.3729071 120.5274578 143.6115529  69.2950864
 121.2689262 144.1500573  69.0185688 119.8211563 144.2381817  69.4522416
 122.3560988 140.6917276  65.2656583 123.2022183 141.1156689  65.4091232
 122.2959625 140.0350900  65.9595146 125.5060433 138.3521644  66.9237756
 125.2621365 139.1063705  66.3872032 125.7820363 138.7306992  67.7585004
 125.0625125 137.5078077  62.5051594 124.2009604 137.8059331  62.7968332
 125.0887559 137.7248476  61.5732627 118.7710775 145.5991749  61.8505163
 119.3412132 146.0279018  61.2122648 119.3618887 145.3174334  62.5489349
 120.8155580 142.1743420  55.7214965 121.5179624 142.6264464  56.1888891
 120.4836209 141.5327239  56.3494858 119.2635942 140.7655177  70.0966174
 118.6334602 141.4471458  70.3301571 119.1572030 140.6538258  69.1519313
 114.5580914 140.4326973  61.0232099 113.7679968 140.6884501  60.5472209
 115.0492162 141.2475311  61.1284139 116.5095660 140.7971552  57.9815575
 115.7126823 140.9090246  58.4999071 116.2821252 141.1358204  57.1156466
 112.8418617 140.6857463  63.4547089 113.0926656 141.5704473  63.7204665
 113.3778166 140.5062065  62.6822181 118.5416684 135.0675943  72.4591425
 118.1483630 134.5142141  73.1339070 119.3582825 135.3786521  72.8497943
 115.5078742 146.5059801  56.3704995 116.0203263 147.3003051  56.5210560
 116.1601455 145.8086091  56.3038597 121.4584645 136.4833822  70.0511682
 122.1994359 137.0840975  69.9716144 121.6902568 135.7411460  69.4929725
 116.6025983 141.6690189  68.3289912 116.4879499 140.7675446  68.6297011
 115.7470501 141.9153886  67.9774728 125.4041808 132.5114925  64.3275964
 125.0606078 133.4016566  64.2515074 125.7720771 132.3216582  63.4645549
 113.4727659 144.8348455  57.1464566 114.3102881 145.2445463  56.9298274
 113.6505927 143.8947897  57.1164760 122.9539202 137.3473237  57.8933637
 122.0980798 136.9580087  57.7139276 123.3666154 137.4265197  57.0333423
 124.4838349 134.8819580  62.2925197 123.9803144 134.8449715  61.4793002
 124.7768956 135.7912323  62.3521854 120.7281235 134.9658310  61.2991379
 121.5934231 134.7701118  60.9397268 120.7958744 134.7368661  62.2260735
 125.1578394 140.3750628  54.6608180 124.8528530 140.6896777  55.5118323
 126.1108836 140.4532048  54.7035513 118.3343554 137.1960517  58.6707745
 118.9087306 136.9735699  57.9380938 118.9214536 137.2649212  59.4236347
 118.6613141 139.2264979  52.6903631 117.8250453 139.5639665  53.0112905
 118.5217910 139.0913958  51.7530768 120.6366221 134.0701766  57.3982815
 119.9830634 133.7550784  56.7739430 120.5946696 133.4477507  58.1242638
 121.7477426 144.3521061  49.3136107 120.8404488 144.1210315  49.5127256
 122.2448458 143.5558681  49.5010089 123.8703962 140.5583700  61.7230463
 122.9526523 140.7798647  61.5652151 124.2864105 140.6330010  60.8642170
 127.1017847 138.9932232  58.8351932 126.3640604 138.4809618  59.1662175
 127.3544620 138.5532613  58.0235209 127.2029474 131.7708484  59.4293701
 127.5088351 130.9105847  59.1419616 127.9282079 132.3626104  59.2292695
 113.4953830 142.1739170  57.8175299 113.2978230 141.5808531  57.0926366
 112.9400494 141.8691381  58.5351238 121.4750554 142.0662277  59.9369892
 121.5299164 141.1136113  59.8612369 120.6641756 142.2221716  60.4211191
 119.4142914 140.6839337  57.6960271 118.6010779 140.9833507  58.1025463
 119.9101908 140.2895025  58.4134754 125.0117125 141.1481161  66.5275165
 125.3666513 141.3752634  67.3869631 125.6589257 141.4799538  65.9052420
 118.9056988 138.2557692  63.3121506 119.5456368 138.1146451  62.6144470
 118.0734519 137.9692206  62.9360108 115.9900056 141.7003204  55.5016251
 115.0597644 141.6387660  55.7186214 116.0857528 141.1779157  54.7052893
 115.9085605 138.2258017  58.0894493 116.1692422 139.1403350  57.9803654
 116.7302777 137.7582460  58.2391106 117.3810530 139.6395774  65.2593318
 118.0533584 139.4313136  64.6105966 116.5540317 139.4417860  64.8198550
 123.2836102 136.2657715  67.2758978 122.6364017 136.9647665  67.1823455
 124.0537118 136.6993859  67.6435227 117.7838027 142.9138377  66.0195755
 117.6457825 142.1818616  66.6207294 118.6942951 142.8247277  65.7379942
 120.4120328 142.6258337  65.5079434 121.1219947 141.9851529  65.4666053
 120.3689636 142.8771232  66.4305615 119.1249262 139.6123555  67.3275074
 118.5886619 139.1614293  67.9796670 118.5365971 139.7469463  66.5845538
 118.5351521 139.0712206  49.8901538 117.6580987 138.9501007  49.5263784
 119.0109274 138.2798284  49.6380426 110.0553661 143.8589366  59.9843045
 110.7424701 143.5451096  59.3964060 109.9001790 144.7630730  59.7110296
 114.8588383 138.7479562  64.4128068 114.7746572 138.1405232  63.6778478
 114.0371090 139.2388581  64.4137565 125.0312097 137.2333126  59.7798263
 125.5280797 136.4803088  59.4599334 124.2599079 137.2697442  59.2141473
 121.6147066 139.3750509  59.5069948 121.2444853 138.8221549  60.1950854
 122.1106158 138.7708642  58.9544948 127.4731092 134.2002719  61.9277622
 126.5594172 134.4306946  62.0959829 127.9024193 134.2841163  62.7791655
 123.2925124 143.1312422  70.9143553 122.6165761 143.0306552  71.5845929
 124.1152757 142.9751636  71.3779551 115.0403983 149.3684359  63.5356069
 115.6257419 148.6228047  63.6683973 114.8428821 149.6788316  64.4192733
 109.6321637 141.9389959  62.2560512 109.6705737 141.4053550  63.0497630
 109.1261930 141.4125165  61.6371489 117.0112400 136.7854500  65.7523054
 117.0753726 137.6469330  65.3400452 116.9479520 136.1728501  65.0195413
 116.4864672 138.8577632  69.3996088 117.1136711 138.4754709  70.0133613
 115.6292591 138.6391834  69.7651781 113.2630215 140.6654061  55.3314443
 113.5583656 139.7564740  55.2781497 112.3618251 140.6441801  55.0095446
 116.7924462 138.7410058  61.3141992 116.0711048 139.3546025  61.1749465
 117.5817718 139.2767823  61.2358638 119.5950775 136.0764484  67.5882644
 120.1185177 136.3226781  68.3508953 119.3763109 136.9084519  67.1685781
 114.9918056 138.3468159  55.4553768 114.6630763 137.4665538  55.2728874
 115.3457427 138.2915828  56.3430158 118.1059880 138.6341129  55.8229246
 118.4455952 139.1627050  55.1007854 118.5532000 138.9721535  56.5987813
 120.8003320 137.0178179  65.2732314 120.4600141 136.2185992  65.6752994
 120.0942327 137.3179890  64.7009147 121.4519792 134.1027492  63.7259637
 122.2745862 133.6287970  63.6038527 121.6957856 134.8817976  64.2258323
 120.0928027 137.1315750  54.0222539 120.8136389 137.5097003  53.5186256
 119.4693331 137.8504627  54.1257517 124.2359150 137.8360899  54.9580871
 124.4522764 138.7185537  54.6569699 123.7553217 137.4447113  54.2286513
 118.9758371 140.7946612  61.5351616 118.8302952 141.1086915  62.4275897
 118.4983575 141.4131513  60.9822514 120.8354754 137.7849160  61.5832505
 120.8216323 136.8890254  61.2464803 121.5527182 137.7919824  62.2170791
 122.6880885 138.2186501  63.6285633 122.4298662 139.1403571  63.6269963
 122.1565925 137.8216935  64.3186097 113.4504033 143.3351957  64.4739277
 112.9057501 144.1111765  64.6059551 114.3283383 143.6822761  64.3158398
 120.2391650 136.6663541  56.8520075 120.3607561 135.7380187  57.0510963
 119.9493692 136.6802227  55.9398391 123.1082840 134.3518451  59.9886795
 123.1304537 134.4157784  59.0338775 123.5250899 133.5122960  60.1827301
 114.2370055 142.4621853  67.3669434 113.4951791 142.6104488  67.9534064
 113.9162799 142.7230119  66.5036183 112.8835274 148.2673608  60.3568762
 112.0467182 147.8395783  60.1752763 112.8558919 148.4606052  61.2939553
 119.7232729 138.1795538  71.0610008 119.7720885 139.0557661  70.6787778
 120.2655244 137.6372931  70.4881651 121.9532018 138.9326910  67.8156367
 121.0835327 139.2260477  67.5438955 122.1891498 139.5167355  68.5363630
 116.9674342 144.2782851  55.9497031 116.7220384 143.3745181  56.1477242
 117.1370256 144.2800001  55.0076509 124.6571052 135.1506527  65.3321787
 125.1752996 135.8867554  65.0068276 124.3026184 135.4570521  66.1668546
 116.2369989 140.0111209  53.4483193 115.5439234 140.0855564  52.7923229
 115.9921741 139.2471552  53.9704710 124.9083646 131.5706810  60.8522684
 125.1885400 130.9029999  61.4783110 125.6934253 131.7635906  60.3397347
 126.8006884 137.0780027  64.7853660 126.2056816 137.3585040  64.0900148
 126.5156580 137.5673928  65.5570401 123.0963913 142.0826617  49.7563762
 124.0423018 141.9532825  49.8252180 122.7178158 141.3441278  50.2333191
 129.0685797 133.7482623  59.7190654 128.8710619 133.4397711  60.6033986
 129.6785503 134.4744262  59.8488584 121.2806830 140.0076593  49.6918648
 120.3738285 139.7109706  49.7681361 121.5582811 139.7106411  48.8252934
 112.1984770 141.3282956  60.1417694 111.8787555 140.4748265  59.8492068
 111.6518199 141.5431535  60.8975661 115.9764678 144.0445397  63.8587201
 116.1950688 144.9762505  63.8775234 116.3890452 143.6853372  64.6442004
 122.8968896 134.5513483  55.8462889 122.0869624 134.2060568  56.2218135
 123.5853313 134.2421026  56.4350501 124.8259444 133.6291529  57.4687186
 125.3790483 134.0486983  58.1277209 125.0629530 132.7027278  57.5110142
 120.8492543 139.6178603  73.2489950 120.7489270 140.5672960  73.1802041
 120.6314085 139.2896842  72.3766020 120.0505615 136.8663528  49.8330627
 120.9124779 137.1918427  50.0926444 120.2355959 136.0795024  49.3203693
 112.0673030 144.9485868  62.1110816 111.3736502 144.5339821  61.5980770
 112.8146021 144.9906404  61.5144235 128.2038251 135.7392055  56.9765850
 127.6236920 136.3976859  56.5943902 127.9374184 134.9169399  56.5653267
 126.6541817 135.1397112  59.1787170 127.1541596 135.2513647  58.3701489
 127.2977425 134.8358165  59.8187979 120.7123813 143.0475742  72.0655011
 120.2290895 143.8476102  72.2718900 120.7984752 143.0583687  71.1122455
 113.9809773 144.8804122  59.9876831 113.9580461 144.9791809  59.0358714
 114.2910409 145.7269272  60.3093997 116.6397151 146.9380277  64.1023445
 117.5940404 146.9064219  64.0353377 116.4409674 146.4770900  64.9173671
 117.2296533 145.5081393  66.6694243 118.0489422 146.0025471  66.6929080
 117.5033341 144.5913361  66.6411810 126.9863129 137.8992145  56.0322198
 126.0988984 138.1841796  55.8142393 127.4017118 137.7385908  55.1849475
 130.3377665 137.9238666  59.7476537 131.1138055 138.4135118  60.0201154
 129.6125799 138.3496720  60.2048407 112.4831447 139.8419527  67.3686440
 113.1290311 139.3318481  67.8573665 112.2748598 140.5788208  67.9429865
 121.0035058 134.1059571  53.1210336 120.9913727 135.0501411  53.2778607
 121.8958480 133.9229717  52.8269797 124.8187177 130.7002348  57.3756273
 124.0519573 130.1460835  57.5212955 125.2297882 130.7724217  58.2370424
 116.8228938 136.9887144  71.4661454 117.6860400 136.6323949  71.6764778
 116.2494349 136.6501038  72.1536858  39.1133526  -2.3376136  48.9969162
  39.7511936  -2.4569389  48.2932502  38.9954369  -1.3895293  49.0557114
  35.9223232  -2.3848708  48.9330686  35.5841744  -2.5007644  48.0451221
  36.7913000  -2.7857543  48.9131692  36.4043015  -1.2313857  54.8916892
  36.3931656  -1.6261058  54.0197395  36.5663655  -1.9647784  55.4850663
  33.1250276   1.5523255  53.8396076  32.8340142   2.4568886  53.7242742
  33.7607261   1.5939783  54.5540145  38.6674794  -4.6124683  46.0722370
  39.4537884  -5.0305259  45.7212787  38.9313499  -3.7078590  46.2404018
  44.0683222  -4.6749449  46.9755348  44.8008393  -5.2450233  47.2093178
  43.3122577  -5.0627849  47.4161854  38.0840161   1.2384671  50.8345869
  37.7840885   2.1409709  50.7261677  37.7391221   0.9716854  51.6867022
  33.0660941   8.0028991  43.8016837  32.9884971   8.9536816  43.8805318
  32.4622585   7.6574864  44.4591763  39.2879883   0.1271450  54.6168333
  39.6963239  -0.3146139  53.8722965  38.5657144  -0.4475922  54.8702525
  39.6108698   0.6872641  48.3720621  38.9817560   0.8518355  47.6696689
  39.2234360   1.1014250  49.1431585  43.4897929   1.6227079  45.7264985
  42.8048968   2.0025980  45.1762018  43.5741779   2.2322405  46.4596933
  40.7448861  -0.7312962  52.3260329  40.9565756  -0.0881202  51.6494710
  40.6978609  -1.5650646  51.8582259  35.1636659   0.4247049  45.6370707
  35.6275005   0.7034752  44.8475329  34.8993458  -0.4769506  45.4543797
  32.0560741  -0.0281469  48.5750470  32.6262098   0.4005799  47.9367954
  32.6468852  -0.3098885  49.2734655  41.8594689   2.1458993  50.4982686
  42.6812133   1.7439180  50.2165368  41.8557092   2.0427227  51.4498802
  35.6251292   1.6943036  52.6543397  35.6895725   2.1563444  53.4901568
  34.9162216   1.0640401  52.7825706  49.9500682  -1.5102258  46.8467657
  49.1964390  -2.0794860  46.6911662  50.0848223  -1.5439594  47.7938292
  35.3399310   3.3611144  42.5222377  35.2044985   4.2062680  42.9507225
  35.8809123   3.5630422  41.7588311  30.6023592   3.9952338  45.1773055
  30.7790221   4.9170303  44.9894039  31.3980426   3.6810758  45.6067435
  36.9667787   3.9834710  56.6522719  36.5231641   3.1971089  56.3343623
  37.6285000   4.1713861  55.9866610  31.7254908   5.5130512  51.1783397
  32.2762333   5.3847575  50.4060391  30.8866384   5.8125401  50.8278290
  39.0649025   4.2637510  54.6804120  39.0467500   5.0846391  54.1884389
  39.9868945   4.1391586  54.9054261  35.5222079   1.7781640  55.5227629
  36.0550416   1.0169928  55.2926937  34.9936160   1.4855292  56.2651783
  43.6276331  -0.3717328  41.4946879  42.8505773  -0.7106169  41.0502041
  44.3067812  -0.3664705  40.8201844  36.8874791   0.9067632  43.0346441
  36.3596153   0.1720392  42.7219678  36.3862294   1.6842309  42.7886409
  41.8667637  -0.8983347  48.1513487  41.2091312  -0.2084086  48.2393616
  42.6708037  -0.5086915  48.4947473  40.6773096  -2.5438974  46.2017429
  41.1904978  -1.9108983  46.7039138  41.3274320  -3.1437779  45.8360789
  37.9395471   7.4345350  38.9578100  37.2657169   7.7377047  39.5663058
  38.3261292   8.2374430  38.6083557  41.4434892   2.4367027  44.3296571
  40.9897220   1.5957937  44.3861762  40.8128859   3.0728425  44.6671351
  39.8867832   4.2743524  45.2646389  40.1790806   4.8348581  44.5458755
  40.3966452   4.5672085  46.0199549  34.8501457   5.0523875  46.3539843
  34.8077636   5.2784721  45.4248375  35.7664156   4.8187249  46.5025644
  38.2967091  -4.4792058  53.2520472  38.6516478  -4.2520585  54.1114938
  38.9439222  -4.1473681  52.6297727  44.0264828  -1.3573622  43.9569801
  43.8882726  -1.1672026  43.0290990  43.6701046  -0.5954239  44.4137852
  44.0534207   0.7102905  48.9681072  44.4870714   0.6178194  49.8164126
  44.7665788   0.6860406  48.3301088  32.9667258   1.9286904  46.1501805
  33.7607856   1.4337224  45.9484380  32.2558950   1.4004767  45.7869511
  37.7862102   4.3104999  50.5014173  37.8399124   4.8795936  51.2691889
  36.9176884   4.4806884  50.1368210  44.9149757   0.7526606  51.5013958
  45.1085647   1.6572416  51.7473233  44.8150375   0.2934025  52.3352543
  39.9764865   0.9033349  57.0754838  39.8250372   0.6743900  56.1584922
  39.9669545   1.8603950  57.0886183  36.7450202  -1.5234739  52.0601105
  37.6742262  -1.3723579  51.8870072  36.3241232  -1.4350718  51.2049751
  35.5438534   2.5015926  49.8299642  35.4049619   2.1334710  50.7025581
  34.7553130   3.0163565  49.6583600  36.1386686   7.6025022  41.1725179
  36.3138441   7.1313065  41.9870802  35.4519474   8.2290788  41.4006440
  37.0943749   1.8797528  47.2188480  36.7593581   1.8398298  48.1146130
  36.5947695   1.2142244  46.7458890  41.6857072   3.9352471  55.1531320
  41.6269618   3.2511691  54.4861903  42.0876591   4.6771461  54.7011946
  30.7047771  10.7514385  47.9465039  30.9444369  11.3832909  48.6244058
  29.8616967  10.4002425  48.2330398  41.6874479   1.8992055  53.3845300
  40.8001258   1.5617977  53.5071699  42.2573030   1.1675086  53.6214065
  35.2175633   6.5593507  50.3506543  35.1445804   7.3648479  50.8625848
  34.7753026   6.7585473  49.5254565  35.0065412   5.7965277  43.8609365
  34.2232934   6.3386958  43.9547589  35.7058158   6.3139257  44.2603606
  46.1691820  -2.6899728  48.1461862  46.1581696  -1.8075012  47.7755795
  45.3009199  -3.0428177  47.9516399  37.6774316   6.4580341  52.5064702
  38.3902289   7.0927806  52.4340603  37.1864345   6.5544207  51.6904704
  39.3991843   0.3631594  44.0781993  38.4648122   0.4833057  43.9086698
  39.5768512  -0.5395939  43.8142003  42.7864395  -3.7951087  44.6132028
  43.2524847  -2.9623095  44.5392330  43.2371895  -4.2606105  45.3177286
  32.7286230   4.2074785  53.3270273  33.4295689   4.8411268  53.4799667
  32.2581345   4.5489516  52.5665912  40.8540626   2.5492735  41.6118180
  41.1300470   2.4349329  42.5212054  39.9845124   2.1510220  41.5730353
  40.5287516  -3.2380608  51.1522823  39.8758966  -2.9904700  50.4975276
  40.9067896  -4.0516469  50.8185300  37.4894690   6.7979086  45.2550993
  37.6717084   5.9800742  45.7178746  38.3127676   7.0146778  44.8175883
  37.8236855   5.7247271  42.5166042  38.3524622   5.2139725  41.9036204
  38.0865075   5.4089801  43.3811575  36.5775089  -2.4960797  57.6388860
  35.9015726  -2.5966667  58.3091235  37.4002723  -2.6521583  58.1024857
  28.3253948   3.7411140  50.2601375  28.9107385   2.9954828  50.3929279
  28.1278786   4.0515097  51.1438039  31.1792603   6.7762387  45.2763818
  30.5102978   7.2608515  44.7927858  31.0405473   7.0231608  46.1907196
  35.3197872   8.8106131  51.8746476  35.8716180   8.9737752  52.6395561
  35.6604065   9.4010569  51.2026501  40.1708746   3.6367388  57.7295130
  40.7148650   4.2497347  57.2350085  39.5895591   4.1946967  58.2462143
  38.4566259   6.7588106  48.8610158  38.3317398   5.9577846  48.3521104
  39.1145350   7.2534300  48.3724128  40.5201167   4.5597127  50.4889708
  39.5731503   4.4402478  50.4168035  40.8683941   3.6719625  50.5715970
  37.5247601   4.3549843  46.6894060  37.3772563   3.4266550  46.8701631
  38.3501094   4.3769933  46.2051136  41.1281723   5.1778401  47.7758933
  42.0528270   4.9721263  47.6383384  40.9597026   4.9294803  48.6848275
  40.9177039   5.6964069  43.1321025  41.0913916   5.1310491  42.3794877
  41.4105930   6.4964964  42.9500515  46.7716430  -1.5399508  44.7511324
  47.2147576  -2.2892183  44.3530448  45.8942940  -1.5489372  44.3685056
  41.9052211   5.0130833  40.2317923  42.6003116   5.6337526  40.4505238
  42.2475361   4.1626185  40.5070301  43.8043634   2.4630539  41.7605254
  44.3294958   2.8017812  41.0354574  43.7165987   1.5277554  41.5768388
  35.4663683   6.3764613  53.8895130  35.7750809   6.1313759  54.7617830
  36.2639165   6.5811251  53.4014001  35.4884295   8.5302522  46.1200507
  35.0489285   8.0378901  46.8133364  36.2392412   7.9875490  45.8792582
  27.9676634   4.7214063  46.1225135  28.7934654   4.4217835  45.7423779
  27.6170686   3.9521685  46.5714924  32.9358167   4.0740531  48.1922809
  32.3138177   3.4111236  47.8925036  33.6063034   4.1001663  47.5096456
  43.4937540   3.0963443  57.0656452  42.7033084   3.0787581  56.5260951
  43.2570895   3.6351736  57.8205488  43.6135415  -0.0544091  54.3789180
  43.6633420  -0.2194084  55.3204703  43.5049339  -0.9216832  53.9887061
  40.9039178  -4.0713163  55.6948487  41.8049041  -4.2106698  55.4032485
  40.9787152  -3.9058708  56.6346664  45.1153612   2.3652850  54.6231202
  44.8238421   2.7282831  55.4594663  44.5025744   1.6519859  54.4444534
  46.3149295  -0.0694270  47.1433772  47.1496186   0.3695534  47.3071332
  46.4508423  -0.5455617  46.3242018  43.3640801  -2.5114535  53.0911260
  43.8394922  -2.3186889  52.2830111  42.4406366  -2.4555349  52.8454643
  42.0642470  -5.6348775  51.3239565  43.0159892  -5.5350677  51.3451789
  41.8945920  -6.4270506  51.8337650  39.2164339   5.4029735  40.2701599
  40.1495013   5.3375297  40.4734474  39.1287552   6.2386002  39.8116132
  44.5430547  -2.4142655  50.4381865  44.5106867  -3.3526654  50.6241549
  45.1531171  -2.3358618  49.7047690  44.6925036  -5.6231612  50.4840148
  44.1764084  -6.4073155  50.2970077  45.5764984  -5.9512895  50.6486668
  50.3607097  -1.3526648  49.5787902  51.0910486  -1.6141360  50.1395605
  49.7514043  -2.0897926  49.6189970  48.4422394  -3.2118786  50.1762353
  47.7155558  -3.3462821  49.5678845  48.0269681  -2.9041957  50.9819071
  36.2652571   0.5071144  57.9409726  37.1855580   0.6849743  58.1349773
  36.2302154  -0.4372811  57.7889425  43.6227631  -7.7034553  46.4721844
  44.3988021  -7.2138100  46.7446461  42.8975765  -7.2776499  46.9293714
  46.0600189  -6.9906934  47.5295785  46.6544680  -7.2311198  46.8189093
  46.1326773  -7.7099803  48.1569321  28.2797345   6.8526677  47.8438949
  28.1451813   6.0927078  47.2776947  27.8629407   7.5767577  47.3767738
  40.2454118  -2.2126538  42.9717795  40.1889320  -1.7557986  42.1325427
  40.7982461  -2.9735853  42.7940638  44.0558924  -6.4236806  43.7967914
  43.7995858  -6.8240170  44.6276122  43.4311792  -5.7093012  43.6718054
  48.3671262  -3.6840733  46.3039206  47.8070820  -3.6147543  47.0770768
  47.7614765  -3.8599748  45.5838702  31.4366471   7.7495994  48.0557392
  31.3198855   8.6941427  47.9536082  30.6158917   7.4469556  48.4443191
  41.3243005   2.4746130  38.9013985  42.1588609   2.0427329  38.7191460
  41.1627348   2.3028144  39.8290879  38.2934805   1.2827155  59.5923887
  39.1625964   1.4567808  59.2310522  37.8141556   2.1021572  59.4699616
  32.4620985   8.4024256  51.2713321  33.3648232   8.4347867  51.5879815
  32.2358355   7.4724707  51.2859656  34.2174587   7.1555243  47.9323399
  33.2670218   7.1557104  47.8187771  34.5207073   6.4087977  47.4159434
  49.9527280  12.9915781  48.9969162  50.5905690  12.8722529  48.2932502
  49.8348123  13.9396625  49.0557114  46.7616987  12.9443209  48.9330686
  46.4235498  12.8284274  48.0451221  47.6306755  12.5434374  48.9131692
  42.6203802  14.7978686  44.9227577  42.0568668  14.7068623  44.1543865
  42.5056197  13.9778590  45.4030070  47.2436770  14.0978061  54.8916892
  47.2325410  13.7030859  54.0197395  47.4057409  13.3644134  55.4850663
  40.1668234  16.2929877  47.7611798  40.9589526  15.9520702  47.3458097
  40.4064884  16.4024852  48.6813951  48.2003361  18.4649653  40.2342042
  47.5491341  19.0503734  39.8476056  48.9947724  18.9955848  40.2937080
  42.1258988  15.5538791  40.6329176  42.8989864  15.0067778  40.4942052
  42.4784387  16.4183040  40.8443638  43.9644031  16.8815173  53.8396076
  43.6733897  17.7860804  53.7242742  44.6001015  16.9231700  54.5540145
  44.8900238  14.2592021  50.4297435  45.4863810  14.0348044  49.7154398
  44.9475209  13.5176767  51.0322883  44.4625266  11.7131457  38.2647626
  44.7150787  11.1912978  37.5031089  43.5249825  11.5497602  38.3674310
  49.5068549  10.7167235  46.0722370  50.2931638  10.2986658  45.7212787
  49.7707253  11.6213327  46.2404018  49.6778626  16.1540085  40.7711026
  49.0424459  16.2274712  41.4831931  49.3476033  16.7433684  40.0930106
  54.9076976  10.6542468  46.9755348  55.6402148  10.0841685  47.2093178
  54.1516332  10.2664069  47.4161854  44.1821555  13.6159563  40.4672001
  44.0657813  12.9404466  41.1353086  44.2923815  13.1291937  39.6504154
  46.5253096  13.0769710  44.1718691  46.1611303  12.5500331  44.8831612
  47.3820212  12.6868179  43.9985176  52.4302396   4.3664042  51.4349957
  52.0985721   5.2359453  51.2111172  51.8348010   4.0500326  52.1143987
  46.1658583   8.1059609  39.1680039  46.3332985   8.9739846  39.5350510
  45.9755752   8.2686891  38.2441328  48.9233916  16.5676588  50.8345869
  48.6234639  17.4701627  50.7261677  48.5784975  16.3008772  51.6867022
  42.3746397  13.0190385  46.8682574  41.4496894  12.8866599  47.0760266
  42.6230811  13.7984604  47.3652516  52.3231060   9.0859129  48.5143307
  51.4147937   9.0174537  48.2202068  52.2718655   9.5631073  49.3425132
  46.1447804  10.5617267  40.1526706  46.0247429  11.0074318  40.9912186
  45.4500392  10.9102585  39.5940244  39.7355208  12.6623659  47.7026363
  39.8647590  12.9158138  48.6165775  39.0552660  13.2551367  47.3831018
  43.9054696  23.3320909  43.8016837  43.8278725  24.2828734  43.8805318
  43.3016339  22.9866781  44.4591763  46.3971925  10.5048774  56.4578204
  45.6205260  11.0642694  56.4481069  47.0362489  10.9905557  56.9793074
  54.1892706   7.2875567  50.2921181  53.5467086   7.5808100  49.6460975
  53.6847635   7.1728487  51.0974377  51.8432870  11.0338740  40.9807040
  52.7550726  11.2666127  40.8054737  51.3342517  11.6175784  40.4182119
  44.6518298  13.3134227  56.0196171  45.3932982  13.8519271  55.7430995
  43.9455283  13.9400516  56.1767723  50.1273637  15.4563368  54.6168333
  50.5356993  15.0145778  53.8722965  49.4050899  14.8815995  54.8702525
  46.4804707  10.3935975  51.9901889  47.3265903  10.8175388  52.1336538
  46.4203345   9.7369599  52.6840453  50.4502452  16.0164559  48.3720621
  49.8211315  16.1810273  47.6696689  50.0628114  16.4306168  49.1431585
  54.3291684  16.9518996  45.7264985  53.6442722  17.3317898  45.1762018
  54.4135533  17.5614323  46.4596933  49.6304153   8.0540343  53.6483063
  49.3865085   8.8082404  53.1117339  49.9064083   8.4325691  54.4830310
  51.5842616  14.5978955  52.3260329  51.7959511  15.2410715  51.6494710
  51.5372364  13.7641272  51.8582259  49.1868845   7.2096776  49.2296901
  48.3253324   7.5078030  49.5213638  49.2131279   7.4267175  48.2977933
  46.0030414  15.7538967  45.6370707  46.4668759  16.0326670  44.8475329
  45.7387212  14.8522411  45.4543797  42.8954495  15.3010448  48.5750470
  43.4655852  15.7297717  47.9367954  43.4862607  15.0193033  49.2734655
  44.9399300  11.8762119  42.4460272  45.6423343  12.3283163  42.9134198
  44.6079929  11.2345938  43.0740165  43.3879662  10.4673876  56.8211481
  42.7578322  11.1490157  57.0546878  43.2815749  10.3556957  55.8764619
  38.6824634  10.1345672  47.7477405  37.8923688  10.3903200  47.2717516
  39.1735881  10.9494010  47.8529446  52.6988444  17.4750911  50.4982686
  53.5205887  17.0731098  50.2165368  52.6950846  17.3719145  51.4498802
  40.6339379  10.4990251  44.7060882  39.8370543  10.6108945  45.2244378
  40.4064972  10.8376903  43.8401772  46.4645047  17.0234954  52.6543397
  46.5289479  17.4855361  53.4901568  45.7555971  16.3932319  52.7825706
  36.9662337  10.3876162  50.1792396  37.2170375  11.2723172  50.4449972
  37.5021885  10.2080764  49.4067488  60.7894437  13.8189659  46.8467657
  60.0358145  13.2497057  46.6911662  60.9241978  13.7852324  47.7938292
  46.1793065  18.6903062  42.5222377  46.0438739  19.5354597  42.9507225
  46.7202877  18.8922339  41.7588311  42.6660404   4.7694642  59.1836732
  42.2727350   4.2160840  59.8584376  43.4826545   5.0805220  59.5743250
  39.6322462  16.2078500  43.0950302  40.1446983  17.0021750  43.2455867
  40.2845175  15.5104790  43.0283903  41.4417347  19.3244256  45.1773055
  41.6183975  20.2462221  44.9894039  42.2374180  19.0102675  45.6067435
  45.5828365   6.1852521  56.7756989  46.3238079   6.7859674  56.6961451
  45.8146288   5.4430158  56.2175031  40.7269703  11.3708888  55.0535218
  40.6123218  10.4694145  55.3542317  39.8714221  11.6172585  54.7020035
  47.8061541  19.3126628  56.6522719  47.3625395  18.5263007  56.3343623
  48.4678755  19.5005779  55.9866610  42.5648662  20.8422430  51.1783397
  43.1156087  20.7139493  50.4060391  41.7260138  21.1417319  50.8278290
  49.9042779  19.5929428  54.6804120  49.8861254  20.4138309  54.1884389
  50.8262699  19.4683503  54.9054261  46.3615833  17.1073558  55.5227629
  46.8944170  16.3461846  55.2926937  45.8329914  16.8147209  56.2651783
  49.5285528   2.2133624  51.0521270  49.1849798   3.1035265  50.9760381
  49.8964491   2.0235281  50.1890855  37.5971379  14.5367154  43.8709872
  38.4346601  14.9464162  43.6543580  37.7749647  13.5966596  43.8410066
  49.4935811  12.2042235  39.5593705  48.9782434  12.9746839  39.7982093
  49.2213119  11.5307371  40.1826767  47.0782922   7.0491935  44.6178944
  46.2224518   6.6598786  44.4384583  47.4909874   7.1283896  43.7578729
  48.6082069   4.5838279  49.0170504  48.1046864   4.5468414  48.2038309
  48.9012675   5.4931021  49.0767160  44.8524954   4.6677008  48.0236685
  45.7177951   4.4719817  47.6642575  44.9202463   4.4387360  48.9506042
  54.4670085  14.9574589  41.4946879  53.6899528  14.6185749  41.0502041
  55.1461566  14.9627212  40.8201844  49.2822114  10.0769327  41.3853487
  48.9772250  10.3915476  42.2363630  50.2352556  10.1550747  41.4280820
  47.7268546  16.2359550  43.0346441  47.1989908  15.5012310  42.7219678
  47.2256049  17.0134226  42.7886409  52.7061392  14.4308571  48.1513487
  52.0485066  15.1207832  48.2393616  53.5101791  14.8205002  48.4947473
  42.4587274   6.8979216  45.3953052  43.0331025   6.6754398  44.6626245
  43.0458256   6.9667911  46.1481653  51.5166851  12.7852943  46.2017429
  52.0298733  13.4182935  46.7039138  52.1668075  12.1854139  45.8360789
  42.7856861   8.9283677  39.4148937  41.9494173   9.2658364  39.7358212
  42.6461630   8.7932657  38.4776074  44.7609941   3.7720465  44.1228122
  44.1074354   3.4569482  43.4984736  44.7190415   3.1496206  44.8487944
  45.8721146  14.0539760  36.0381414  44.9648208  13.8229014  36.2372563
  46.3692178  13.2577380  36.2255395  48.7789225  22.7637268  38.9578100
  48.1050924  23.0668964  39.5663058  49.1655047  23.5666348  38.6083557
  47.9947682  10.2602399  48.4475769  47.0770243  10.4817346  48.2897457
  48.4107825  10.3348709  47.5887477  48.7782729  11.6593814  43.5778449
  49.5254548  12.1715212  43.2685571  49.0474319  11.3377867  44.4382843
  47.0509380  14.1552355  40.5605404  46.1420599  13.8711388  40.6577873
  47.0804463  14.5751434  39.7008711  52.2828647  17.7658945  44.3296571
  51.8290974  16.9249855  44.3861762  51.6522614  18.4020343  44.6671351
  51.2261567   8.6950931  45.5597239  50.4884323   8.1828317  45.8907481
  51.4788340   8.2551312  44.7480516  50.7261586  19.6035441  45.2646389
  51.0184561  20.1640498  44.5458755  51.2360207  19.8964002  46.0199549
  51.3273194   1.4727183  46.1539008  51.6332071   0.6124546  45.8664923
  52.0525799   2.0644803  45.9538002  37.6197550  11.8757869  44.5420606
  37.4221950  11.2827230  43.8171672  37.0644214  11.5710079  45.2596545
  45.5994274  11.7680976  46.6615199  45.6542883  10.8154812  46.5857676
  44.7885476  11.9240415  47.1456497  46.7485467  15.6961099  37.8993482
  46.3104897  14.9796958  37.4399120  47.4895908  15.9237214  37.3378574
  43.5386634  10.3858036  44.4205578  42.7254499  10.6852206  44.8270770
  44.0345628   9.9913724  45.1380060  45.6895211  20.3815792  46.3539843
  45.6471390  20.6076639  45.4248375  46.6057910  20.1479167  46.5025644
  49.1360845  10.8499860  53.2520472  49.4910233  11.0771333  54.1114938
  49.7832976  11.1818237  52.6297727  54.8658582  13.9718296  43.9569801
  54.7276481  14.1619892  43.0290990  54.5094801  14.7337679  44.4137852
  43.0300708   7.9576391  50.0366813  43.6700088   7.8165150  49.3389776
  42.1978239   7.6710904  49.6605415  54.8927962  16.0394823  48.9681072
  55.3264468  15.9470112  49.8164126  55.6059542  16.0152323  48.3301088
  43.8061012  17.2578821  46.1501805  44.6001611  16.7629142  45.9484380
  43.0952705  16.7296685  45.7869511  48.6255857  19.6396917  50.5014173
  48.6792879  20.2087853  51.2691889  47.7570638  19.8098802  50.1368210
  40.1143776  11.4021903  42.2261558  39.1841364  11.3406359  42.4431520
  40.2101248  10.8797856  41.4298199  40.0329325   7.9276716  44.8139800
  40.2936142   8.8422049  44.7048960  40.8546497   7.4601159  44.9636413
  41.5054250   9.3414473  51.9838624  42.1777303   9.1331835  51.3351273
  40.6784037   9.1436559  51.5443857  55.7543511  16.0818524  51.5013958
  55.9479401  16.9864334  51.7473233  55.6544129  15.6225943  52.3352543
  47.4079822   5.9676414  54.0004285  46.7607737   6.6666364  53.9068762
  48.1780837   6.4012558  54.3680533  50.8158620  16.2325266  57.0754838
  50.6644126  16.0035818  56.1584922  50.8063299  17.1895868  57.0886183
  47.5843956  13.8057179  52.0601105  48.5136016  13.9568339  51.8870072
  47.1634986  13.8941200  51.2049751  46.3832288  17.8307843  49.8299642
  46.2443374  17.4626628  50.7025581  45.5946884  18.3455483  49.6583600
  46.9780440  22.9316940  41.1725179  47.1532196  22.4604983  41.9870802
  46.2913228  23.5582706  41.4006440  47.9337503  17.2089446  47.2188480
  47.5987336  17.1690216  48.1146130  47.4341449  16.5434162  46.7458890
  41.9081747  12.6157076  52.7441061  41.7701545  11.8837315  53.3452600
  42.8186671  12.5265976  52.4625249  50.8696695  14.5545481  37.4925540
  50.2525866  13.8292309  37.3958593  50.4013183  15.3154841  37.1492614
  44.5364048  12.3277036  52.2324741  45.2463666  11.6870228  52.1911359
  44.4933356  12.5789930  53.1550922  52.5250827  19.2644389  55.1531320
  52.4663373  18.5803609  54.4861903  52.9270345  20.0063379  54.7011946
  43.2492982   9.3142253  54.0520381  42.7130339   8.8632992  54.7041977
  42.6609690   9.4488162  53.3090845  41.5441525  26.0806303  47.9465039
  41.7838124  26.7124827  48.6244058  40.7010722  25.7294343  48.2330398
  42.6595241   8.7730905  36.6146844  41.7824707   8.6519706  36.2509091
  43.1352994   7.9816983  36.3625733  52.5268234  17.2283973  53.3845300
  51.6395013  16.8909895  53.5071699  53.0966785  16.4967004  53.6214065
  34.1797381  13.5608065  46.7088351  34.8668421  13.2469795  46.1209367
  34.0245510  14.4649429  46.4355603  38.9832103   8.4498261  51.1373375
  38.8990292   7.8423931  50.4023785  38.1614810   8.9407279  51.1382871
  46.0569387  21.8885425  50.3506543  45.9839559  22.6940397  50.8625848
  45.6146780  22.0877391  49.5254565  45.8459167  21.1257195  43.8609365
  45.0626689  21.6678875  43.9547589  46.5451912  21.6431175  44.2603606
  49.1555817   6.9351825  46.5043570  49.6524517   6.1821787  46.1844640
  48.3842799   6.9716141  45.9386779  57.0085574  12.6392190  48.1461862
  56.9975451  13.5216906  47.7755795  56.1402954  12.2863741  47.9516399
  48.5168071  21.7872259  52.5064702  49.2296043  22.4219724  52.4340603
  48.0258099  21.8836125  51.6904704  50.2385598  15.6923512  44.0781993
  49.3041876  15.8124974  43.9086698  50.4162266  14.7895979  43.8142003
  45.7390786   9.0769208  46.2315255  45.3688573   8.5240248  46.9196160
  46.2349878   8.4727341  45.6790255  53.6258149  11.5340831  44.6132028
  54.0918601  12.3668823  44.5392330  54.0765650  11.0685813  45.3177286
  43.5679984  19.5366703  53.3270273  44.2689444  20.1703186  53.4799667
  43.0975099  19.8781434  52.5665912  51.6934380  17.8784652  41.6118180
  51.9694224  17.7641247  42.5212054  50.8238879  17.4802137  41.5730353
  51.5974812   3.9021418  48.6522929  50.6837892   4.1325645  48.8205136
  52.0267913   3.9859862  49.5036961  51.3681270  12.0911310  51.1522823
  50.7152721  12.3387218  50.4975276  51.7461650  11.2775448  50.8185300
  48.3288444  22.1271003  45.2550993  48.5110839  21.3092659  45.7178746
  49.1521430  22.3438696  44.8175883  48.6630610  21.0539188  42.5166042
  49.1918376  20.5431643  41.9036204  48.9258829  20.7381719  43.3811575
  47.4168843  12.8331121  57.6388860  46.7409480  12.7325250  58.3091235
  48.2396477  12.6770335  58.1024857  39.1647702  19.0703058  50.2601375
  39.7501139  18.3246746  50.3929279  38.9672541  19.3807014  51.1438039
  42.0186358  22.1054305  45.2763818  41.3496733  22.5900433  44.7927858
  41.8799227  22.3523526  46.1907196  33.7565357  11.6408658  48.9805818
  33.7949457  11.1072249  49.7742937  33.2505650  11.1143863  48.3616796
  46.1591626  24.1398049  51.8746476  46.7109934  24.3029670  52.6395561
  46.4997820  24.7302486  51.2026501  41.1356119   6.4873198  52.4768361
  41.1997446   7.3488029  52.0645758  41.0723240   5.8747200  51.7440719
  40.6108392   8.5596331  56.1241395  41.2380431   8.1773408  56.7378919
  39.7536311   8.3410533  56.4897087  51.0102501  18.9659306  57.7295130
  51.5542405  19.5789264  57.2350085  50.4289345  19.5238885  58.2462143
  37.3873935  10.3672760  42.0559750  37.6827376   9.4583438  42.0026804
  36.4861970  10.3460499  41.7340752  49.2960013  22.0880024  48.8610158
  49.1711153  21.2869764  48.3521104  49.9539105  22.5826217  48.3724128
  40.9168182   8.4428757  48.0387298  40.1954767   9.0564724  47.8994772
  41.7061437   8.9786521  47.9603944  51.3594922  19.8889044  50.4889708
  50.4125257  19.7694395  50.4168035  51.7077695  19.0011542  50.5715970
  43.7194495   5.7783183  54.3127950  44.2428897   6.0245480  55.0754259
  43.5006829   6.6103218  53.8931088  39.1161776   8.0486858  42.1799075
  38.7874482   7.1684237  41.9974181  39.4701147   7.9934526  43.0675464
  48.3641355  19.6841760  46.6894060  48.2166318  18.7558468  46.8701631
  49.1894849  19.7061851  46.2051136  42.2303599   8.3359828  42.5474553
  42.5699672   8.8645749  41.8253161  42.6775720   8.6740234  43.3233119
  51.9675477  20.5070319  47.7758933  52.8922024  20.3013180  47.6383384
  51.7990780  20.2586720  48.6848275  44.9247040   6.7196878  51.9977621
  44.5843861   5.9204691  52.3998301  44.2186047   7.0198589  51.4254454
  45.5763512   3.8046191  50.4504944  46.3989581   3.3306669  50.3283834
  45.8201576   4.5836674  50.9503630  44.2171747   6.8334449  40.7467845
  44.9380109   7.2115702  40.2431562  43.5937051   7.5523326  40.8502823
  48.3602869   7.5379598  41.6826178  48.5766484   8.4204236  41.3815006
  47.8796937   7.1465811  40.9531820  43.1002091  10.4965311  48.2596922
  42.9546672  10.8105614  49.1521204  42.6227295  11.1150212  47.7067821
  44.9598474   7.4867859  48.3077812  44.9460043   6.5908953  47.9710110
  45.6770902   7.4938523  48.9416098  46.8124604   7.9205199  50.3530939
  46.5542382   8.8422270  50.3515270  46.2809645   7.5235634  51.0431403
  51.7570793  21.0255987  43.1321025  51.9307671  20.4602409  42.3794877
  52.2499684  21.8256881  42.9500515  37.5747753  13.0370656  51.1984584
  37.0301221  13.8130464  51.3304858  38.4527103  13.3841460  51.0403705
  44.3635370   6.3682240  43.5765382  44.4851281   5.4398886  43.7756270
  44.0737412   6.3820926  42.6643697  47.2326560   4.0537150  46.7132102
  47.2548257   4.1176483  45.7584081  47.6494619   3.2141659  46.9072608
  57.6110184  13.7892410  44.7511324  58.0541330  13.0399735  44.3530448
  56.7336695  13.7802546  44.3685056  52.7445966  20.3422751  40.2317923
  53.4396870  20.9629444  40.4505238  53.0869116  19.4918102  40.5070301
  38.3613775  12.1640552  54.0914740  37.6195511  12.3123187  54.6779371
  38.0406519  12.4248818  53.2281490  54.6437389  17.7922457  41.7605254
  55.1688713  18.1309729  41.0354574  54.5559741  16.8569472  41.5768388
  46.3057438  21.7056530  53.8895130  46.6144564  21.4605677  54.7617830
  47.1032920  21.9103169  53.4014001  46.3278050  23.8594440  46.1200507
  45.8883040  23.3670819  46.8133364  47.0786167  23.3167407  45.8792582
  38.8070389  20.0505981  46.1225135  39.6328408  19.7509753  45.7423779
  38.4564441  19.2813603  46.5714924  43.7751922  19.4032449  48.1922809
  43.1531931  18.7403154  47.8925036  44.4456789  19.4293581  47.5096456
  37.0078994  17.9692307  47.0814069  36.1710902  17.5414481  46.8998070
  36.9802639  18.1624750  48.0184860  43.8476449   7.8814237  57.7855315
  43.8964605   8.7576360  57.4033084  44.3898963   7.3391630  57.2126958
  54.3331295  18.4255360  57.0656452  53.5426839  18.4079499  56.5260951
  54.0964649  18.9643654  57.8205488  54.4529170  15.2747827  54.3789180
  54.5027175  15.1097834  55.3204703  54.3443093  14.4075086  53.9887061
  43.3365429  17.9536372  41.6681269  43.4853549  18.6371837  41.0147942
  44.1431872  17.9341462  42.1830725  51.7432932  11.2578755  55.6948487
  52.6442795  11.1185219  55.4032485  51.8180907  11.4233209  56.6346664
  46.0775738   8.6345609  54.5401673  45.2079047   8.9279175  54.2684262
  46.3135218   9.2186054  55.2608937  55.9547367  17.6944768  54.6231202
  55.6632175  18.0574749  55.4594663  55.3419498  16.9811776  54.4444534
  57.1543049  15.2597648  47.1433772  57.9889940  15.6987452  47.3071332
  57.2902178  14.7836301  46.3242018  54.2034555  12.8177383  53.0911260
  54.6788677  13.0105029  52.2830111  53.2800120  12.8736569  52.8454643
  41.0918062  13.9801550  42.6742338  40.8464104  13.0763880  42.8722548
  41.2613976  13.9818700  41.7321816  48.7814772   4.8525226  52.0567094
  49.2996715   5.5886253  51.7313582  48.4269904   5.1589220  52.8913853
  40.3613709   9.7129907  40.1728500  39.6682954   9.7874262  39.5168535
  40.1165461   8.9490251  40.6950016  49.0327366   1.2725509  47.5767990
  49.3129119   0.6048698  48.2028417  49.8177973   1.4654604  47.0642654
  46.8360834  20.4484503  39.1393017  46.2634801  21.0674690  38.6863488
  47.4093628  20.9983864  39.6732939  52.9036224   9.6943143  51.3239565
  53.8553647   9.7941240  51.3451789  52.7339674   8.9021411  51.8337650
  50.9250603   6.7798726  51.5098966  50.3300536   7.0603739  50.8145455
  50.6400300   7.2692627  52.2815707  50.0558094  20.7321653  40.2701599
  50.9888767  20.6667214  40.4734474  49.9681307  21.5677920  39.8116132
  52.6846111  20.0487523  37.2305546  52.6059742  19.7147387  38.1241304
  53.5055777  20.5409291  37.2297019  55.3824302  12.9149262  50.4381865
  55.3500622  11.9765263  50.6241549  55.9924925  12.9933299  49.7047690
  47.2207633  11.7845315  36.4809069  48.1666737  11.6551524  36.5497487
  46.8421878  11.0459977  36.9578497  55.5318790   9.7060306  50.4840148
  55.0157839   8.9218763  50.2970077  56.4158739   9.3779023  50.6486668
  53.1929517   3.4501321  46.4435961  52.9954338   3.1416410  47.3279293
  53.8029223   4.1762960  46.5733891  61.2000852  13.9765269  49.5787902
  61.9304240  13.7150557  50.1395605  60.5907797  13.2393991  49.6189970
  59.2816149  12.1173132  50.1762353  58.5549312  11.9829097  49.5678845
  58.8663436  12.4249961  50.9819071  47.1046325  15.8363062  57.9409726
  48.0249335  16.0141661  58.1349773  47.0695908  14.8919107  57.7889425
  45.4050550   9.7095292  36.4163954  44.4982005   9.4128405  36.4926668
  45.6826531   9.4125110  35.5498241  36.3228490  11.0301655  46.8663001
  36.0031275  10.1766963  46.5737375  35.7761918  11.2450233  47.6220968
  40.1008398  13.7464096  50.5832507  40.3194408  14.6781204  50.6020541
  40.5134172  13.3872071  51.3687311  47.0212616   4.2532182  42.5708196
  46.2113344   3.9079267  42.9463442  47.7097032   3.9439725  43.1595807
  48.9503164   3.3310228  44.1932492  49.5034202   3.7505682  44.8522515
  49.1873250   2.4045976  44.2355448  44.9736263   9.3197302  59.9735256
  44.8732990  10.2691659  59.9047347  44.7557805   8.9915541  59.1011326
  44.1749334   6.5682227  36.5575933  45.0368498   6.8937125  36.8171751
  44.3599679   5.7813723  36.0448999  36.1916750  14.6504567  48.8356122
  35.4980222  14.2358520  48.3226077  36.9389741  14.6925103  48.2389541
  52.3281971   5.4410754  43.7011156  51.7480640   6.0995558  43.3189209
  52.0617904   4.6188098  43.2898574  50.7785537   4.8415811  45.9032477
  51.2785316   4.9532346  45.0946796  51.4221145   4.5376864  46.5433285
  44.8367533  12.7494441  58.7900318  44.3534615  13.5494801  58.9964207
  44.9228472  12.7602386  57.8367762  38.1053493  14.5822821  46.7122137
  38.0824181  14.6810508  45.7604020  38.4154129  15.4287971  47.0339303
  40.7640871  16.6398976  50.8268752  41.7184124  16.6082918  50.7598683
  40.5653394  16.1789599  51.6418977  41.3540253  15.2100092  53.3939549
  42.1733142  15.7044170  53.4174387  41.6277060  14.2932060  53.3657117
  51.1106849   7.6010844  42.7567505  50.2232704   7.8860495  42.5387700
  51.5260838   7.4404607  41.9094782  54.4621385   7.6257365  46.4721844
  55.2381775   8.1153817  46.7446461  53.7369519   8.0515419  46.9293714
  56.8993944   8.3384984  47.5295785  57.4938435   8.0980720  46.8189093
  56.9720527   7.6192115  48.1569321  39.1191099  22.1818595  47.8438949
  38.9845567  21.4218996  47.2776947  38.7023162  22.9059495  47.3767738
  50.2550062  17.3655519  36.8515525  50.9585913  17.5705521  37.4673180
  49.5312711  17.9332280  37.1164608  51.0847873  13.1165380  42.9717795
  51.0283074  13.5733931  42.1325427  51.6376215  12.3556064  42.7940638
  54.8952679   8.9055112  43.7967914  54.6389613   8.5051747  44.6276122
  54.2705547   9.6198906  43.6718054  59.2065016  11.6451185  46.3039206
  58.6464574  11.7144374  47.0770768  58.6008520  11.4692170  45.5838702
  42.2760225  23.0787912  48.0557392  42.1592609  24.0233345  47.9536082
  41.4552672  22.7761474  48.4443191  52.1636760  17.8038048  38.9013985
  52.9982364  17.3719246  38.7191460  52.0021103  17.6320061  39.8290879
  51.8182652  14.3070161  40.2670324  51.7631456  14.1414433  39.3258768
  51.1928707  15.0146194  40.4232514  36.6075167   9.5438225  54.0931746
  37.2534031   9.0337179  54.5818971  36.3992318  10.2806907  54.6675172
  49.1328559  16.6119073  59.5923887  50.0019719  16.7859725  59.2310522
  48.6535311  17.4313490  59.4699616  45.1278777   3.8078270  39.8455642
  45.1157447   4.7520110  40.0023913  46.0202199   3.6248415  39.5515104
  43.3014739  23.7316174  51.2713321  44.2041986  23.7639784  51.5879815
  43.0752109  22.8016625  51.2859656  45.0568341  22.4847160  47.9323399
  44.1063972  22.4849022  47.8187771  45.3600828  21.7379895  47.4159434
  48.9430897   0.4021047  44.1001579  48.1763293  -0.1520467  44.2458262
  49.3541602   0.4742915  44.9615731  40.9472658   6.6905843  58.1906761
  41.8104120   6.3342647  58.4010085  40.3738069   6.3519737  58.8782165
  60.7921035  28.3207699  48.9969162  61.4299445  28.2014446  48.2932502
  60.6741878  29.2688543  49.0557114  57.6010741  28.2735127  48.9330686
  57.2629253  28.1576192  48.0451221  58.4700509  27.8726292  48.9131692
  53.4597557  30.1270603  44.9227577  52.8962422  30.0360540  44.1543865
  53.3449952  29.3070508  45.4030070  58.0830524  29.4269979  54.8916892
  58.0719165  29.0322777  54.0197395  58.2451164  28.6936051  55.4850663
  51.0061989  31.6221795  47.7611798  51.7983281  31.2812620  47.3458097
  51.2458639  31.7316770  48.6813951  59.0397116  33.7941571  40.2342042
  58.3885095  34.3795652  39.8476056  59.8341478  34.3247766  40.2937080
  52.9652743  30.8830708  40.6329176  53.7383619  30.3359695  40.4942052
  53.3178142  31.7474958  40.8443638  54.8037785  32.2107091  53.8396076
  54.5127651  33.1152721  53.7242742  55.4394770  32.2523618  54.5540145
  55.7293992  29.5883939  50.4297435  56.3257564  29.3639961  49.7154398
  55.7868964  28.8468685  51.0322883  55.3019021  27.0423374  38.2647626
  55.5544541  26.5204896  37.5031089  54.3643580  26.8789520  38.3674310
  60.3462303  26.0459153  46.0722370  61.1325393  25.6278576  45.7212787
  60.6101008  26.9505245  46.2404018  60.5172381  31.4832003  40.7711026
  59.8818214  31.5566630  41.4831931  60.1869787  32.0725602  40.0930106
  65.7470731  25.9834386  46.9755348  66.4795902  25.4133603  47.2093178
  64.9910086  25.5955986  47.4161854  55.0215309  28.9451480  40.4672001
  54.9051567  28.2696384  41.1353086  55.1317569  28.4583854  39.6504154
  57.3646850  28.4061627  44.1718691  57.0005057  27.8792248  44.8831612
  58.2213966  28.0160096  43.9985176  63.2696151  19.6955960  51.4349957
  62.9379476  20.5651371  51.2111172  62.6741764  19.3792244  52.1143987
  57.0052337  23.4351527  39.1680039  57.1726740  24.3031764  39.5350510
  56.8149506  23.5978809  38.2441328  59.7627670  31.8968506  50.8345869
  59.4628393  32.7993545  50.7261677  59.4178730  31.6300689  51.6867022
  53.2140152  28.3482303  46.8682574  52.2890648  28.2158517  47.0760266
  53.4624565  29.1276522  47.3652516  63.1624814  24.4151046  48.5143307
  62.2541692  24.3466455  48.2202068  63.1112410  24.8922991  49.3425132
  56.9841558  25.8909185  40.1526706  56.8641183  26.3366235  40.9912186
  56.2894146  26.2394502  39.5940244  50.5748963  27.9915576  47.7026363
  50.7041344  28.2450055  48.6165775  49.8946414  28.5843284  47.3831018
  54.7448450  38.6612826  43.8016837  54.6672480  39.6120651  43.8805318
  54.1410094  38.3158699  44.4591763  57.2365680  25.8340692  56.4578204
  56.4599014  26.3934612  56.4481069  57.8756243  26.3197475  56.9793074
  65.0286461  22.6167485  50.2921181  64.3860841  22.9100018  49.6460975
  64.5241389  22.5020405  51.0974377  62.6826624  26.3630658  40.9807040
  63.5944480  26.5958045  40.8054737  62.1736271  26.9467702  40.4182119
  55.4912052  28.6426145  56.0196171  56.2326737  29.1811189  55.7430995
  54.7849038  29.2692434  56.1767723  60.9667392  30.7855286  54.6168333
  61.3750748  30.3437696  53.8722965  60.2444653  30.2107913  54.8702525
  57.3198462  25.7227892  51.9901889  58.1659657  26.1467306  52.1336538
  57.2597100  25.0661517  52.6840453  61.2896207  31.3456476  48.3720621
  60.6605069  31.5102190  47.6696689  60.9021869  31.7598086  49.1431585
  65.1685438  32.2810914  45.7264985  64.4836477  32.6609815  45.1762018
  65.2529288  32.8906241  46.4596933  60.4697907  23.3832261  53.6483063
  60.2258839  24.1374321  53.1117339  60.7457838  23.7617608  54.4830310
  62.4236370  29.9270873  52.3260329  62.6353265  30.5702633  51.6494710
  62.3766118  29.0933190  51.8582259  60.0262599  22.5388694  49.2296901
  59.1647078  22.8369947  49.5213638  60.0525034  22.7559093  48.2977933
  56.8424168  31.0830884  45.6370707  57.3062514  31.3618587  44.8475329
  56.5780967  30.1814329  45.4543797  53.7348250  30.6302366  48.5750470
  54.3049607  31.0589634  47.9367954  54.3256361  30.3484951  49.2734655
  55.7793055  27.2054037  42.4460272  56.4817098  27.6575080  42.9134198
  55.4473683  26.5637856  43.0740165  54.2273416  25.7965793  56.8211481
  53.5972077  26.4782074  57.0546878  54.1209504  25.6848875  55.8764619
  49.5218388  25.4637589  47.7477405  48.7317442  25.7195118  47.2717516
  50.0129636  26.2785927  47.8529446  63.5382198  32.8042829  50.4982686
  64.3599642  32.4023016  50.2165368  63.5344601  32.7011063  51.4498802
  51.4733134  25.8282169  44.7060882  50.6764297  25.9400863  45.2244378
  51.2458726  26.1668821  43.8401772  57.3038801  32.3526872  52.6543397
  57.3683234  32.8147279  53.4901568  56.5949725  31.7224237  52.7825706
  47.8056091  25.7168080  50.1792396  48.0564130  26.6015090  50.4449972
  48.3415640  25.5372681  49.4067488  71.6288191  29.1481577  46.8467657
  70.8751899  28.5788975  46.6911662  71.7635732  29.1144242  47.7938292
  57.0186819  34.0194979  42.5222377  56.8832494  34.8646515  42.9507225
  57.5596632  34.2214257  41.7588311  53.5054159  20.0986559  59.1836732
  53.1121104  19.5452758  59.8584376  54.3220299  20.4097138  59.5743250
  50.4716217  31.5370417  43.0950302  50.9840737  32.3313668  43.2455867
  51.1238929  30.8396708  43.0283903  52.2811101  34.6536174  45.1773055
  52.4577730  35.5754138  44.9894039  53.0767935  34.3394593  45.6067435
  56.4222120  21.5144438  56.7756989  57.1631833  22.1151591  56.6961451
  56.6540043  20.7722076  56.2175031  51.5663458  26.7000806  55.0535218
  51.4516973  25.7986063  55.3542317  50.7107976  26.9464502  54.7020035
  58.6455296  34.6418546  56.6522719  58.2019150  33.8554924  56.3343623
  59.3072509  34.8297696  55.9866610  53.4042417  36.1714347  51.1783397
  53.9549842  36.0431411  50.4060391  52.5653893  36.4709236  50.8278290
  60.7436534  34.9221346  54.6804120  60.7255009  35.7430227  54.1884389
  61.6656454  34.7975421  54.9054261  57.2009588  32.4365475  55.5227629
  57.7337925  31.6753763  55.2926937  56.6723669  32.1439127  56.2651783
  60.3679283  17.5425541  51.0521270  60.0243552  18.4327183  50.9760381
  60.7358245  17.3527199  50.1890855  48.4365133  29.8659072  43.8709872
  49.2740355  30.2756080  43.6543580  48.6143401  28.9258514  43.8410066
  60.3329565  27.5334152  39.5593705  59.8176189  28.3038757  39.7982093
  60.0606874  26.8599288  40.1826767  57.9176676  22.3783853  44.6178944
  57.0618273  21.9890703  44.4384583  58.3303628  22.4575814  43.7578729
  59.4475823  19.9130196  49.0170504  58.9440619  19.8760332  48.2038309
  59.7406430  20.8222939  49.0767160  55.6918709  19.9968926  48.0236685
  56.5571706  19.8011735  47.6642575  55.7596218  19.7679278  48.9506042
  65.3063840  30.2866507  41.4946879  64.5293282  29.9477666  41.0502041
  65.9855321  30.2919130  40.8201844  60.1215869  25.4061244  41.3853487
  59.8166004  25.7207394  42.2363630  61.0746311  25.4842664  41.4280820
  58.5662300  31.5651468  43.0346441  58.0383662  30.8304227  42.7219678
  58.0649803  32.3426144  42.7886409  63.5455146  29.7600488  48.1513487
  62.8878821  30.4499750  48.2393616  64.3495546  30.1496920  48.4947473
  53.2981028  22.2271134  45.3953052  53.8724780  22.0046316  44.6626245
  53.8852010  22.2959829  46.1481653  62.3560605  28.1144861  46.2017429
  62.8692487  28.7474853  46.7039138  63.0061829  27.5146056  45.8360789
  53.6250615  24.2575595  39.4148937  52.7887927  24.5950282  39.7358212
  53.4855385  24.1224575  38.4776074  55.6003696  19.1012383  44.1228122
  54.9468108  18.7861400  43.4984736  55.5584170  18.4788123  44.8487944
  56.7114901  29.3831678  36.0381414  55.8041962  29.1520931  36.2372563
  57.2085933  28.5869297  36.2255395  59.6182979  38.0929185  38.9578100
  58.9444678  38.3960882  39.5663058  60.0048801  38.8958266  38.6083557
  58.8341436  25.5894316  48.4475769  57.9163997  25.8109263  48.2897457
  59.2501580  25.6640627  47.5887477  59.6176484  26.9885732  43.5778449
  60.3648303  27.5007129  43.2685571  59.8868073  26.6669785  44.4382843
  57.8903134  29.4844273  40.5605404  56.9814353  29.2003306  40.6577873
  57.9198218  29.9043351  39.7008711  63.1222401  33.0950862  44.3296571
  62.6684729  32.2541772  44.3861762  62.4916368  33.7312261  44.6671351
  62.0655321  24.0242848  45.5597239  61.3278078  23.5120235  45.8907481
  62.3182095  23.5843230  44.7480516  61.5655341  34.9327359  45.2646389
  61.8578315  35.4932416  44.5458755  62.0753961  35.2255920  46.0199549
  62.1666948  16.8019100  46.1539008  62.4725825  15.9416464  45.8664923
  62.8919553  17.3936721  45.9538002  48.4591304  27.2049787  44.5420606
  48.2615704  26.6119148  43.8171672  47.9037968  26.9001997  45.2596545
  56.4388028  27.0972893  46.6615199  56.4936638  26.1446730  46.5857676
  55.6279230  27.2532333  47.1456497  57.5879222  31.0253017  37.8993482
  57.1498652  30.3088875  37.4399120  58.3289663  31.2529131  37.3378574
  54.3780388  25.7149953  44.4205578  53.5648254  26.0144124  44.8270770
  54.8739382  25.3205642  45.1380060  56.5288966  35.7107710  46.3539843
  56.4865145  35.9368556  45.4248375  57.4451665  35.4771085  46.5025644
  59.9754600  26.1791778  53.2520472  60.3303987  26.4063251  54.1114938
  60.6226731  26.5110154  52.6297727  65.7052337  29.3010214  43.9569801
  65.5670235  29.4911810  43.0290990  65.3488555  30.0629596  44.4137852
  53.8694463  23.2868309  50.0366813  54.5093842  23.1457068  49.3389776
  53.0371993  23.0002822  49.6605415  65.7321716  31.3686741  48.9681072
  66.1658223  31.2762030  49.8164126  66.4453297  31.3444241  48.3301088
  54.6454767  32.5870739  46.1501805  55.4395365  32.0921059  45.9484380
  53.9346459  32.0588602  45.7869511  59.4649611  34.9688835  50.5014173
  59.5186633  35.5379771  51.2691889  58.5964393  35.1390720  50.1368210
  50.9537530  26.7313821  42.2261558  50.0235118  26.6698276  42.4431520
  51.0495002  26.2089774  41.4298199  50.8723079  23.2568634  44.8139800
  51.1329896  24.1713967  44.7048960  51.6940252  22.7893076  44.9636413
  52.3448005  24.6706391  51.9838624  53.0171058  24.4623753  51.3351273
  51.5177791  24.4728477  51.5443857  66.5937266  31.4110441  51.5013958
  66.7873156  32.3156252  51.7473233  66.4937884  30.9517860  52.3352543
  58.2473577  21.2968332  54.0004285  57.6001492  21.9958281  53.9068762
  59.0174592  21.7304476  54.3680533  61.6552374  31.5617184  57.0754838
  61.5037881  31.3327736  56.1584922  61.6457054  32.5187785  57.0886183
  58.4237711  29.1349097  52.0601105  59.3529771  29.2860256  51.8870072
  58.0028741  29.2233118  51.2049751  57.2226043  33.1599761  49.8299642
  57.0837128  32.7918546  50.7025581  56.4340639  33.6747401  49.6583600
  57.8174195  38.2608858  41.1725179  57.9925950  37.7896901  41.9870802
  57.1306983  38.8874624  41.4006440  58.7731258  32.5381364  47.2188480
  58.4381090  32.4982134  48.1146130  58.2735203  31.8726080  46.7458890
  52.7475502  27.9448994  52.7441061  52.6095300  27.2129233  53.3452600
  53.6580425  27.8557894  52.4625249  61.7090449  29.8837398  37.4925540
  61.0919620  29.1584226  37.3958593  61.2406938  30.6446758  37.1492614
  55.3757802  27.6568953  52.2324741  56.0857421  27.0162145  52.1911359
  55.3327111  27.9081848  53.1550922  63.3644581  34.5936307  55.1531320
  63.3057127  33.9095527  54.4861903  63.7664100  35.3355297  54.7011946
  54.0886736  24.6434171  54.0520381  53.5524093  24.1924910  54.7041977
  53.5003445  24.7780080  53.3090845  52.3835280  41.4098220  47.9465039
  52.6231878  42.0416745  48.6244058  51.5404476  41.0586260  48.2330398
  53.4988995  24.1022822  36.6146844  52.6218462  23.9811623  36.2509091
  53.9746748  23.3108901  36.3625733  63.3661988  32.5575890  53.3845300
  62.4788767  32.2201812  53.5071699  63.9360539  31.8258922  53.6214065
  45.0191136  28.8899982  46.7088351  45.7062175  28.5761712  46.1209367
  44.8639264  29.7941347  46.4355603  49.8225858  23.7790179  51.1373375
  49.7384046  23.1715848  50.4023785  49.0008564  24.2699197  51.1382871
  56.8963142  37.2177343  50.3506543  56.8233313  38.0232314  50.8625848
  56.4540535  37.4169309  49.5254565  56.6852921  36.4549113  43.8609365
  55.9020443  36.9970793  43.9547589  57.3845667  36.9723092  44.2603606
  59.9949572  22.2643742  46.5043570  60.4918271  21.5113705  46.1844640
  59.2236553  22.3008059  45.9386779  67.8479329  27.9684108  48.1461862
  67.8369205  28.8508823  47.7755795  66.9796708  27.6155659  47.9516399
  59.3561825  37.1164177  52.5064702  60.0689798  37.7511642  52.4340603
  58.8651854  37.2128043  51.6904704  61.0779352  31.0215430  44.0781993
  60.1435631  31.1416892  43.9086698  61.2556021  30.1187896  43.8142003
  56.5784540  24.4061125  46.2315255  56.2082328  23.8532166  46.9196160
  57.0743633  23.8019259  45.6790255  64.4651904  26.8632749  44.6132028
  64.9312356  27.6960740  44.5392330  64.9159404  26.3977730  45.3177286
  54.4073739  34.8658620  53.3270273  55.1083198  35.4995103  53.4799667
  53.9368854  35.2073352  52.5665912  62.5328135  33.2076570  41.6118180
  62.8087979  33.0933165  42.5212054  61.6632633  32.8094055  41.5730353
  62.4368566  19.2313336  48.6522929  61.5231646  19.4617563  48.8205136
  62.8661668  19.3151780  49.5036961  62.2075025  27.4203228  51.1522823
  61.5546475  27.6679135  50.4975276  62.5855405  26.6067366  50.8185300
  59.1682199  37.4562921  45.2550993  59.3504593  36.6384577  45.7178746
  59.9915185  37.6730613  44.8175883  59.5024364  36.3831106  42.5166042
  60.0312131  35.8723561  41.9036204  59.7652584  36.0673636  43.3811575
  58.2562598  28.1623039  57.6388860  57.5803235  28.0617168  58.3091235
  59.0790232  28.0062253  58.1024857  50.0041457  34.3994975  50.2601375
  50.5894894  33.6538663  50.3929279  49.8066295  34.7098932  51.1438039
  52.8580112  37.4346223  45.2763818  52.1890487  37.9192350  44.7927858
  52.7192982  37.6815443  46.1907196  44.5959112  26.9700576  48.9805818
  44.6343211  26.4364166  49.7742937  44.0899404  26.4435781  48.3616796
  56.9985381  39.4689966  51.8746476  57.5503689  39.6321588  52.6395561
  57.3391574  40.0594404  51.2026501  51.9749874  21.8165116  52.4768361
  52.0391200  22.6779947  52.0645758  51.9116994  21.2039118  51.7440719
  51.4502146  23.8888249  56.1241395  52.0774185  23.5065326  56.7378919
  50.5930065  23.6702451  56.4897087  61.8496255  34.2951224  57.7295130
  62.3936159  34.9081182  57.2350085  61.2683100  34.8530802  58.2462143
  48.2267689  25.6964678  42.0559750  48.5221130  24.7875356  42.0026804
  47.3255725  25.6752417  41.7340752  60.1353768  37.4171942  48.8610158
  60.0104907  36.6161682  48.3521104  60.7932859  37.9118135  48.3724128
  51.7561936  23.7720674  48.0387298  51.0348522  24.3856642  47.8994772
  52.5455192  24.3078439  47.9603944  62.1988676  35.2180962  50.4889708
  61.2519012  35.0986313  50.4168035  62.5471449  34.3303460  50.5715970
  54.5588250  21.1075101  54.3127950  55.0822652  21.3537397  55.0754259
  54.3400583  21.9395136  53.8931088  49.9555531  23.3778775  42.1799075
  49.6268237  22.4976154  41.9974181  50.3094901  23.3226444  43.0675464
  59.2035110  35.0133678  46.6894060  59.0560072  34.0850386  46.8701631
  60.0288603  35.0353769  46.2051136  53.0697354  23.6651745  42.5474553
  53.4093426  24.1937666  41.8253161  53.5169474  24.0032151  43.3233119
  62.8069232  35.8362237  47.7758933  63.7315779  35.6305098  47.6383384
  62.6384535  35.5878638  48.6848275  55.7640795  22.0488796  51.9977621
  55.4237615  21.2496609  52.3998301  55.0579801  22.3490507  51.4254454
  56.4157267  19.1338108  50.4504944  57.2383336  18.6598587  50.3283834
  56.6595330  19.9128592  50.9503630  55.0565501  22.1626367  40.7467845
  55.7773864  22.5407620  40.2431562  54.4330805  22.8815244  40.8502823
  59.1996624  22.8671516  41.6826178  59.4160238  23.7496154  41.3815006
  58.7190691  22.4757729  40.9531820  53.9395845  25.8257229  48.2596922
  53.7940426  26.1397532  49.1521204  53.4621049  26.4442129  47.7067821
  55.7992228  22.8159777  48.3077812  55.7853797  21.9200870  47.9710110
  56.5164656  22.8230441  48.9416098  57.6518359  23.2497117  50.3530939
  57.3936137  24.1714188  50.3515270  57.1203399  22.8527552  51.0431403
  62.5964548  36.3547904  43.1321025  62.7701425  35.7894327  42.3794877
  63.0893439  37.1548799  42.9500515  48.4141508  28.3662573  51.1984584
  47.8694976  29.1422381  51.3304858  49.2920857  28.7133378  51.0403705
  55.2029124  21.6974157  43.5765382  55.3245035  20.7690803  43.7756270
  54.9131167  21.7112843  42.6643697  58.0720315  19.3829068  46.7132102
  58.0942011  19.4468401  45.7584081  58.4888374  18.5433576  46.9072608
  68.4503939  29.1184327  44.7511324  68.8935085  28.3691652  44.3530448
  67.5730449  29.1094464  44.3685056  63.5839720  35.6714669  40.2317923
  64.2790625  36.2921361  40.4505238  63.9262870  34.8210020  40.5070301
  49.2007529  27.4932470  54.0914740  48.4589265  27.6415105  54.6779371
  48.8800274  27.7540735  53.2281490  65.4831143  33.1214374  41.7605254
  66.0082467  33.4601647  41.0354574  65.3953496  32.1861390  41.5768388
  57.1451192  37.0348448  53.8895130  57.4538318  36.7897595  54.7617830
  57.9426674  37.2395086  53.4014001  57.1671804  39.1886357  46.1200507
  56.7276794  38.6962736  46.8133364  57.9179921  38.6459325  45.8792582
  49.6464143  35.3797898  46.1225135  50.4722163  35.0801670  45.7423779
  49.2958195  34.6105521  46.5714924  54.6145676  34.7324367  48.1922809
  53.9925686  34.0695072  47.8925036  55.2850543  34.7585498  47.5096456
  47.8472748  33.2984225  47.0814069  47.0104656  32.8706399  46.8998070
  47.8196394  33.4916668  48.0184860  54.6870204  23.2106155  57.7855315
  54.7358359  24.0868277  57.4033084  55.2292718  22.6683548  57.2126958
  65.1725049  33.7547278  57.0656452  64.3820593  33.7371417  56.5260951
  64.9358404  34.2935572  57.8205488  65.2922924  30.6039744  54.3789180
  65.3420929  30.4389752  55.3204703  65.1836848  29.7367003  53.9887061
  54.1759183  33.2828290  41.6681269  54.3247304  33.9663754  41.0147942
  54.9825627  33.2633380  42.1830725  62.5826687  26.5870672  55.6948487
  63.4836550  26.4477137  55.4032485  62.6574661  26.7525127  56.6346664
  56.9169492  23.9637527  54.5401673  56.0472802  24.2571093  54.2684262
  57.1528973  24.5477972  55.2608937  66.7941121  33.0236686  54.6231202
  66.5025930  33.3866666  55.4594663  66.1813253  32.3103694  54.4444534
  67.9936804  30.5889566  47.1433772  68.8283695  31.0279370  47.3071332
  68.1295932  30.1128219  46.3242018  65.0428310  28.1469300  53.0911260
  65.5182431  28.3396947  52.2830111  64.1193875  28.2028486  52.8454643
  51.9311816  29.3093468  42.6742338  51.6857858  28.4055798  42.8722548
  52.1007731  29.3110618  41.7321816  59.6208526  20.1817144  52.0567094
  60.1390470  20.9178171  51.7313582  59.2663659  20.4881137  52.8913853
  51.2007464  25.0421825  40.1728500  50.5076709  25.1166180  39.5168535
  50.9559216  24.2782169  40.6950016  59.8721120  16.6017426  47.5767990
  60.1522874  15.9340616  48.2028417  60.6571727  16.7946522  47.0642654
  57.6754589  35.7776420  39.1393017  57.1028556  36.3966608  38.6863488
  58.2487382  36.3275782  39.6732939  63.7429979  25.0235060  51.3239565
  64.6947401  25.1233158  51.3451789  63.5733429  24.2313329  51.8337650
  61.7644358  22.1090644  51.5098966  61.1694290  22.3895656  50.8145455
  61.4794055  22.5984545  52.2815707  60.8951848  36.0613571  40.2701599
  61.8282522  35.9959132  40.4734474  60.8075061  36.8969837  39.8116132
  63.5239865  35.3779441  37.2305546  63.4453497  35.0439304  38.1241304
  64.3449532  35.8701209  37.2297019  66.2218056  28.2441180  50.4381865
  66.1894376  27.3057181  50.6241549  66.8318680  28.3225217  49.7047690
  58.0601387  27.1137233  36.4809069  59.0060492  26.9843441  36.5497487
  57.6815632  26.3751895  36.9578497  66.3712545  25.0352224  50.4840148
  65.8551593  24.2510680  50.2970077  67.2552493  24.7070940  50.6486668
  64.0323272  18.7793239  46.4435961  63.8348093  18.4708327  47.3279293
  64.6422977  19.5054878  46.5733891  72.0394606  29.3057187  49.5787902
  72.7697995  29.0442475  50.1395605  71.4301552  28.5685909  49.6189970
  70.1209903  27.4465050  50.1762353  69.3943067  27.3121015  49.5678845
  69.7057190  27.7541878  50.9819071  57.9440080  31.1654979  57.9409726
  58.8643089  31.3433578  58.1349773  57.9089663  30.2211025  57.7889425
  56.2444304  25.0387210  36.4163954  55.3375760  24.7420322  36.4926668
  56.5220285  24.7417028  35.5498241  47.1622245  26.3593573  46.8663001
  46.8425029  25.5058881  46.5737375  46.6155673  26.5742151  47.6220968
  50.9402152  29.0756014  50.5832507  51.1588162  30.0073122  50.6020541
  51.3527926  28.7163988  51.3687311  57.8606370  19.5824099  42.5708196
  57.0507098  19.2371184  42.9463442  58.5490787  19.2731643  43.1595807
  59.7896918  18.6602146  44.1932492  60.3427957  19.0797599  44.8522515
  60.0267005  17.7337894  44.2355448  55.8130018  24.6489220  59.9735256
  55.7126744  25.5983577  59.9047347  55.5951560  24.3207459  59.1011326
  55.0143089  21.8974145  36.5575933  55.8762253  22.2229043  36.8171751
  55.1993433  21.1105641  36.0448999  47.0310505  29.9796484  48.8356122
  46.3373976  29.5650437  48.3226077  47.7783496  30.0217021  48.2389541
  63.1675725  20.7702671  43.7011156  62.5874394  21.4287475  43.3189209
  62.9011658  19.9480016  43.2898574  61.6179292  20.1707729  45.9032477
  62.1179070  20.2824263  45.0946796  62.2614900  19.8668782  46.5433285
  55.6761288  28.0786359  58.7900318  55.1928369  28.8786719  58.9964207
  55.7622227  28.0894303  57.8367762  48.9447247  29.9114738  46.7122137
  48.9217935  30.0102425  45.7604020  49.2547884  30.7579889  47.0339303
  51.6034625  31.9690893  50.8268752  52.5577879  31.9374836  50.7598683
  51.4047149  31.5081517  51.6418977  52.1934007  30.5392009  53.3939549
  53.0126896  31.0336088  53.4174387  52.4670815  29.6223977  53.3657117
  61.9500603  22.9302762  42.7567505  61.0626458  23.2152412  42.5387700
  62.3654593  22.7696525  41.9094782  65.3015140  22.9549283  46.4721844
  66.0775530  23.4445735  46.7446461  64.5763274  23.3807337  46.9293714
  67.7387698  23.6676902  47.5295785  68.3332189  23.4272638  46.8189093
  67.8114282  22.9484032  48.1569321  49.9584854  37.5110513  47.8438949
  49.8239322  36.7510914  47.2776947  49.5416916  38.2351413  47.3767738
  61.0943817  32.6947436  36.8515525  61.7979667  32.8997439  37.4673180
  60.3706466  33.2624198  37.1164608  61.9241627  28.4457298  42.9717795
  61.8676829  28.9025849  42.1325427  62.4769970  27.6847982  42.7940638
  65.7346433  24.2347029  43.7967914  65.4783367  23.8343665  44.6276122
  65.1099301  24.9490823  43.6718054  70.0458771  26.9743103  46.3039206
  69.4858329  27.0436292  47.0770768  69.4402274  26.7984087  45.5838702
  53.1153980  38.4079830  48.0557392  52.9986364  39.3525262  47.9536082
  52.2946426  38.1053391  48.4443191  63.0030514  33.1329965  38.9013985
  63.8376118  32.7011164  38.7191460  62.8414857  32.9611979  39.8290879
  62.6576406  29.6362079  40.2670324  62.6025210  29.4706350  39.3258768
  62.0322462  30.3438112  40.4232514  47.4468921  24.8730143  54.0931746
  48.0927785  24.3629097  54.5818971  47.2386073  25.6098825  54.6675172
  59.9722314  31.9410991  59.5923887  60.8413473  32.1151643  59.2310522
  59.4929065  32.7605407  59.4699616  55.9672532  19.1370188  39.8455642
  55.9551202  20.0812028  40.0023913  56.8595954  18.9540333  39.5515104
  54.1408494  39.0608092  51.2713321  55.0435741  39.0931702  51.5879815
  53.9145864  38.1308543  51.2859656  55.8962096  37.8139078  47.9323399
  54.9457727  37.8140940  47.8187771  56.1994582  37.0671813  47.4159434
  59.7824651  15.7312964  44.1001579  59.0157047  15.1771451  44.2458262
  60.1935356  15.8034833  44.9615731  51.7866412  22.0197760  58.1906761
  52.6497874  21.6634565  58.4010085  51.2131823  21.6811655  58.8782165
  71.6314789  43.6499617  48.9969162  72.2693199  43.5306364  48.2932502
  71.5135632  44.5980461  49.0557114  68.4404496  43.6027045  48.9330686
  68.1023007  43.4868109  48.0451221  69.3094264  43.2018210  48.9131692
  64.2991311  45.4562521  44.9227577  63.7356177  45.3652458  44.1543865
  64.1843706  44.6362426  45.4030070  68.9224279  44.7561896  54.8916892
  68.9112919  44.3614695  54.0197395  69.0844918  44.0227969  55.4850663
  61.8455743  46.9513713  47.7611798  62.6377035  46.6104537  47.3458097
  62.0852393  47.0608688  48.6813951  69.8790870  49.1233489  40.2342042
  69.2278850  49.7087569  39.8476056  70.6735233  49.6539684  40.2937080
  63.8046497  46.2122626  40.6329176  64.5777373  45.6651613  40.4942052
  64.1571896  47.0766875  40.8443638  65.6431540  47.5399008  53.8396076
  65.3521406  48.4444639  53.7242742  66.2788524  47.5815536  54.5540145
  66.5687747  44.9175857  50.4297435  67.1651319  44.6931879  49.7154398
  66.6262718  44.1760602  51.0322883  66.1412775  42.3715292  38.2647626
  66.3938296  41.8496813  37.5031089  65.2037334  42.2081437  38.3674310
  71.1856058  41.3751070  46.0722370  71.9719147  40.9570494  45.7212787
  71.4494762  42.2797163  46.2404018  71.3566135  46.8123921  40.7711026
  70.7211968  46.8858547  41.4831931  71.0263542  47.4017520  40.0930106
  76.5864485  41.3126304  46.9755348  77.3189657  40.7425520  47.2093178
  75.8303841  40.9247904  47.4161854  65.8609064  44.2743398  40.4672001
  65.7445322  43.5988301  41.1353086  65.9711324  43.7875772  39.6504154
  68.2040605  43.7353545  44.1718691  67.8398812  43.2084166  44.8831612
  69.0607721  43.3452014  43.9985176  74.1089905  35.0247878  51.4349957
  73.7773230  35.8943289  51.2111172  73.5135519  34.7084162  52.1143987
  67.8446092  38.7643445  39.1680039  68.0120494  39.6323681  39.5350510
  67.6543261  38.9270726  38.2441328  70.6021425  47.2260424  50.8345869
  70.3022148  48.1285463  50.7261677  70.2572484  46.9592607  51.6867022
  64.0533906  43.6774221  46.8682574  63.1284403  43.5450435  47.0760266
  64.3018320  44.4568440  47.3652516  74.0018569  39.7442964  48.5143307
  73.0935446  39.6758372  48.2202068  73.9506164  40.2214909  49.3425132
  67.8235313  41.2201102  40.1526706  67.7034938  41.6658153  40.9912186
  67.1287901  41.5686420  39.5940244  61.4142717  43.3207494  47.7026363
  61.5435099  43.5741973  48.6165775  60.7340169  43.9135202  47.3831018
  65.5842205  53.9904744  43.8016837  65.5066234  54.9412569  43.8805318
  64.9803848  53.6450617  44.4591763  68.0759434  41.1632609  56.4578204
  67.2992769  41.7226530  56.4481069  68.7149998  41.6489392  56.9793074
  75.8680215  37.9459402  50.2921181  75.2254595  38.2391935  49.6460975
  75.3635144  37.8312323  51.0974377  73.5220379  41.6922575  40.9807040
  74.4338235  41.9249962  40.8054737  73.0130026  42.2759620  40.4182119
  66.3305807  43.9718063  56.0196171  67.0720491  44.5103107  55.7430995
  65.6242792  44.5984352  56.1767723  71.8061146  46.1147203  54.6168333
  72.2144502  45.6729614  53.8722965  71.0838408  45.5399831  54.8702525
  68.1592216  41.0519810  51.9901889  69.0053412  41.4759224  52.1336538
  68.0990854  40.3953434  52.6840453  72.1289961  46.6748394  48.3720621
  71.4998824  46.8394108  47.6696689  71.7415623  47.0890003  49.1431585
  76.0079193  47.6102832  45.7264985  75.3230231  47.9901733  45.1762018
  76.0923042  48.2198158  46.4596933  71.3091662  38.7124178  53.6483063
  71.0652594  39.4666239  53.1117339  71.5851592  39.0909526  54.4830310
  73.2630125  45.2562791  52.3260329  73.4747020  45.8994551  51.6494710
  73.2159873  44.4225107  51.8582259  70.8656354  37.8680611  49.2296901
  70.0040833  38.1661865  49.5213638  70.8918788  38.0851010  48.2977933
  67.6817923  46.4122802  45.6370707  68.1456268  46.6910505  44.8475329
  67.4174721  45.5106247  45.4543797  64.5742004  45.9594284  48.5750470
  65.1443361  46.3881552  47.9367954  65.1650116  45.6776868  49.2734655
  66.6186809  42.5345954  42.4460272  67.3210852  42.9866998  42.9134198
  66.2867437  41.8929773  43.0740165  65.0667171  41.1257711  56.8211481
  64.4365831  41.8073992  57.0546878  64.9603258  41.0140793  55.8764619
  60.3612143  40.7929507  47.7477405  59.5711197  41.0487036  47.2717516
  60.8523390  41.6077845  47.8529446  74.3775953  48.1334746  50.4982686
  75.1993396  47.7314933  50.2165368  74.3738355  48.0302980  51.4498802
  62.3126888  41.1574086  44.7060882  61.5158052  41.2692781  45.2244378
  62.0852481  41.4960739  43.8401772  68.1432556  47.6818790  52.6543397
  68.2076988  48.1439197  53.4901568  67.4343480  47.0516154  52.7825706
  58.6449846  41.0459997  50.1792396  58.8957884  41.9307007  50.4449972
  59.1809394  40.8664599  49.4067488  82.4681946  44.4773495  46.8467657
  81.7145654  43.9080893  46.6911662  82.6029487  44.4436159  47.7938292
  67.8580574  49.3486897  42.5222377  67.7226248  50.1938433  42.9507225
  68.3990386  49.5506175  41.7588311  64.3447913  35.4278477  59.1836732
  63.9514859  34.8744675  59.8584376  65.1614054  35.7389055  59.5743250
  61.3109971  46.8662335  43.0950302  61.8234492  47.6605585  43.2455867
  61.9632684  46.1688625  43.0283903  63.1204856  49.9828091  45.1773055
  63.2971484  50.9046056  44.9894039  63.9161689  49.6686511  45.6067435
  67.2615874  36.8436356  56.7756989  68.0025588  37.4443509  56.6961451
  67.4933797  36.1013994  56.2175031  62.4057212  42.0292723  55.0535218
  62.2910727  41.1277980  55.3542317  61.5501730  42.2756420  54.7020035
  69.4849050  49.9710464  56.6522719  69.0412904  49.1846842  56.3343623
  70.1466264  50.1589614  55.9866610  64.2436171  51.5006265  51.1783397
  64.7943596  51.3723328  50.4060391  63.4047647  51.8001154  50.8278290
  71.5830288  50.2513263  54.6804120  71.5648763  51.0722144  54.1884389
  72.5050208  50.1267339  54.9054261  68.0403342  47.7657393  55.5227629
  68.5731679  47.0045681  55.2926937  67.5117423  47.4731045  56.2651783
  71.2073037  32.8717459  51.0521270  70.8637307  33.7619101  50.9760381
  71.5752000  32.6819117  50.1890855  59.2758888  45.1950989  43.8709872
  60.1134110  45.6047998  43.6543580  59.4537155  44.2550432  43.8410066
  71.1723320  42.8626070  39.5593705  70.6569943  43.6330675  39.7982093
  70.9000628  42.1891206  40.1826767  68.7570431  37.7075771  44.6178944
  67.9012027  37.3182621  44.4384583  69.1697383  37.7867732  43.7578729
  70.2869578  35.2422114  49.0170504  69.7834373  35.2052249  48.2038309
  70.5800184  36.1514857  49.0767160  66.5312463  35.3260844  48.0236685
  67.3965460  35.1303652  47.6642575  66.5989972  35.0971196  48.9506042
  76.1457594  45.6158425  41.4946879  75.3687037  45.2769584  41.0502041
  76.8249075  45.6211048  40.8201844  70.9609623  40.7353162  41.3853487
  70.6559759  41.0499311  42.2363630  71.9140065  40.8134582  41.4280820
  69.4056055  46.8943385  43.0346441  68.8777416  46.1596145  42.7219678
  68.9043558  47.6718062  42.7886409  74.3848901  45.0892406  48.1513487
  73.7272575  45.7791667  48.2393616  75.1889300  45.4788838  48.4947473
  64.1374783  37.5563052  45.3953052  64.7118534  37.3338233  44.6626245
  64.7245765  37.6251746  46.1481653  73.1954360  43.4436779  46.2017429
  73.7086241  44.0766770  46.7039138  73.8455584  42.8437974  45.8360789
  64.4644370  39.5867513  39.4148937  63.6281682  39.9242199  39.7358212
  64.3249139  39.4516493  38.4776074  66.4397450  34.4304301  44.1228122
  65.7861863  34.1153318  43.4984736  66.3977924  33.8080041  44.8487944
  67.5508655  44.7123596  36.0381414  66.6435717  44.4812849  36.2372563
  68.0479687  43.9161215  36.2255395  70.4576734  53.4221103  38.9578100
  69.7838433  53.7252800  39.5663058  70.8442556  54.2250183  38.6083557
  69.6735191  40.9186234  48.4475769  68.7557752  41.1401181  48.2897457
  70.0895334  40.9932545  47.5887477  70.4570238  42.3177650  43.5778449
  71.2042057  42.8299047  43.2685571  70.7261828  41.9961703  44.4382843
  68.7296889  44.8136191  40.5605404  67.8208108  44.5295223  40.6577873
  68.7591972  45.2335269  39.7008711  73.9616156  48.4242780  44.3296571
  73.5078483  47.5833690  44.3861762  73.3310123  49.0604178  44.6671351
  72.9049076  39.3534766  45.5597239  72.1671832  38.8412152  45.8907481
  73.1575849  38.9135148  44.7480516  72.4049095  50.2619277  45.2646389
  72.6972070  50.8224334  44.5458755  72.9147716  50.5547838  46.0199549
  73.0060703  32.1311018  46.1539008  73.3119580  31.2708382  45.8664923
  73.7313308  32.7228638  45.9538002  59.2985059  42.5341705  44.5420606
  59.1009459  41.9411065  43.8171672  58.7431723  42.2293915  45.2596545
  67.2781783  42.4264811  46.6615199  67.3330392  41.4738648  46.5857676
  66.4672985  42.5824250  47.1456497  68.4272976  46.3544934  37.8993482
  67.9892406  45.6380793  37.4399120  69.1683417  46.5821049  37.3378574
  65.2174143  41.0441871  44.4205578  64.4042008  41.3436041  44.8270770
  65.7133137  40.6497560  45.1380060  67.3682720  51.0399628  46.3539843
  67.3258899  51.2660474  45.4248375  68.2845419  50.8063002  46.5025644
  70.8148354  41.5083695  53.2520472  71.1697742  41.7355168  54.1114938
  71.4620485  41.8402072  52.6297727  76.5446091  44.6302131  43.9569801
  76.4063990  44.8203727  43.0290990  76.1882310  45.3921514  44.4137852
  64.7088217  38.6160226  50.0366813  65.3487597  38.4748986  49.3389776
  63.8765748  38.3294740  49.6605415  76.5715471  46.6978658  48.9681072
  77.0051977  46.6053947  49.8164126  77.2847051  46.6736159  48.3301088
  65.4848521  47.9162657  46.1501805  66.2789120  47.4212977  45.9484380
  64.7740214  47.3880520  45.7869511  70.3043366  50.2980752  50.5014173
  70.3580388  50.8671689  51.2691889  69.4358147  50.4682637  50.1368210
  61.7931285  42.0605739  42.2261558  60.8628873  41.9990194  42.4431520
  61.8888757  41.5381691  41.4298199  61.7116834  38.5860551  44.8139800
  61.9723651  39.5005885  44.7048960  62.5334006  38.1184994  44.9636413
  63.1841759  39.9998309  51.9838624  63.8564812  39.7915671  51.3351273
  62.3571546  39.8020395  51.5443857  77.4331020  46.7402359  51.5013958
  77.6266910  47.6448169  51.7473233  77.3331638  46.2809778  52.3352543
  69.0867331  36.6260249  54.0004285  68.4395246  37.3250199  53.9068762
  69.8568346  37.0596393  54.3680533  72.4946129  46.8909102  57.0754838
  72.3431635  46.6619653  56.1584922  72.4850808  47.8479703  57.0886183
  69.2631465  44.4641014  52.0601105  70.1923525  44.6152174  51.8870072
  68.8422495  44.5525035  51.2049751  68.0619797  48.4891679  49.8299642
  67.9230883  48.1210463  50.7025581  67.2734393  49.0039318  49.6583600
  68.6567949  53.5900775  41.1725179  68.8319705  53.1188818  41.9870802
  67.9700737  54.2166541  41.4006440  69.6125012  47.8673282  47.2188480
  69.2774845  47.8274051  48.1146130  69.1128958  47.2017997  46.7458890
  63.5869256  43.2740912  52.7441061  63.4489054  42.5421150  53.3452600
  64.4974180  43.1849812  52.4625249  72.5484204  45.2129316  37.4925540
  71.9313375  44.4876144  37.3958593  72.0800692  45.9738676  37.1492614
  66.2151557  42.9860871  52.2324741  66.9251175  42.3454063  52.1911359
  66.1720865  43.2373766  53.1550922  74.2038336  49.9228224  55.1531320
  74.1450882  49.2387444  54.4861903  74.6057854  50.6647214  54.7011946
  64.9280491  39.9726089  54.0520381  64.3917848  39.5216827  54.7041977
  64.3397199  40.1071998  53.3090845  63.2229034  56.7390138  47.9465039
  63.4625633  57.3708662  48.6244058  62.3798231  56.3878178  48.2330398
  64.3382750  39.4314740  36.6146844  63.4612216  39.3103541  36.2509091
  64.8140503  38.6400818  36.3625733  74.2055743  47.8867808  53.3845300
  73.3182522  47.5493730  53.5071699  74.7754294  47.1550839  53.6214065
  55.8584890  44.2191900  46.7088351  56.5455930  43.9053630  46.1209367
  55.7033019  45.1233265  46.4355603  60.6619612  39.1082096  51.1373375
  60.5777801  38.5007766  50.4023785  59.8402319  39.5991115  51.1382871
  67.7356896  52.5469260  50.3506543  67.6627068  53.3524232  50.8625848
  67.2934289  52.7461226  49.5254565  67.5246676  51.7841031  43.8609365
  66.7414198  52.3262711  43.9547589  68.2239421  52.3015010  44.2603606
  70.8343326  37.5935660  46.5043570  71.3312026  36.8405622  46.1844640
  70.0630308  37.6299977  45.9386779  78.6873083  43.2976026  48.1461862
  78.6762960  44.1800741  47.7755795  77.8190463  42.9447576  47.9516399
  70.1955580  52.4456095  52.5064702  70.9083552  53.0803559  52.4340603
  69.7045608  52.5419961  51.6904704  71.9173107  46.3507347  44.0781993
  70.9829385  46.4708810  43.9086698  72.0949775  45.4479814  43.8142003
  67.4178295  39.7353043  46.2315255  67.0476082  39.1824083  46.9196160
  67.9137387  39.1311176  45.6790255  75.3045658  42.1924666  44.6132028
  75.7706110  43.0252658  44.5392330  75.7553159  41.7269648  45.3177286
  65.2467493  50.1950538  53.3270273  65.9476953  50.8287021  53.4799667
  64.7762608  50.5365270  52.5665912  73.3721889  48.5368488  41.6118180
  73.6481733  48.4225082  42.5212054  72.5026388  48.1385973  41.5730353
  73.2762321  34.5605253  48.6522929  72.3625401  34.7909480  48.8205136
  73.7055422  34.6443698  49.5036961  73.0468779  42.7495145  51.1522823
  72.3940230  42.9971053  50.4975276  73.4249159  41.9359284  50.8185300
  70.0075953  52.7854839  45.2550993  70.1898348  51.9676495  45.7178746
  70.8308939  53.0022531  44.8175883  70.3418119  51.7123024  42.5166042
  70.8705885  51.2015478  41.9036204  70.6046338  51.3965554  43.3811575
  69.0956352  43.4914956  57.6388860  68.4196989  43.3909086  58.3091235
  69.9183986  43.3354170  58.1024857  60.8435211  49.7286893  50.2601375
  61.4288648  48.9830581  50.3929279  60.6460050  50.0390850  51.1438039
  63.6973867  52.7638140  45.2763818  63.0284242  53.2484268  44.7927858
  63.5586736  53.0107361  46.1907196  55.4352866  42.2992493  48.9805818
  55.4736966  41.7656084  49.7742937  54.9293159  41.7727699  48.3616796
  67.8379135  54.7981884  51.8746476  68.3897443  54.9613505  52.6395561
  68.1785329  55.3886322  51.2026501  62.8143628  37.1457034  52.4768361
  62.8784955  38.0071865  52.0645758  62.7510749  36.5331035  51.7440719
  62.2895901  39.2180166  56.1241395  62.9167940  38.8357244  56.7378919
  61.4323820  38.9994368  56.4897087  72.6890010  49.6243141  57.7295130
  73.2329914  50.2373100  57.2350085  72.1076854  50.1822720  58.2462143
  59.0661444  41.0256595  42.0559750  59.3614885  40.1167274  42.0026804
  58.1649479  41.0044335  41.7340752  70.9747522  52.7463859  48.8610158
  70.8498662  51.9453599  48.3521104  71.6326614  53.2410053  48.3724128
  62.5955691  39.1012592  48.0387298  61.8742276  39.7148560  47.8994772
  63.3848946  39.6370357  47.9603944  73.0382431  50.5472880  50.4889708
  72.0912766  50.4278231  50.4168035  73.3865204  49.6595378  50.5715970
  65.3982004  36.4367018  54.3127950  65.9216406  36.6829315  55.0754259
  65.1794338  37.2687053  53.8931088  60.7949285  38.7070693  42.1799075
  60.4661991  37.8268072  41.9974181  61.1488656  38.6518362  43.0675464
  70.0428864  50.3425596  46.6894060  69.8953827  49.4142303  46.8701631
  70.8682358  50.3645686  46.2051136  63.9091108  38.9943663  42.5474553
  64.2487181  39.5229584  41.8253161  64.3563229  39.3324069  43.3233119
  73.6462986  51.1654154  47.7758933  74.5709533  50.9597016  47.6383384
  73.4778289  50.9170556  48.6848275  66.6034549  37.3780714  51.9977621
  66.2631370  36.5788527  52.3998301  65.8973556  37.6782424  51.4254454
  67.2551021  34.4630026  50.4504944  68.0777090  33.9890504  50.3283834
  67.4989085  35.2420510  50.9503630  65.8959256  37.4918284  40.7467845
  66.6167618  37.8699537  40.2431562  65.2724560  38.2107161  40.8502823
  70.0390378  38.1963433  41.6826178  70.2553993  39.0788071  41.3815006
  69.5584446  37.8049647  40.9531820  64.7789600  41.1549147  48.2596922
  64.6334181  41.4689450  49.1521204  64.3014803  41.7734047  47.7067821
  66.6385983  38.1451695  48.3077812  66.6247551  37.2492788  47.9710110
  67.3558411  38.1522358  48.9416098  68.4912113  38.5789035  50.3530939
  68.2329891  39.5006105  50.3515270  67.9597154  38.1819469  51.0431403
  73.4358302  51.6839822  43.1321025  73.6095180  51.1186244  42.3794877
  73.9287193  52.4840717  42.9500515  59.2535262  43.6954491  51.1984584
  58.7088730  44.4714299  51.3304858  60.1314612  44.0425296  51.0403705
  66.0422879  37.0266075  43.5765382  66.1638790  36.0982721  43.7756270
  65.7524921  37.0404761  42.6643697  68.9114069  34.7120985  46.7132102
  68.9335766  34.7760318  45.7584081  69.3282128  33.8725494  46.9072608
  79.2897693  44.4476245  44.7511324  79.7328839  43.6983570  44.3530448
  78.4124204  44.4386381  44.3685056  74.4233475  51.0006586  40.2317923
  75.1184379  51.6213279  40.4505238  74.7656625  50.1501938  40.5070301
  60.0401284  42.8224387  54.0914740  59.2983020  42.9707023  54.6779371
  59.7194028  43.0832653  53.2281490  76.3224898  48.4506292  41.7605254
  76.8476222  48.7893565  41.0354574  76.2347250  47.5153307  41.5768388
  67.9844947  52.3640366  53.8895130  68.2932073  52.1189512  54.7617830
  68.7820429  52.5687004  53.4014001  68.0065559  54.5178275  46.1200507
  67.5670549  54.0254654  46.8133364  68.7573676  53.9751243  45.8792582
  60.4857898  50.7089816  46.1225135  61.3115917  50.4093588  45.7423779
  60.1351950  49.9397438  46.5714924  65.4539431  50.0616284  48.1922809
  64.8319440  49.3986989  47.8925036  66.1244298  50.0877416  47.5096456
  58.6866503  48.6276142  47.0814069  57.8498411  48.1998317  46.8998070
  58.6590148  48.8208586  48.0184860  65.5263958  38.5398072  57.7855315
  65.5752114  39.4160195  57.4033084  66.0686472  37.9975465  57.2126958
  76.1316679  45.9331662  54.3789180  76.1814684  45.7681669  55.3204703
  76.0230602  45.0658921  53.9887061  65.0152938  48.6120208  41.6681269
  65.1641058  49.2955672  41.0147942  65.8219381  48.5925298  42.1830725
  73.4220441  41.9162590  55.6948487  74.3230304  41.7769055  55.4032485
  73.4968416  42.0817045  56.6346664  67.7563247  39.2929445  54.5401673
  66.8866556  39.5863011  54.2684262  67.9922727  39.8769890  55.2608937
  77.6334876  48.3528603  54.6231202  77.3419684  48.7158584  55.4594663
  77.0207007  47.6395612  54.4444534  78.8330558  45.9181483  47.1433772
  79.6677449  46.3571287  47.3071332  78.9689687  45.4420136  46.3242018
  75.8822064  43.4761218  53.0911260  76.3576186  43.6688864  52.2830111
  74.9587629  43.5320404  52.8454643  62.7705571  44.6385385  42.6742338
  62.5251613  43.7347715  42.8722548  62.9401485  44.6402536  41.7321816
  70.4602280  35.5109062  52.0567094  70.9784224  36.2470089  51.7313582
  70.1057413  35.8173055  52.8913853  62.0401218  40.3713743  40.1728500
  61.3470463  40.4458098  39.5168535  61.7952970  39.6074086  40.6950016
  70.7114875  31.9309344  47.5767990  70.9916628  31.2632533  48.2028417
  71.4965482  32.1238440  47.0642654  68.5148343  51.1068338  39.1393017
  67.9422310  51.7258525  38.6863488  69.0881137  51.6567700  39.6732939
  74.5823733  40.3526978  51.3239565  75.5341156  40.4525076  51.3451789
  74.4127183  39.5605247  51.8337650  72.6038112  37.4382561  51.5098966
  72.0088045  37.7187574  50.8145455  72.3187809  37.9276462  52.2815707
  71.7345603  51.3905488  40.2701599  72.6676276  51.3251050  40.4734474
  71.6468816  52.2261755  39.8116132  74.3633620  50.7071359  37.2305546
  74.2847251  50.3731222  38.1241304  75.1843286  51.1993126  37.2297019
  77.0611811  43.5733098  50.4381865  77.0288131  42.6349099  50.6241549
  77.6712434  43.6517135  49.7047690  68.8995142  42.4429151  36.4809069
  69.8454246  42.3135359  36.5497487  68.5209387  41.7043813  36.9578497
  77.2106299  40.3644141  50.4840148  76.6945348  39.5802598  50.2970077
  78.0946248  40.0362858  50.6486668  74.8717026  34.1085157  46.4435961
  74.6741847  33.8000245  47.3279293  75.4816732  34.8346796  46.5733891
  82.8788361  44.6349105  49.5787902  83.6091749  44.3734393  50.1395605
  82.2695306  43.8977827  49.6189970  80.9603658  42.7756967  50.1762353
  80.2336821  42.6412932  49.5678845  80.5450945  43.0833796  50.9819071
  68.7833834  46.4946897  57.9409726  69.7036844  46.6725496  58.1349773
  68.7483417  45.5502942  57.7889425  67.0838059  40.3679127  36.4163954
  66.1769514  40.0712240  36.4926668  67.3614040  40.0708945  35.5498241
  58.0015999  41.6885491  46.8663001  57.6818784  40.8350799  46.5737375
  57.4549427  41.9034069  47.6220968  61.7795907  44.4047932  50.5832507
  61.9981917  45.3365039  50.6020541  62.1921681  44.0455906  51.3687311
  68.7000125  34.9116017  42.5708196  67.8900853  34.5663102  42.9463442
  69.3884541  34.6023561  43.1595807  70.6290673  33.9894064  44.1932492
  71.1821711  34.4089517  44.8522515  70.8660759  33.0629812  44.2355448
  66.6523772  39.9781137  59.9735256  66.5520499  40.9275494  59.9047347
  66.4345314  39.6499376  59.1011326  65.8536843  37.2266062  36.5575933
  66.7156007  37.5520961  36.8171751  66.0387188  36.4397558  36.0448999
  57.8704259  45.3088402  48.8356122  57.1767731  44.8942355  48.3226077
  58.6177250  45.3508939  48.2389541  74.0069480  36.0994589  43.7011156
  73.4268149  36.7579393  43.3189209  73.7405413  35.2771933  43.2898574
  72.4573046  35.4999647  45.9032477  72.9572825  35.6116181  45.0946796
  73.1008654  35.1960699  46.5433285  66.5155042  43.4078276  58.7900318
  66.0322124  44.2078636  58.9964207  66.6015981  43.4186221  57.8367762
  59.7841002  45.2406656  46.7122137  59.7611690  45.3394343  45.7604020
  60.0941638  46.0871807  47.0339303  62.4428380  47.2982811  50.8268752
  63.3971633  47.2666753  50.7598683  62.2440903  46.8373435  51.6418977
  63.0327762  45.8683927  53.3939549  63.8520651  46.3628006  53.4174387
  63.3064569  44.9515895  53.3657117  72.7894358  38.2594679  42.7567505
  71.9020213  38.5444330  42.5387700  73.2048347  38.0988443  41.9094782
  76.1408894  38.2841200  46.4721844  76.9169284  38.7737653  46.7446461
  75.4157028  38.7099254  46.9293714  78.5781453  38.9968819  47.5295785
  79.1725943  38.7564555  46.8189093  78.6508036  38.2775950  48.1569321
  60.7978608  52.8402430  47.8438949  60.6633076  52.0802831  47.2776947
  60.3810671  53.5643330  47.3767738  71.9337571  48.0239354  36.8515525
  72.6373422  48.2289356  37.4673180  71.2100220  48.5916116  37.1164608
  72.7635382  43.7749215  42.9717795  72.7070583  44.2317767  42.1325427
  73.3163724  43.0139900  42.7940638  76.5740188  39.5638947  43.7967914
  76.3177122  39.1635583  44.6276122  75.9493056  40.2782741  43.6718054
  80.8852525  42.3035020  46.3039206  80.3252083  42.3728210  47.0770768
  80.2796029  42.1276005  45.5838702  63.9547734  53.7371747  48.0557392
  63.8380118  54.6817180  47.9536082  63.1340181  53.4345309  48.4443191
  73.8424269  48.4621883  38.9013985  74.6769873  48.0303082  38.7191460
  73.6808612  48.2903897  39.8290879  73.4970161  44.9653996  40.2670324
  73.4418965  44.7998268  39.3258768  72.8716216  45.6730029  40.4232514
  58.2862676  40.2022061  54.0931746  58.9321540  39.6921015  54.5818971
  58.0779827  40.9390742  54.6675172  66.8066286  34.4662105  39.8455642
  66.7944956  35.4103945  40.0023913  67.6989708  34.2832251  39.5515104
  64.9802248  54.3900009  51.2713321  65.8829495  54.4223620  51.5879815
  64.7539618  53.4600460  51.2859656  66.7355850  53.1430996  47.9323399
  65.7851481  53.1432857  47.8187771  67.0388337  52.3963730  47.4159434
  70.6218406  31.0604882  44.1001579  69.8550802  30.5063369  44.2458262
  71.0329111  31.1326751  44.9615731  62.6260167  37.3489678  58.1906761
  63.4891629  36.9926483  58.4010085  62.0525578  37.0103573  58.8782165
  75.1385066  60.7854439  44.9227577  74.5749931  60.6944376  44.1543865
  75.0237461  59.9654343  45.4030070  72.6849498  62.2805630  47.7611798
  73.4770790  61.9396455  47.3458097  72.9246148  62.3900605  48.6813951
  80.7184625  64.4525406  40.2342042  80.0672604  65.0379487  39.8476056
  81.5128987  64.9831601  40.2937080  74.6440252  61.5414544  40.6329176
  75.4171128  60.9943531  40.4942052  74.9965651  62.4058793  40.8443638
  76.9806530  57.7007210  38.2647626  77.2332050  57.1788731  37.5031089
  76.0431089  57.5373355  38.3674310  82.1959890  62.1415838  40.7711026
  81.5605723  62.2150465  41.4831931  81.8657296  62.7309437  40.0930106
  87.4258240  56.6418221  46.9755348  88.1583411  56.0717438  47.2093178
  86.6697595  56.2539822  47.4161854  76.7002818  59.6035316  40.4672001
  76.5839076  58.9280219  41.1353086  76.8105078  59.1167690  39.6504154
  79.0434359  59.0645463  44.1718691  78.6792566  58.5376084  44.8831612
  79.9001475  58.6743932  43.9985176  84.9483660  50.3539795  51.4349957
  84.6166985  51.2235206  51.2111172  84.3529273  50.0376079  52.1143987
  78.6839846  54.0935362  39.1680039  78.8514249  54.9615599  39.5350510
  78.4937015  54.2562644  38.2441328  74.8927661  59.0066138  46.8682574
  73.9678157  58.8742352  47.0760266  75.1412074  59.7860357  47.3652516
  84.8412323  55.0734882  48.5143307  83.9329201  55.0050290  48.2202068
  84.7899919  55.5506826  49.3425132  78.6629067  56.5493020  40.1526706
  78.5428692  56.9950071  40.9912186  77.9681655  56.8978338  39.5940244
  72.2536472  58.6499412  47.7026363  72.3828853  58.9033891  48.6165775
  71.5733923  59.2427120  47.3831018  76.4235959  69.3196662  43.8016837
  76.3459989  70.2704487  43.8805318  75.8197603  68.9742534  44.4591763
  86.7073970  53.2751320  50.2921181  86.0648350  53.5683853  49.6460975
  86.2028898  53.1604240  51.0974377  84.3614133  57.0214493  40.9807040
  85.2731989  57.2541880  40.8054737  83.8523780  57.6051537  40.4182119
  86.8472947  62.9394749  45.7264985  86.1623986  63.3193651  45.1762018
  86.9316797  63.5490076  46.4596933  82.1485416  54.0416096  53.6483063
  81.9046348  54.7958157  53.1117339  82.4245347  54.4201444  54.4830310
  84.1023879  60.5854708  52.3260329  84.3140774  61.2286468  51.6494710
  84.0553627  59.7517025  51.8582259  81.7050108  53.1972529  49.2296901
  80.8434587  53.4953783  49.5213638  81.7312543  53.4142928  48.2977933
  78.5211677  61.7414720  45.6370707  78.9850023  62.0202423  44.8475329
  78.2568476  60.8398164  45.4543797  77.4580563  57.8637872  42.4460272
  78.1604607  58.3158916  42.9134198  77.1261192  57.2221691  43.0740165
  71.2005897  56.1221425  47.7477405  70.4104951  56.3778953  47.2717516
  71.6917145  56.9369763  47.8529446  85.2169707  63.4626664  50.4982686
  86.0387151  63.0606851  50.2165368  85.2132110  63.3594898  51.4498802
  73.1520643  56.4866004  44.7060882  72.3551806  56.5984698  45.2244378
  72.9246235  56.8252656  43.8401772  69.4843600  56.3751915  50.1792396
  69.7351639  57.2598925  50.4449972  70.0203149  56.1956517  49.4067488
  93.3075700  59.8065412  46.8467657  92.5539408  59.2372810  46.6911662
  93.4423241  59.7728077  47.7938292  78.6974328  64.6778815  42.5222377
  78.5620003  65.5230350  42.9507225  79.2384141  64.8798092  41.7588311
  72.1503725  62.1954253  43.0950302  72.6628246  62.9897503  43.2455867
  72.8026438  61.4980543  43.0283903  73.9598610  65.3120009  45.1773055
  74.1365239  66.2337974  44.9894039  74.7555444  64.9978428  45.6067435
  82.0466792  48.2009377  51.0521270  81.7031061  49.0911018  50.9760381
  82.4145754  48.0111034  50.1890855  70.1152642  60.5242907  43.8709872
  70.9527864  60.9339915  43.6543580  70.2930910  59.5842349  43.8410066
  82.0117074  58.1917988  39.5593705  81.4963698  58.9622592  39.7982093
  81.7394383  57.5183124  40.1826767  79.5964185  53.0367688  44.6178944
  78.7405782  52.6474539  44.4384583  80.0091137  53.1159649  43.7578729
  81.1263332  50.5714032  49.0170504  80.6228128  50.5344167  48.2038309
  81.4193939  51.4806774  49.0767160  77.3706218  50.6552761  48.0236685
  78.2359215  50.4595570  47.6642575  77.4383727  50.4263113  48.9506042
  86.9851349  60.9450342  41.4946879  86.2080791  60.6061502  41.0502041
  87.6642829  60.9502965  40.8201844  81.8003378  56.0645080  41.3853487
  81.4953513  56.3791229  42.2363630  82.7533820  56.1426500  41.4280820
  80.2449809  62.2235303  43.0346441  79.7171171  61.4888063  42.7219678
  79.7437312  63.0009979  42.7886409  85.2242655  60.4184324  48.1513487
  84.5666330  61.1083585  48.2393616  86.0283055  60.8080756  48.4947473
  74.9768537  52.8854969  45.3953052  75.5512289  52.6630151  44.6626245
  75.5639519  52.9543664  46.1481653  75.3038124  54.9159430  39.4148937
  74.4675436  55.2534117  39.7358212  75.1642894  54.7808410  38.4776074
  77.2791205  49.7596218  44.1228122  76.6255617  49.4445235  43.4984736
  77.2371679  49.1371959  44.8487944  78.3902410  60.0415513  36.0381414
  77.4829471  59.8104767  36.2372563  78.8873442  59.2453133  36.2255395
  81.2970488  68.7513021  38.9578100  80.6232187  69.0544717  39.5663058
  81.6836310  69.5542101  38.6083557  81.2963993  57.6469567  43.5778449
  82.0435812  58.1590965  43.2685571  81.5655582  57.3253620  44.4382843
  79.5690643  60.1428108  40.5605404  78.6601862  59.8587141  40.6577873
  79.5985727  60.5627187  39.7008711  84.8009910  63.7534698  44.3296571
  84.3472238  62.9125608  44.3861762  84.1703877  64.3896096  44.6671351
  83.7442830  54.6826684  45.5597239  83.0065587  54.1704070  45.8907481
  83.9969604  54.2427065  44.7480516  83.2442850  65.5911194  45.2646389
  83.5365824  66.1516252  44.5458755  83.7541470  65.8839755  46.0199549
  83.8454457  47.4602936  46.1539008  84.1513334  46.6000299  45.8664923
  84.5707062  48.0520556  45.9538002  70.1378813  57.8633622  44.5420606
  69.9403213  57.2702983  43.8171672  69.5825477  57.5585833  45.2596545
  79.2666731  61.6836852  37.8993482  78.8286161  60.9672711  37.4399120
  80.0077172  61.9112967  37.3378574  76.0567897  56.3733789  44.4205578
  75.2435763  56.6727959  44.8270770  76.5526891  55.9789477  45.1380060
  78.2076475  66.3691545  46.3539843  78.1652654  66.5952392  45.4248375
  79.1239174  66.1354920  46.5025644  81.6542109  56.8375613  53.2520472
  82.0091496  57.0647086  54.1114938  82.3014240  57.1693990  52.6297727
  87.3839846  59.9594049  43.9569801  87.2457744  60.1495645  43.0290990
  87.0276064  60.7213432  44.4137852  75.5481972  53.9452144  50.0366813
  76.1881351  53.8040903  49.3389776  74.7159502  53.6586657  49.6605415
  87.4109225  62.0270576  48.9681072  87.8445732  61.9345865  49.8164126
  88.1240806  62.0028076  48.3301088  76.3242276  63.2454575  46.1501805
  77.1182874  62.7504895  45.9484380  75.6133968  62.7172438  45.7869511
  72.6325039  57.3897656  42.2261558  71.7022627  57.3282112  42.4431520
  72.7282511  56.8673609  41.4298199  72.5510588  53.9152469  44.8139800
  72.8117405  54.8297802  44.7048960  73.3727760  53.4476912  44.9636413
  88.2724775  62.0694277  51.5013958  88.4660665  62.9740087  51.7473233
  88.1725393  61.6101696  52.3352543  79.9261086  51.9552167  54.0004285
  79.2789001  52.6542117  53.9068762  80.6962101  52.3888311  54.3680533
  79.4961704  68.9192693  41.1725179  79.6713459  68.4480736  41.9870802
  78.8094492  69.5458459  41.4006440  80.4518767  63.1965199  47.2188480
  80.1168599  63.1565969  48.1146130  79.9522712  62.5309915  46.7458890
  83.3877958  60.5421234  37.4925540  82.7707129  59.8168062  37.3958593
  82.9194447  61.3030594  37.1492614  75.1776504  54.7606658  36.6146844
  74.3005971  54.6395459  36.2509091  75.6534257  53.9692736  36.3625733
  85.0449497  63.2159726  53.3845300  84.1576276  62.8785648  53.5071699
  85.6148048  62.4842757  53.6214065  66.6978644  59.5483818  46.7088351
  67.3849684  59.2345548  46.1209367  66.5426773  60.4525182  46.4355603
  71.5013367  54.4374014  51.1373375  71.4171555  53.8299684  50.4023785
  70.6796073  54.9283032  51.1382871  78.3640430  67.1132948  43.8609365
  77.5807952  67.6554628  43.9547589  79.0633176  67.6306928  44.2603606
  81.6737081  52.9227578  46.5043570  82.1705780  52.1697540  46.1844640
  80.9024062  52.9591894  45.9386779  89.5266838  58.6267943  48.1461862
  89.5156714  59.5092659  47.7755795  88.6584217  58.2739494  47.9516399
  82.7566861  61.6799265  44.0781993  81.8223140  61.8000727  43.9086698
  82.9343530  60.7771732  43.8142003  78.2572049  55.0644961  46.2315255
  77.8869837  54.5116001  46.9196160  78.7531142  54.4603094  45.6790255
  86.1439413  57.5216584  44.6132028  86.6099865  58.3544576  44.5392330
  86.5946913  57.0561566  45.3177286  84.2115644  63.8660405  41.6118180
  84.4875488  63.7517000  42.5212054  83.3420142  63.4677890  41.5730353
  84.1156075  49.8897171  48.6522929  83.2019155  50.1201398  48.8205136
  84.5449177  49.9735615  49.5036961  83.8862534  58.0787063  51.1522823
  83.2333984  58.3262971  50.4975276  84.2642914  57.2651201  50.8185300
  80.8469708  68.1146756  45.2550993  81.0292102  67.2968412  45.7178746
  81.6702694  68.3314449  44.8175883  81.1811873  67.0414941  42.5166042
  81.7099640  66.5307396  41.9036204  81.4440093  66.7257472  43.3811575
  71.6828966  65.0578811  50.2601375  72.2682403  64.3122499  50.3929279
  71.4853804  65.3682767  51.1438039  74.5367621  68.0930058  45.2763818
  73.8677996  68.5776186  44.7927858  74.3980491  68.3399279  46.1907196
  66.2746621  57.6284411  48.9805818  66.3130720  57.0948002  49.7742937
  65.7686913  57.1019616  48.3616796  73.6537383  52.4748951  52.4768361
  73.7178709  53.3363782  52.0645758  73.5904503  51.8622953  51.7440719
  73.1289655  54.5472084  56.1241395  73.7561694  54.1649161  56.7378919
  72.2717574  54.3286286  56.4897087  69.9055198  56.3548513  42.0559750
  70.2008639  55.4459191  42.0026804  69.0043234  56.3336253  41.7340752
  73.4349445  54.4304510  48.0387298  72.7136031  55.0440477  47.8994772
  74.2242701  54.9662274  47.9603944  76.2375759  51.7658936  54.3127950
  76.7610161  52.0121233  55.0754259  76.0188092  52.5978971  53.8931088
  71.6343040  54.0362611  42.1799075  71.3055746  53.1559990  41.9974181
  71.9882410  53.9810279  43.0675464  80.8822619  65.6717513  46.6894060
  80.7347581  64.7434221  46.8701631  81.7076112  65.6937604  46.2051136
  74.7484863  54.3235581  42.5474553  75.0880935  54.8521502  41.8253161
  75.1956983  54.6615987  43.3233119  77.4428304  52.7072631  51.9977621
  77.1025124  51.9080444  52.3998301  76.7367310  53.0074342  51.4254454
  78.0944776  49.7921944  50.4504944  78.9170845  49.3182422  50.3283834
  78.3382839  50.5712427  50.9503630  76.7353010  52.8210202  40.7467845
  77.4561373  53.1991455  40.2431562  76.1118314  53.5399079  40.8502823
  80.8784133  53.5255351  41.6826178  81.0947747  54.4079989  41.3815006
  80.3978200  53.1341565  40.9531820  75.6183354  56.4841064  48.2596922
  75.4727935  56.7981367  49.1521204  75.1408558  57.1025965  47.7067821
  77.4779737  53.4743612  48.3077812  77.4641306  52.5784706  47.9710110
  78.1952165  53.4814276  48.9416098  79.3305868  53.9080953  50.3530939
  79.0723646  54.8298023  50.3515270  78.7990908  53.5111387  51.0431403
  84.2752057  67.0131740  43.1321025  84.4488934  66.4478162  42.3794877
  84.7680948  67.8132635  42.9500515  70.0929017  59.0246409  51.1984584
  69.5482485  59.8006217  51.3304858  70.9708366  59.3717213  51.0403705
  76.8816633  52.3557993  43.5765382  77.0032544  51.4274639  43.7756270
  76.5918676  52.3696679  42.6643697  79.7507824  50.0412903  46.7132102
  79.7729520  50.1052236  45.7584081  80.1675883  49.2017412  46.9072608
  90.1291448  59.7768163  44.7511324  90.5722594  59.0275488  44.3530448
  89.2517958  59.7678299  44.3685056  85.2627229  66.3298504  40.2317923
  85.9578134  66.9505197  40.4505238  85.6050379  65.4793855  40.5070301
  70.8795038  58.1516305  54.0914740  70.1376774  58.2998940  54.6779371
  70.5587783  58.4124571  53.2281490  87.1618652  63.7798210  41.7605254
  87.6869976  64.1185482  41.0354574  87.0741005  62.8445225  41.5768388
  78.8459313  69.8470193  46.1200507  78.4064303  69.3546572  46.8133364
  79.5967430  69.3043161  45.8792582  71.3251652  66.0381734  46.1225135
  72.1509672  65.7385506  45.7423779  70.9745704  65.2689356  46.5714924
  69.5260257  63.9568060  47.0814069  68.6892165  63.5290235  46.8998070
  69.4983903  64.1500504  48.0184860  86.9710433  61.2623580  54.3789180
  87.0208438  61.0973587  55.3204703  86.8624357  60.3950839  53.9887061
  75.8546692  63.9412125  41.6681269  76.0034812  64.6247590  41.0147942
  76.6613136  63.9217215  42.1830725  84.2614196  57.2454508  55.6948487
  85.1624059  57.1060972  55.4032485  84.3362170  57.4108962  56.6346664
  78.5957001  54.6221362  54.5401673  77.7260311  54.9154928  54.2684262
  78.8316482  55.2061807  55.2608937  88.4728630  63.6820521  54.6231202
  88.1813439  64.0450502  55.4594663  87.8600762  62.9687529  54.4444534
  89.6724313  61.2473401  47.1433772  90.5071204  61.6863205  47.3071332
  89.8083441  60.7712054  46.3242018  86.7215819  58.8053136  53.0911260
  87.1969940  58.9980782  52.2830111  85.7981384  58.8612322  52.8454643
  73.6099325  59.9677303  42.6742338  73.3645367  59.0639633  42.8722548
  73.7795240  59.9694453  41.7321816  81.2996035  50.8400979  52.0567094
  81.8177979  51.5762006  51.7313582  80.9451168  51.1464973  52.8913853
  72.8794973  55.7005660  40.1728500  72.1864218  55.7750015  39.5168535
  72.6346725  54.9366004  40.6950016  81.5508629  47.2601262  47.5767990
  81.8310383  46.5924451  48.2028417  82.3359236  47.4530357  47.0642654
  79.3542098  66.4360256  39.1393017  78.7816065  67.0550443  38.6863488
  79.9274891  66.9859617  39.6732939  85.4217487  55.6818896  51.3239565
  86.3734910  55.7816993  51.3451789  85.2520938  54.8897164  51.8337650
  83.4431867  52.7674479  51.5098966  82.8481799  53.0479492  50.8145455
  83.1581564  53.2568380  52.2815707  82.5739357  66.7197406  40.2701599
  83.5070031  66.6542968  40.4734474  82.4862570  67.5553673  39.8116132
  85.2027374  66.0363276  37.2305546  85.1241006  65.7023140  38.1241304
  86.0237041  66.5285044  37.2297019  87.9005565  58.9025016  50.4381865
  87.8681885  57.9641016  50.6241549  88.5106189  58.9809052  49.7047690
  79.7388896  57.7721068  36.4809069  80.6848001  57.6427277  36.5497487
  79.3603141  57.0335730  36.9578497  88.0500054  55.6936059  50.4840148
  87.5339102  54.9094516  50.2970077  88.9340002  55.3654776  50.6486668
  85.7110781  49.4377075  46.4435961  85.5135602  49.1292163  47.3279293
  86.3210486  50.1638713  46.5733891  93.7182115  59.9641022  49.5787902
  94.4485504  59.7026310  50.1395605  93.1089061  59.2269744  49.6189970
  91.7997412  58.1048885  50.1762353  91.0730576  57.9704850  49.5678845
  91.3844699  58.4125714  50.9819071  77.9231813  55.6971045  36.4163954
  77.0163269  55.4004158  36.4926668  78.2007794  55.4000863  35.5498241
  68.8409754  57.0177408  46.8663001  68.5212538  56.1642716  46.5737375
  68.2943182  57.2325986  47.6220968  79.5393879  50.2407935  42.5708196
  78.7294607  49.8955020  42.9463442  80.2278296  49.9315478  43.1595807
  81.4684427  49.3185981  44.1932492  82.0215466  49.7381435  44.8522515
  81.7054514  48.3921729  44.2355448  76.6930598  52.5557980  36.5575933
  77.5549762  52.8812878  36.8171751  76.8780942  51.7689476  36.0448999
  68.7098014  60.6380320  48.8356122  68.0161485  60.2234273  48.3226077
  69.4571005  60.6800856  48.2389541  84.8463234  51.4286507  43.7011156
  84.2661903  52.0871311  43.3189209  84.5799167  50.6063851  43.2898574
  83.2966801  50.8291564  45.9032477  83.7966579  50.9408099  45.0946796
  83.9402409  50.5252617  46.5433285  70.6234756  60.5698574  46.7122137
  70.6005444  60.6686261  45.7604020  70.9335393  61.4163724  47.0339303
  83.6288112  53.5886597  42.7567505  82.7413967  53.8736248  42.5387700
  84.0442101  53.4280360  41.9094782  86.9802649  53.6133118  46.4721844
  87.7563039  54.1029570  46.7446461  86.2550783  54.0391172  46.9293714
  89.4175207  54.3260737  47.5295785  90.0119698  54.0856473  46.8189093
  89.4901791  53.6067868  48.1569321  82.7731326  63.3531272  36.8515525
  83.4767176  63.5581274  37.4673180  82.0493975  63.9208033  37.1164608
  83.6029136  59.1041133  42.9717795  83.5464338  59.5609684  42.1325427
  84.1557479  58.3431817  42.7940638  87.4133942  54.8930865  43.7967914
  87.1570876  54.4927500  44.6276122  86.7886810  55.6074659  43.6718054
  91.7246280  57.6326938  46.3039206  91.1645838  57.7020127  47.0770768
  91.1189783  57.4567923  45.5838702  84.6818023  63.7913801  38.9013985
  85.5163627  63.3594999  38.7191460  84.5202366  63.6195814  39.8290879
  84.3363915  60.2945914  40.2670324  84.2812719  60.1290186  39.3258768
  83.7109971  61.0021947  40.4232514  69.1256430  55.5313978  54.0931746
  69.7715294  55.0212932  54.5818971  68.9173582  56.2682660  54.6675172
  77.6460041  49.7954023  39.8455642  77.6338711  50.7395863  40.0023913
  78.5383463  49.6124169  39.5515104  77.5749605  68.4722914  47.9323399
  76.6245236  68.4724775  47.8187771  77.8782091  67.7255648  47.4159434
  81.4612160  46.3896800  44.1001579  80.6944556  45.8355286  44.2458262
  81.8722865  46.4618669  44.9615731  90.1192005  74.2610880  48.9330686
  89.7810516  74.1451945  48.0451221  90.9881773  73.8602045  48.9131692
  85.9778820  76.1146356  44.9227577  85.4143685  76.0236293  44.1543865
  85.8631215  75.2946261  45.4030070  91.5578379  79.7817324  40.2342042
  90.9066359  80.3671405  39.8476056  92.3522742  80.3123519  40.2937080
  85.4834006  76.8706461  40.6329176  86.2564882  76.3235448  40.4942052
  85.8359405  77.7350711  40.8443638  87.8200284  73.0299127  38.2647626
  88.0725805  72.5080649  37.5031089  86.8824843  72.8665273  38.3674310
  92.8643567  72.0334906  46.0722370  93.6506656  71.6154329  45.7212787
  93.1282271  72.9380998  46.2404018  93.0353644  77.4707756  40.7711026
  92.3999477  77.5442383  41.4831931  92.7051051  78.0601355  40.0930106
  98.2651994  71.9710139  46.9755348  98.9977166  71.4009356  47.2093178
  97.5091350  71.5831739  47.4161854  87.5396573  74.9327233  40.4672001
  87.4232831  74.2572137  41.1353086  87.6498833  74.4459607  39.6504154
  89.8828114  74.3937380  44.1718691  89.5186321  73.8668001  44.8831612
  90.7395230  74.0035850  43.9985176  95.7877414  65.6831713  51.4349957
  95.4560739  66.5527124  51.2111172  95.1923028  65.3667997  52.1143987
  89.5233601  69.4227280  39.1680039  89.6908003  70.2907517  39.5350510
  89.3330770  69.5854562  38.2441328  85.7321415  74.3358056  46.8682574
  84.8071912  74.2034270  47.0760266  85.9805829  75.1152275  47.3652516
  95.6806078  70.4026799  48.5143307  94.7722955  70.3342208  48.2202068
  95.6293673  70.8798744  49.3425132  89.5022822  71.8784938  40.1526706
  89.3822447  72.3241988  40.9912186  88.8075410  72.2270255  39.5940244
  87.2629714  84.6488579  43.8016837  87.1853743  85.5996404  43.8805318
  86.6591357  84.3034452  44.4591763  97.5467724  68.6043238  50.2921181
  96.9042104  68.8975771  49.6460975  97.0422653  68.4896158  51.0974377
  95.2007888  72.3506411  40.9807040  96.1125744  72.5833798  40.8054737
  94.6917535  72.9343455  40.4182119  93.8077470  77.3332229  48.3720621
  93.1786332  77.4977943  47.6696689  93.4203132  77.7473839  49.1431585
  97.6866702  78.2686667  45.7264985  97.0017740  78.6485568  45.1762018
  97.7710551  78.8781994  46.4596933  92.5443863  68.5264447  49.2296901
  91.6828342  68.8245700  49.5213638  92.5706297  68.7434846  48.2977933
  89.3605432  77.0706637  45.6370707  89.8243777  77.3494340  44.8475329
  89.0962230  76.1690082  45.4543797  86.2529513  76.6178119  48.5750470
  86.8230870  77.0465387  47.9367954  86.8437625  76.3360704  49.2734655
  88.2974318  73.1929790  42.4460272  88.9998361  73.6450833  42.9134198
  87.9654946  72.5513609  43.0740165  96.0563461  78.7918582  50.4982686
  96.8780905  78.3898769  50.2165368  96.0525864  78.6886816  51.4498802
  83.9914397  71.8157922  44.7060882  83.1945561  71.9276616  45.2244378
  83.7639990  72.1544574  43.8401772 104.1469455  75.1357330  46.8467657
 103.3933163  74.5664728  46.6911662 104.2816996  75.1019995  47.7938292
  89.5368083  80.0070732  42.5222377  89.4013757  80.8522268  42.9507225
  90.0777895  80.2090010  41.7588311  82.9897480  77.5246170  43.0950302
  83.5022001  78.3189421  43.2455867  83.6420193  76.8272461  43.0283903
  84.7992365  80.6411927  45.1773055  84.9758993  81.5629891  44.9894039
  85.5949198  80.3270346  45.6067435  85.9223680  82.1590100  51.1783397
  86.4731105  82.0307164  50.4060391  85.0835156  82.4584989  50.8278290
  92.8860546  63.5301294  51.0521270  92.5424816  64.4202936  50.9760381
  93.2539509  63.3402952  50.1890855  80.9546397  75.8534825  43.8709872
  81.7921619  76.2631833  43.6543580  81.1324664  74.9134267  43.8410066
  92.8510829  73.5209905  39.5593705  92.3357452  74.2914510  39.7982093
  92.5788137  72.8475042  40.1826767  90.4357940  68.3659606  44.6178944
  89.5799536  67.9766457  44.4384583  90.8484892  68.4451567  43.7578729
  91.9657087  65.9005949  49.0170504  91.4621882  65.8636085  48.2038309
  92.2587693  66.8098692  49.0767160  88.2099972  65.9844679  48.0236685
  89.0752969  65.7887488  47.6642575  88.2777481  65.7555031  48.9506042
  97.8245103  76.2742260  41.4946879  97.0474546  75.9353419  41.0502041
  98.5036584  76.2794883  40.8201844  92.6397132  71.3936997  41.3853487
  92.3347268  71.7083147  42.2363630  93.5927574  71.4718417  41.4280820
  91.0843564  77.5527221  43.0346441  90.5564925  76.8179980  42.7219678
  90.5831067  78.3301897  42.7886409  96.0636410  75.7476241  48.1513487
  95.4060084  76.4375503  48.2393616  96.8676809  76.1372673  48.4947473
  85.8162292  68.2146887  45.3953052  86.3906043  67.9922069  44.6626245
  86.4033274  68.2835582  46.1481653  94.8741869  74.1020614  46.2017429
  95.3873750  74.7350606  46.7039138  95.5243093  73.5021809  45.8360789
  86.1431879  70.2451348  39.4148937  85.3069191  70.5826035  39.7358212
  86.0036648  70.1100328  38.4776074  88.1184959  65.0888136  44.1228122
  87.4649372  64.7737153  43.4984736  88.0765433  64.4663876  44.8487944
  89.2296164  75.3707431  36.0381414  88.3223226  75.1396684  36.2372563
  89.7267196  74.5745050  36.2255395  92.1364243  84.0804938  38.9578100
  91.4625942  84.3836635  39.5663058  92.5230065  84.8834019  38.6083557
  91.3522700  71.5770069  48.4475769  90.4345261  71.7985016  48.2897457
  91.7682843  71.6516380  47.5887477  92.1357747  72.9761485  43.5778449
  92.8829566  73.4882882  43.2685571  92.4049337  72.6545538  44.4382843
  90.4084398  75.4720026  40.5605404  89.4995617  75.1879059  40.6577873
  90.4379481  75.8919104  39.7008711  95.6403665  79.0826615  44.3296571
  95.1865992  78.2417525  44.3861762  95.0097632  79.7188014  44.6671351
  94.5836584  70.0118601  45.5597239  93.8459341  69.4995988  45.8907481
  94.8363358  69.5718983  44.7480516  94.0836604  80.9203112  45.2646389
  94.3759579  81.4808169  44.5458755  94.5935225  81.2131673  46.0199549
  94.6848212  62.7894853  46.1539008  94.9907089  61.9292217  45.8664923
  95.4100817  63.3812474  45.9538002  88.9569292  73.0848646  46.6615199
  89.0117901  72.1322483  46.5857676  88.1460494  73.2408086  47.1456497
  90.1060485  77.0128770  37.8993482  89.6679915  76.2964628  37.4399120
  90.8470926  77.2404884  37.3378574  86.8961651  71.7025706  44.4205578
  86.0829517  72.0019877  44.8270770  87.3920646  71.3081395  45.1380060
  89.0470229  81.6983463  46.3539843  89.0046408  81.9244309  45.4248375
  89.9632928  81.4646838  46.5025644  98.2233600  75.2885967  43.9569801
  98.0851499  75.4787563  43.0290990  97.8669819  76.0505349  44.4137852
  98.2502980  77.3562494  48.9681072  98.6839486  77.2637783  49.8164126
  98.9634560  77.3319994  48.3301088  87.1636030  78.5746492  46.1501805
  87.9576629  78.0796812  45.9484380  86.4527723  78.0464355  45.7869511
  91.9830875  80.9564588  50.5014173  92.0367897  81.5255524  51.2691889
  91.1145656  81.1266473  50.1368210  83.4718794  72.7189574  42.2261558
  82.5416382  72.6574029  42.4431520  83.5676266  72.1965527  41.4298199
  83.3904343  69.2444387  44.8139800  83.6511160  70.1589720  44.7048960
  84.2121515  68.7768829  44.9636413  90.7654840  67.2844085  54.0004285
  90.1182755  67.9834034  53.9068762  91.5355855  67.7180229  54.3680533
  89.7407306  79.1475514  49.8299642  89.6018392  78.7794299  50.7025581
  88.9521902  79.6623154  49.6583600  90.3355458  84.2484611  41.1725179
  90.5107214  83.7772654  41.9870802  89.6488246  84.8750377  41.4006440
  91.2912521  78.5257117  47.2188480  90.9562354  78.4857887  48.1146130
  90.7916467  77.8601833  46.7458890  94.2271713  75.8713151  37.4925540
  93.6100884  75.1459979  37.3958593  93.7588201  76.6322511  37.1492614
  84.9016543  87.3973973  47.9465039  85.1413142  88.0292498  48.6244058
  84.0585740  87.0462013  48.2330398  86.0170259  70.0898576  36.6146844
  85.1399725  69.9687376  36.2509091  86.4928012  69.2984654  36.3625733
  89.4144405  83.2053096  50.3506543  89.3414577  84.0108067  50.8625848
  88.9721798  83.4045062  49.5254565  89.2034185  82.4424866  43.8609365
  88.4201707  82.9846546  43.9547589  89.9026930  82.9598846  44.2603606
  92.5130835  68.2519495  46.5043570  93.0099535  67.4989458  46.1844640
  91.7417816  68.2883812  45.9386779 100.3660592  73.9559861  48.1461862
 100.3550469  74.8384576  47.7755795  99.4977972  73.6031412  47.9516399
  93.5960616  77.0091183  44.0781993  92.6616894  77.1292645  43.9086698
  93.7737284  76.1063649  43.8142003  89.0965804  70.3936878  46.2315255
  88.7263591  69.8407919  46.9196160  89.5924896  69.7895012  45.6790255
  96.9833167  72.8508502  44.6132028  97.4493619  73.6836493  44.5392330
  97.4340668  72.3853483  45.3177286  86.9255002  80.8534373  53.3270273
  87.6264462  81.4870856  53.4799667  86.4550117  81.1949105  52.5665912
  95.0509398  79.1952323  41.6118180  95.3269242  79.0808918  42.5212054
  94.1813897  78.7969808  41.5730353  94.9549830  65.2189089  48.6522929
  94.0412910  65.4493316  48.8205136  95.3842931  65.3027533  49.5036961
  91.6863462  83.4438674  45.2550993  91.8685857  82.6260330  45.7178746
  92.5096448  83.6606366  44.8175883  92.0205628  82.3706859  42.5166042
  92.5493394  81.8599314  41.9036204  92.2833847  82.0549389  43.3811575
  85.3761376  83.4221976  45.2763818  84.7071751  83.9068103  44.7927858
  85.2374245  83.6691196  46.1907196  89.5166644  85.4565719  51.8746476
  90.0684952  85.6197341  52.6395561  89.8572838  86.0470157  51.2026501
  80.7448953  71.6840431  42.0559750  81.0402394  70.7751109  42.0026804
  79.8436988  71.6628170  41.7340752  92.6535031  83.4047695  48.8610158
  92.5286171  82.6037435  48.3521104  93.3114123  83.8993888  48.3724128
  94.7169940  81.2056715  50.4889708  93.7700275  81.0862066  50.4168035
  95.0652713  80.3179213  50.5715970  82.4736794  69.3654528  42.1799075
  82.1449500  68.4851907  41.9974181  82.8276165  69.3102197  43.0675464
  91.7216373  81.0009431  46.6894060  91.5741336  80.0726139  46.8701631
  92.5469867  81.0229522  46.2051136  85.5878617  69.6527498  42.5474553
  85.9274690  70.1813419  41.8253161  86.0350738  69.9907904  43.3233119
  95.3250495  81.8237990  47.7758933  96.2497042  81.6180851  47.6383384
  95.1565798  81.5754391  48.6848275  88.9338530  65.1213861  50.4504944
  89.7564599  64.6474340  50.3283834  89.1776594  65.9004345  50.9503630
  87.5746765  68.1502120  40.7467845  88.2955127  68.5283373  40.2431562
  86.9512069  68.8690997  40.8502823  91.7177887  68.8547269  41.6826178
  91.9341502  69.7371907  41.3815006  91.2371955  68.4633482  40.9531820
  88.3173492  68.8035530  48.3077812  88.3035060  67.9076623  47.9710110
  89.0345920  68.8106194  48.9416098  90.1699622  69.2372870  50.3530939
  89.9117400  70.1589941  50.3515270  89.6384663  68.8403305  51.0431403
  95.1145811  82.3423657  43.1321025  95.2882689  81.7770080  42.3794877
  95.6074702  83.1424552  42.9500515  87.7210388  67.6849910  43.5765382
  87.8426299  66.7566556  43.7756270  87.4312430  67.6988596  42.6643697
  90.5901578  65.3704821  46.7132102  90.6123275  65.4344154  45.7584081
  91.0069637  64.5309329  46.9072608 100.9685202  75.1060080  44.7511324
 101.4116348  74.3567405  44.3530448 100.0911713  75.0970217  44.3685056
  96.1020984  81.6590422  40.2317923  96.7971888  82.2797114  40.4505238
  96.4444134  80.8085773  40.5070301  98.0012407  79.1090127  41.7605254
  98.5263731  79.4477400  41.0354574  97.9134759  78.1737143  41.5768388
  89.6853068  85.1762111  46.1200507  89.2458058  84.6838489  46.8133364
  90.4361185  84.6335078  45.8792582  87.1326940  80.7200120  48.1922809
  86.5106949  80.0570825  47.8925036  87.8031807  80.7461251  47.5096456
  86.6940447  79.2704043  41.6681269  86.8428567  79.9539507  41.0147942
  87.5006890  79.2509133  42.1830725 100.5118067  76.5765319  47.1433772
 101.3464958  77.0155123  47.3071332 100.6477196  76.1003972  46.3242018
  84.4493080  75.2969221  42.6742338  84.2039122  74.3931551  42.8722548
  84.6188994  75.2986371  41.7321816  92.1389789  66.1692897  52.0567094
  92.6571733  66.9053924  51.7313582  91.7844922  66.4756890  52.8913853
  83.7188727  71.0297578  40.1728500  83.0257972  71.1041933  39.5168535
  83.4740479  70.2657922  40.6950016  92.3902384  62.5893179  47.5767990
  92.6704137  61.9216369  48.2028417  93.1752991  62.7822275  47.0642654
  90.1935852  81.7652173  39.1393017  89.6209819  82.3842361  38.6863488
  90.7668646  82.3151535  39.6732939  93.4133112  82.0489324  40.2701599
  94.3463785  81.9834885  40.4734474  93.3256325  82.8845590  39.8116132
  96.0421129  81.3655194  37.2305546  95.9634760  81.0315057  38.1241304
  96.8630795  81.8576962  37.2297019  98.7399320  74.2316933  50.4381865
  98.7075640  73.2932934  50.6241549  99.3499943  74.3100970  49.7047690
  90.5782651  73.1012986  36.4809069  91.5241755  72.9719194  36.5497487
  90.1996896  72.3627648  36.9578497  98.8893808  71.0227977  50.4840148
  98.3732857  70.2386433  50.2970077  99.7733757  70.6946693  50.6486668
  96.5504535  64.7668992  46.4435961  96.3529356  64.4584080  47.3279293
  97.1604241  65.4930631  46.5733891 104.5575870  75.2932940  49.5787902
 105.2879258  75.0318228  50.1395605 103.9482815  74.5561662  49.6189970
 102.6391167  73.4340803  50.1762353 101.9124330  73.2996768  49.5678845
 102.2238454  73.7417631  50.9819071  88.7625568  71.0262963  36.4163954
  87.8557023  70.7296075  36.4926668  89.0401549  70.7292781  35.5498241
  90.3787634  65.5699852  42.5708196  89.5688362  65.2246937  42.9463442
  91.0672050  65.2607396  43.1595807  92.3078182  64.6477899  44.1932492
  92.8609220  65.0673352  44.8522515  92.5448268  63.7213647  44.2355448
  87.5324352  67.8849898  36.5575933  88.3943516  68.2104796  36.8171751
  87.7174697  67.0981394  36.0448999  95.6856989  66.7578424  43.7011156
  95.1055658  67.4163228  43.3189209  95.4192922  65.9355769  43.2898574
  94.1360555  66.1583482  45.9032477  94.6360334  66.2700016  45.0946796
  94.7796163  65.8544535  46.5433285  94.4681867  68.9178515  42.7567505
  93.5807722  69.2028165  42.5387700  94.8835856  68.7572278  41.9094782
  97.8196403  68.9425036  46.4721844  98.5956793  69.4321488  46.7446461
  97.0944537  69.3683090  46.9293714 100.2568962  69.6552655  47.5295785
 100.8513452  69.4148391  46.8189093 100.3295545  68.9359785  48.1569321
  93.6125080  78.6823189  36.8515525  94.3160930  78.8873192  37.4673180
  92.8887729  79.2499951  37.1164608  94.4422891  74.4333051  42.9717795
  94.3858092  74.8901602  42.1325427  94.9951233  73.6723735  42.7940638
  98.2527697  70.2222782  43.7967914  97.9964631  69.8219418  44.6276122
  97.6280565  70.9366576  43.6718054 102.5640034  72.9618856  46.3039206
 102.0039592  73.0312045  47.0770768 101.9583538  72.7859840  45.5838702
  85.6335243  84.3955583  48.0557392  85.5167627  85.3401015  47.9536082
  84.8127690  84.0929144  48.4443191  95.5211778  79.1205718  38.9013985
  96.3557382  78.6886917  38.7191460  95.3596121  78.9487732  39.8290879
  95.1757670  75.6237832  40.2670324  95.1206474  75.4582103  39.3258768
  94.5503725  76.3313865  40.4232514  88.4853795  65.1245941  39.8455642
  88.4732465  66.0687781  40.0023913  89.3777217  64.9416086  39.5515104
  86.6589757  85.0483845  51.2713321  87.5617004  85.0807455  51.5879815
  86.4327127  84.1184296  51.2859656  88.4143359  83.8014831  47.9323399
  87.4638990  83.8016693  47.8187771  88.7175846  83.0547566  47.4159434
  92.3005915  61.7188717  44.1001579  91.5338311  61.1647204  44.2458262
  92.7116620  61.7910586  44.9615731  96.5715170  89.6649974  46.8682574
  95.6465666  89.5326188  47.0760266  96.8199583  90.4444193  47.3652516
 108.5260456  93.5978585  45.7264985 107.8411495  93.9777486  45.1762018
 108.6104306  94.2073911  46.4596933 103.3837617  83.8556364  49.2296901
 102.5222096  84.1537618  49.5213638 103.4100052  84.0726763  48.2977933
  92.8793406  86.7805260  47.7477405  92.0892460  87.0362789  47.2717516
  93.3704654  87.5953598  47.8529446  94.8308152  87.1449839  44.7060882
  94.0339315  87.2568534  45.2244378  94.6033744  87.4836492  43.8401772
  91.1631109  87.0335751  50.1792396  91.4139148  87.9182760  50.4449972
  91.6990658  86.8540352  49.4067488 114.9863209  90.4649248  46.8467657
 114.2326917  89.8956646  46.6911662 115.1210750  90.4311912  47.7938292
 101.2751694  83.6951524  44.6178944 100.4193291  83.3058374  44.4384583
 101.6878646  83.7743485  43.7578729 102.8050841  81.2297867  49.0170504
 102.3015637  81.1928002  48.2038309 103.0981448  82.1390610  49.0767160
  99.0493727  81.3136597  48.0236685  99.9146724  81.1179405  47.6642575
  99.1171236  81.0846949  48.9506042  96.6556046  83.5438805  45.3953052
  97.2299798  83.3213986  44.6626245  97.2427028  83.6127499  46.1481653
  98.9578714  80.4180054  44.1228122  98.3043126  80.1029071  43.4984736
  98.9159188  79.7955794  44.8487944 100.0689919  90.6999349  36.0381414
  99.1616980  90.4688602  36.2372563 100.5660951  89.9036968  36.2255395
 102.9757997  99.4096856  38.9578100 102.3019696  99.7128553  39.5663058
 103.3623819 100.2125936  38.6083557 102.1916454  86.9061987  48.4475769
 101.2739015  87.1276934  48.2897457 102.6076598  86.9808298  47.5887477
  91.8166322  88.5217458  44.5420606  91.6190722  87.9286818  43.8171672
  91.2612986  88.2169668  45.2596545 100.9454240  92.3420687  37.8993482
 100.5073670  91.6256546  37.4399120 101.6864681  92.5696802  37.3378574
  97.2269481  84.6035979  50.0366813  97.8668860  84.4624739  49.3389776
  96.3947011  84.3170493  49.6605415 109.0896734  92.6854411  48.9681072
 109.5233241  92.5929700  49.8164126 109.8028315  92.6611912  48.3301088
  94.3112548  88.0481492  42.2261558  93.3810136  87.9865947  42.4431520
  94.4070020  87.5257444  41.4298199  94.2298097  84.5736304  44.8139800
  94.4904914  85.4881638  44.7048960  95.0515269  84.1060747  44.9636413
 105.0665467  91.2005069  37.4925540 104.4494638  90.4751897  37.3958593
 104.5981956  91.9614429  37.1492614  96.8564013  85.4190493  36.6146844
  95.9793480  85.2979294  36.2509091  97.3321766  84.6276571  36.3625733
 103.3524589  83.5811413  46.5043570 103.8493289  82.8281375  46.1844640
 102.5811571  83.6175730  45.9386779 111.2054347  89.2851779  48.1461862
 111.1944223  90.1676494  47.7755795 110.3371726  88.9323329  47.9516399
 105.7943584  80.5481006  48.6522929 104.8806664  80.7785233  48.8205136
 106.2236686  80.6319451  49.5036961  87.9534130  88.2868246  48.9805818
  87.9918229  87.7531837  49.7742937  87.4474422  87.7603452  48.3616796
  95.1136954  85.0888345  48.0387298  94.3923540  85.7024313  47.8994772
  95.9030210  85.6246110  47.9603944  93.3130549  84.6946446  42.1799075
  92.9843255  83.8143825  41.9974181  93.6669919  84.6394115  43.0675464
  96.4272372  84.9819416  42.5474553  96.7668444  85.5105337  41.8253161
  96.8744492  85.3199822  43.3233119  99.7732285  80.4505779  50.4504944
 100.5958354  79.9766257  50.3283834 100.0170348  81.2296263  50.9503630
  98.4140519  83.4794037  40.7467845  99.1348882  83.8575290  40.2431562
  97.7905823  84.1982914  40.8502823  97.2970863  87.1424900  48.2596922
  97.1515444  87.4565203  49.1521204  96.8196067  87.7609800  47.7067821
  99.1567246  84.1327448  48.3077812  99.1428815  83.2368541  47.9710110
  99.8739674  84.1398111  48.9416098 101.0093377  84.5664788  50.3530939
 100.7511155  85.4881859  50.3515270 100.4778417  84.1695222  51.0431403
 105.9539566  97.6715575  43.1321025 106.1276443  97.1061997  42.3794877
 106.4468457  98.4716470  42.9500515  98.5604142  83.0141828  43.5765382
  98.6820053  82.0858474  43.7756270  98.2706185  83.0280514  42.6643697
 101.4295333  80.6996738  46.7132102 101.4517029  80.7636071  45.7584081
 101.8463392  79.8601247  46.9072608 111.8078957  90.4351998  44.7511324
 112.2510103  89.6859323  44.3530448 110.9305467  90.4262134  44.3685056
 106.9414738  96.9882339  40.2317923 107.6365643  97.6089032  40.4505238
 107.2837888  96.1377691  40.5070301 108.8406161  94.4382045  41.7605254
 109.3657485  94.7769318  41.0354574 108.7528514  93.5029060  41.5768388
 111.3511822  91.9057236  47.1433772 112.1858713  92.3447040  47.3071332
 111.4870950  91.4295889  46.3242018  94.5582482  86.3589496  40.1728500
  93.8651727  86.4333851  39.5168535  94.3134234  85.5949839  40.6950016
 103.2296138  77.9185097  47.5767990 103.5097892  77.2508286  48.2028417
 104.0146745  78.1114193  47.0642654 101.0329607  97.0944091  39.1393017
 100.4603574  97.7134278  38.6863488 101.6062400  97.6443453  39.6732939
 104.2526866  97.3781241  40.2701599 105.1857540  97.3126803  40.4734474
 104.1650079  98.2137508  39.8116132 106.8814883  96.6947112  37.2305546
 106.8028515  96.3606975  38.1241304 107.7024550  97.1868879  37.2297019
 109.5793074  89.5608851  50.4381865 109.5469394  88.6224852  50.6241549
 110.1893698  89.6392888  49.7047690 101.4176405  88.4304904  36.4809069
 102.3635510  88.3011112  36.5497487 101.0390650  87.6919566  36.9578497
 107.3898290  80.0960910  46.4435961 107.1923111  79.7875998  47.3279293
 107.9997995  80.8222549  46.5733891  99.6019322  86.3554880  36.4163954
  98.6950778  86.0587993  36.4926668  99.8795303  86.0584698  35.5498241
  90.5197263  87.6761244  46.8663001  90.2000047  86.8226552  46.5737375
  89.9730691  87.8909822  47.6220968 101.2181388  80.8991770  42.5708196
 100.4082116  80.5538855  42.9463442 101.9065805  80.5899314  43.1595807
 103.1471936  79.9769817  44.1932492 103.7002975  80.3965270  44.8522515
 103.3842023  79.0505565  44.2355448  98.3718107  83.2141815  36.5575933
  99.2337271  83.5396714  36.8171751  98.5568451  82.4273311  36.0448999
 104.9754310  81.4875400  45.9032477 105.4754088  81.5991934  45.0946796
 105.6189918  81.1836452  46.5433285 104.4518835  94.0115107  36.8515525
 105.1554685  94.2165109  37.4673180 103.7281484  94.5791869  37.1164608
 113.4033789  88.2910773  46.3039206 112.8433347  88.3603963  47.0770768
 112.7977292  88.1151758  45.5838702 106.3605532  94.4497636  38.9013985
 107.1951136  94.0178835  38.7191460 106.1989875  94.2779650  39.8290879
  99.3247550  80.4537858  39.8455642  99.3126220  81.3979698  40.0023913
 100.2170972  80.2708004  39.5515104 103.1399669  77.0480635  44.1001579
 102.3732065  76.4939122  44.2458262 103.5510374  77.1202504  44.9615731
 114.9889807 104.9667287  48.9969162 115.6268217 104.8474035  48.2932502
 114.8710650 105.9148131  49.0557114 111.7979514 104.9194715  48.9330686
 111.4598025 104.8035780  48.0451221 112.6669282 104.5185880  48.9131692
 107.6566329 106.7730192  44.9227577 107.0931194 106.6820129  44.1543865
 107.5418724 105.9530096  45.4030070 112.2799297 106.0729567  54.8916892
 112.2687937 105.6782365  54.0197395 112.4419936 105.3395640  55.4850663
 105.2030761 108.2681383  47.7611798 105.9952053 107.9272208  47.3458097
 105.4427411 108.3776358  48.6813951 113.2365888 110.4401159  40.2342042
 112.5853868 111.0255240  39.8476056 114.0310251 110.9707354  40.2937080
 107.1621515 107.5290297  40.6329176 107.9352391 106.9819284  40.4942052
 107.5146914 108.3934546  40.8443638 109.0006558 108.8566679  53.8396076
 108.7096424 109.7612310  53.7242742 109.6363542 108.8983207  54.5540145
 109.4987793 103.6882963  38.2647626 109.7513314 103.1664484  37.5031089
 108.5612352 103.5249108  38.3674310 114.5431076 102.6918741  46.0722370
 115.3294165 102.2738164  45.7212787 114.8069780 103.5964833  46.2404018
 114.7141153 108.1291591  40.7711026 114.0786986 108.2026218  41.4831931
 114.3838560 108.7185190  40.0930106 119.9439503 102.6293974  46.9755348
 120.6764675 102.0593191  47.2093178 119.1878859 102.2415575  47.4161854
 109.2184082 105.5911069  40.4672001 109.1020340 104.9155972  41.1353086
 109.3286342 105.1043443  39.6504154 111.5615623 105.0521216  44.1718691
 111.1973830 104.5251837  44.8831612 112.4182739 104.6619685  43.9985176
 111.2021110 100.0811115  39.1680039 111.3695512 100.9491352  39.5350510
 111.0118279 100.2438397  38.2441328 113.9596443 108.5428094  50.8345869
 113.6597166 109.4453133  50.7261677 113.6147502 108.2760278  51.6867022
 107.4108924 104.9941891  46.8682574 106.4859421 104.8618105  47.0760266
 107.6593338 105.7736110  47.3652516 117.3593587 101.0610635  48.5143307
 116.4510464 100.9926043  48.2202068 117.3081182 101.5382580  49.3425132
 111.1810331 102.5368773  40.1526706 111.0609956 102.9825824  40.9912186
 110.4862919 102.8854091  39.5940244 104.7717735 104.6375165  47.7026363
 104.9010117 104.8909644  48.6165775 104.0915187 105.2302873  47.3831018
 108.9417223 115.3072415  43.8016837 108.8641252 116.2580240  43.8805318
 108.3378866 114.9618287  44.4591763 119.2255233  99.2627073  50.2921181
 118.5829613  99.5559606  49.6460975 118.7210162  99.1479993  51.0974377
 116.8795397 103.0090246  40.9807040 117.7913253 103.2417633  40.8054737
 116.3705044 103.5927290  40.4182119 115.1636164 107.4314874  54.6168333
 115.5719520 106.9897285  53.8722965 114.4413426 106.8567502  54.8702525
 115.4864979 107.9916065  48.3720621 114.8573841 108.1561779  47.6696689
 115.0990641 108.4057674  49.1431585 119.3654211 108.9270502  45.7264985
 118.6805249 109.3069404  45.1762018 119.4498060 109.5365829  46.4596933
 114.6666680 100.0291849  53.6483063 114.4227612 100.7833910  53.1117339
 114.9426610 100.4077197  54.4830310 116.6205143 106.5730462  52.3260329
 116.8322038 107.2162221  51.6494710 116.5734891 105.7392778  51.8582259
 114.2231371  99.1848282  49.2296901 113.3615851  99.4829536  49.5213638
 114.2493806  99.4018681  48.2977933 111.0392941 107.7290473  45.6370707
 111.5031286 108.0078176  44.8475329 110.7749739 106.8273917  45.4543797
 107.9317022 107.2761954  48.5750470 108.5018379 107.7049223  47.9367954
 108.5225134 106.9944539  49.2734655 109.9761827 103.8513625  42.4460272
 110.6785870 104.3034669  42.9134198 109.6442455 103.2097444  43.0740165
 117.7350970 109.4502417  50.4982686 118.5568414 109.0482604  50.2165368
 117.7313373 109.3470651  51.4498802 105.6701906 102.4741757  44.7060882
 104.8733070 102.5860451  45.2244378 105.4427498 102.8128409  43.8401772
 111.5007574 108.9986460  52.6543397 111.5652006 109.4606867  53.4901568
 110.7918498 108.3683825  52.7825706 125.8256964 105.7941165  46.8467657
 125.0720672 105.2248563  46.6911662 125.9604505 105.7603830  47.7938292
 111.2155592 110.6654568  42.5222377 111.0801266 111.5106103  42.9507225
 111.7565404 110.8673845  41.7588311 104.6684989 108.1830006  43.0950302
 105.1809510 108.9773256  43.2455867 105.3207702 107.4856296  43.0283903
 106.4779874 111.2995762  45.1773055 106.6546502 112.2213727  44.9894039
 107.2736707 110.9854181  45.6067435 112.8424068 111.2878134  56.6522719
 112.3987922 110.5014513  56.3343623 113.5041282 111.4757285  55.9866610
 107.6011189 112.8173936  51.1783397 108.1518614 112.6890999  50.4060391
 106.7622665 113.1168825  50.8278290 114.9405306 111.5680934  54.6804120
 114.9223781 112.3889815  54.1884389 115.8625226 111.4435009  54.9054261
 111.3978360 109.0825064  55.5227629 111.9306697 108.3213352  55.2926937
 110.8692441 108.7898715  56.2651783 102.6333906 106.5118660  43.8709872
 103.4709128 106.9215668  43.6543580 102.8112173 105.5718102  43.8410066
 114.5298338 104.1793741  39.5593705 114.0144961 104.9498345  39.7982093
 114.2575646 103.5058877  40.1826767 112.1145449  99.0243441  44.6178944
 111.2587045  98.6350292  44.4384583 112.5272401  99.1035402  43.7578729
 113.6444596  96.5589785  49.0170504 113.1409391  96.5219920  48.2038309
 113.9375202  97.4682527  49.0767160 109.8887481  96.6428514  48.0236685
 110.7540478  96.4471323  47.6642575 109.9564990  96.4138866  48.9506042
 119.5032612 106.9326095  41.4946879 118.7262055 106.5937255  41.0502041
 120.1824093 106.9378719  40.8201844 114.3184641 102.0520833  41.3853487
 114.0134777 102.3666982  42.2363630 115.2715083 102.1302253  41.4280820
 112.7631073 108.2111056  43.0346441 112.2352434 107.4763816  42.7219678
 112.2618576 108.9885732  42.7886409 117.7423919 106.4060077  48.1513487
 117.0847593 107.0959338  48.2393616 118.5464318 106.7956509  48.4947473
 107.4949800  98.8730722  45.3953052 108.0693552  98.6505904  44.6626245
 108.0820783  98.9419417  46.1481653 116.5529378 104.7604449  46.2017429
 117.0661259 105.3934441  46.7039138 117.2030602 104.1605645  45.8360789
 107.8219388 100.9035183  39.4148937 106.9856700 101.2409870  39.7358212
 107.6824157 100.7684163  38.4776074 109.7972468  95.7471971  44.1228122
 109.1436881  95.4320988  43.4984736 109.7552942  95.1247712  44.8487944
 110.9083673 106.0291266  36.0381414 110.0010735 105.7980520  36.2372563
 111.4054705 105.2328886  36.2255395 113.8151752 114.7388774  38.9578100
 113.1413451 115.0420470  39.5663058 114.2017574 115.5417854  38.6083557
 113.0310209 102.2353905  48.4475769 112.1132770 102.4568852  48.2897457
 113.4470352 102.3100215  47.5887477 113.8145256 103.6345321  43.5778449
 114.5617075 104.1466718  43.2685571 114.0836846 103.3129373  44.4382843
 112.0871906 106.1303861  40.5605404 111.1783126 105.8462894  40.6577873
 112.1166990 106.5502940  39.7008711 117.3191174 109.7410451  44.3296571
 116.8653501 108.9001361  44.3861762 116.6885141 110.3771849  44.6671351
 116.2624093 100.6702437  45.5597239 115.5246850 100.1579823  45.8907481
 116.5150867 100.2302818  44.7480516 115.7624113 111.5786947  45.2646389
 116.0547088 112.1392005  44.5458755 116.2722734 111.8715508  46.0199549
 116.3635721  93.4478689  46.1539008 116.6694598  92.5876052  45.8664923
 117.0888326  94.0396309  45.9538002 102.6560077 103.8509375  44.5420606
 102.4584477 103.2578736  43.8171672 102.1006741 103.5461586  45.2596545
 110.6356801 103.7432482  46.6615199 110.6905410 102.7906318  46.5857676
 109.8248003 103.8991921  47.1456497 111.7847994 107.6712605  37.8993482
 111.3467424 106.9548464  37.4399120 112.5258435 107.8988720  37.3378574
 108.5749160 102.3609542  44.4205578 107.7617026 102.6603712  44.8270770
 109.0708155 101.9665230  45.1380060 110.7257738 112.3567299  46.3539843
 110.6833917 112.5828145  45.4248375 111.6420437 112.1230673  46.5025644
 114.1723372 102.8251366  53.2520472 114.5272760 103.0522839  54.1114938
 114.8195503 103.1569743  52.6297727 119.9021109 105.9469802  43.9569801
 119.7639008 106.1371398  43.0290990 119.5457328 106.7089185  44.4137852
 119.9290489 108.0146329  48.9681072 120.3626995 107.9221618  49.8164126
 120.6422069 107.9903829  48.3301088 108.8423539 109.2330328  46.1501805
 109.6364138 108.7380648  45.9484380 108.1315232 108.7048191  45.7869511
 113.6618384 111.6148423  50.5014173 113.7155406 112.1839359  51.2691889
 112.7933165 111.7850308  50.1368210 105.1506303 103.3773409  42.2261558
 104.2203891 103.3157865  42.4431520 105.2463775 102.8549362  41.4298199
 105.0691852  99.9028222  44.8139800 105.3298669 100.8173555  44.7048960
 105.8909024  99.4352665  44.9636413 120.7906038 108.0570030  51.5013958
 120.9841928 108.9615840  51.7473233 120.6906656 107.5977449  52.3352543
 115.8521147 108.2076772  57.0754838 115.7006653 107.9787324  56.1584922
 115.8425826 109.1647374  57.0886183 112.6206483 105.7808685  52.0601105
 113.5498543 105.9319845  51.8870072 112.1997513 105.8692706  51.2049751
 111.4194815 109.8059350  49.8299642 111.2805901 109.4378134  50.7025581
 110.6309411 110.3206989  49.6583600 112.0142967 114.9068446  41.1725179
 112.1894723 114.4356489  41.9870802 111.3275755 115.5334212  41.4006440
 112.9700030 109.1840952  47.2188480 112.6349863 109.1441722  48.1146130
 112.4703976 108.5185668  46.7458890 115.9059222 106.5296987  37.4925540
 115.2888393 105.8043815  37.3958593 115.4375710 107.2906347  37.1492614
 117.5613354 111.2395895  55.1531320 117.5025900 110.5555115  54.4861903
 117.9632872 111.9814885  54.7011946 106.5804052 118.0557809  47.9465039
 106.8200651 118.6876333  48.6244058 105.7373249 117.7045849  48.2330398
 107.6957768 100.7482411  36.6146844 106.8187234 100.6271212  36.2509091
 108.1715521  99.9568489  36.3625733 117.5630761 109.2035479  53.3845300
 116.6757540 108.8661401  53.5071699 118.1329312 108.4718510  53.6214065
  99.2159908 105.5359571  46.7088351  99.9030948 105.2221301  46.1209367
  99.0608037 106.4400935  46.4355603 111.0931914 113.8636931  50.3506543
 111.0202086 114.6691903  50.8625848 110.6509307 114.0628897  49.5254565
 110.8821694 113.1008701  43.8609365 110.0989216 113.6430381  43.9547589
 111.5814439 113.6182681  44.2603606 114.1918344  98.9103331  46.5043570
 114.6887044  98.1573293  46.1844640 113.4205325  98.9467647  45.9386779
 122.0448101 104.6143696  48.1461862 122.0337978 105.4968412  47.7755795
 121.1765481 104.2615247  47.9516399 113.5530598 113.7623765  52.5064702
 114.2658570 114.3971230  52.4340603 113.0620626 113.8587631  51.6904704
 115.2748125 107.6675018  44.0781993 114.3404403 107.7876480  43.9086698
 115.4524793 106.7647485  43.8142003 110.7753313 101.0520714  46.2315255
 110.4051100 100.4991754  46.9196160 111.2712405 100.4478847  45.6790255
 118.6620676 103.5092337  44.6132028 119.1281128 104.3420329  44.5392330
 119.1128177 103.0437319  45.3177286 108.6042511 111.5118209  53.3270273
 109.3051971 112.1454692  53.4799667 108.1337626 111.8532940  52.5665912
 116.7296907 109.8536158  41.6118180 117.0056751 109.7392753  42.5212054
 115.8601406 109.4553643  41.5730353 116.6337339  95.8772924  48.6522929
 115.7200419  96.1077151  48.8205136 117.0630440  95.9611368  49.5036961
 116.4043797 104.0662816  51.1522823 115.7515247 104.3138724  50.4975276
 116.7824177 103.2526954  50.8185300 113.3650971 114.1022509  45.2550993
 113.5473366 113.2844165  45.7178746 114.1883957 114.3190202  44.8175883
 113.6993137 113.0290694  42.5166042 114.2280903 112.5183149  41.9036204
 113.9621356 112.7133225  43.3811575 112.4531370 104.8082627  57.6388860
 111.7772007 104.7076757  58.3091235 113.2759004 104.6521841  58.1024857
 104.2010229 111.0454564  50.2601375 104.7863666 110.2998252  50.3929279
 104.0035068 111.3558520  51.1438039 107.0548885 114.0805811  45.2763818
 106.3859260 114.5651939  44.7927858 106.9161754 114.3275032  46.1907196
 111.1954153 116.1149555  51.8746476 111.7472461 116.2781176  52.6395561
 111.5360347 116.7053992  51.2026501 116.0465027 110.9410812  57.7295130
 116.5904931 111.5540770  57.2350085 115.4651872 111.4990391  58.2462143
 102.4236462 102.3424266  42.0559750 102.7189903 101.4334945  42.0026804
 101.5224497 102.3212006  41.7340752 114.3322540 114.0631530  48.8610158
 114.2073680 113.2621270  48.3521104 114.9901632 114.5577724  48.3724128
 105.9530709 100.4180263  48.0387298 105.2317294 101.0316230  47.8994772
 106.7423964 100.9538028  47.9603944 116.3957449 111.8640550  50.4889708
 115.4487784 111.7445901  50.4168035 116.7440222 110.9763048  50.5715970
 104.1524303 100.0238364  42.1799075 103.8237009  99.1435743  41.9974181
 104.5063674  99.9686032  43.0675464 113.4003882 111.6593266  46.6894060
 113.2528845 110.7309974  46.8701631 114.2257376 111.6813357  46.2051136
 107.2666126 100.3111334  42.5474553 107.6062199 100.8397255  41.8253161
 107.7138247 100.6491740  43.3233119 117.0038004 112.4821825  47.7758933
 117.9284551 112.2764687  47.6383384 116.8353307 112.2338226  48.6848275
 109.2534274  98.8085955  40.7467845 109.9742636  99.1867208  40.2431562
 108.6299578  99.5274832  40.8502823 113.3965396  99.5131104  41.6826178
 113.6129011 100.3955742  41.3815006 112.9159464  99.1217318  40.9531820
 109.9961001  99.4619365  48.3077812 109.9822569  98.5660459  47.9710110
 110.7133429  99.4690029  48.9416098 111.8487131  99.8956706  50.3530939
 111.5904909 100.8173776  50.3515270 111.3172172  99.4987140  51.0431403
 116.7933320 113.0007493  43.1321025 116.9670198 112.4353915  42.3794877
 117.2862211 113.8008388  42.9500515 109.3997897  98.3433746  43.5765382
 109.5213808  97.4150392  43.7756270 109.1099939  98.3572432  42.6643697
 112.2689087  96.0288656  46.7132102 112.2910784  96.0927989  45.7584081
 112.6857146  95.1893165  46.9072608 122.6472711 105.7643916  44.7511324
 123.0903857 105.0151241  44.3530448 121.7699222 105.7554052  44.3685056
 117.7808493 112.3174257  40.2317923 118.4759397 112.9380950  40.4505238
 118.1231643 111.4669608  40.5070301 119.6799916 109.7673963  41.7605254
 120.2051240 110.1061235  41.0354574 119.5922268 108.8320978  41.5768388
 111.3419964 113.6808036  53.8895130 111.6507091 113.4357183  54.7617830
 112.1395447 113.8854675  53.4014001 111.3640577 115.8345946  46.1200507
 110.9245567 115.3422325  46.8133364 112.1148693 115.2918914  45.8792582
 103.8432916 112.0257487  46.1225135 104.6690935 111.7261259  45.7423779
 103.4926968 111.2565109  46.5714924 108.8114449 111.3783955  48.1922809
 108.1894458 110.7154660  47.8925036 109.4819316 111.4045087  47.5096456
 102.0441521 109.9443813  47.0814069 101.2073429 109.5165988  46.8998070
 102.0165166 110.1376257  48.0184860 119.3693822 110.4006866  57.0656452
 118.5789366 110.3831005  56.5260951 119.1327176 110.9395160  57.8205488
 119.4891697 107.2499333  54.3789180 119.5389702 107.0849340  55.3204703
 119.3805620 106.3826592  53.9887061 108.3727956 109.9287878  41.6681269
 108.5216076 110.6123343  41.0147942 109.1794399 109.9092968  42.1830725
 116.7795459 103.2330261  55.6948487 117.6805322 103.0936725  55.4032485
 116.8543434 103.3984715  56.6346664 120.9909894 109.6696274  54.6231202
 120.6994702 110.0326255  55.4594663 120.3782025 108.9563282  54.4444534
 122.1905576 107.2349154  47.1433772 123.0252467 107.6738958  47.3071332
 122.3264705 106.7587807  46.3242018 119.2397082 104.7928889  53.0911260
 119.7151204 104.9856535  52.2830111 118.3162647 104.8488075  52.8454643
 106.1280589 105.9553056  42.6742338 105.8826631 105.0515386  42.8722548
 106.2976503 105.9570206  41.7321816 105.3976236 101.6881414  40.1728500
 104.7045481 101.7625768  39.5168535 105.1527988 100.9241757  40.6950016
 114.0689893  93.2477015  47.5767990 114.3491646  92.5800204  48.2028417
 114.8540500  93.4406110  47.0642654 111.8723361 112.4236009  39.1393017
 111.2997328 113.0426196  38.6863488 112.4456155 112.9735370  39.6732939
 117.9398751 101.6694649  51.3239565 118.8916174 101.7692747  51.3451789
 117.7702201 100.8772917  51.8337650 115.9613130  98.7550232  51.5098966
 115.3663063  99.0355245  50.8145455 115.6762827  99.2444133  52.2815707
 115.0920621 112.7073159  40.2701599 116.0251294 112.6418721  40.4734474
 115.0043834 113.5429426  39.8116132 117.7208638 112.0239029  37.2305546
 117.6422269 111.6898893  38.1241304 118.5418304 112.5160797  37.2297019
 120.4186829 104.8900769  50.4381865 120.3863149 103.9516769  50.6241549
 121.0287452 104.9684805  49.7047690 112.2570160 103.7596822  36.4809069
 113.2029264 103.6303030  36.5497487 111.8784405 103.0211483  36.9578497
 120.5681317 101.6811812  50.4840148 120.0520366 100.8970269  50.2970077
 121.4521266 101.3530529  50.6486668 118.2292044  95.4252828  46.4435961
 118.0316865  95.1167916  47.3279293 118.8391750  96.1514466  46.5733891
 126.2363379 105.9516775  49.5787902 126.9666767 105.6902064  50.1395605
 125.6270324 105.2145497  49.6189970 124.3178676 104.0924638  50.1762353
 123.5911839 103.9580603  49.5678845 123.9025963 104.4001467  50.9819071
 112.1408852 107.8114568  57.9409726 113.0611862 107.9893167  58.1349773
 112.1058435 106.8670613  57.7889425 110.4413077 101.6846798  36.4163954
 109.5344532 101.3879911  36.4926668 110.7189058 101.3876616  35.5498241
 112.0575142  96.2283688  42.5708196 111.2475871  95.8830773  42.9463442
 112.7459559  95.9191231  43.1595807 113.9865691  95.3061734  44.1932492
 114.5396729  95.7257188  44.8522515 114.2235777  94.3797483  44.2355448
 109.2111861  98.5433733  36.5575933 110.0731025  98.8688631  36.8171751
 109.3962206  97.7565229  36.0448999 101.2279277 106.6256073  48.8356122
 100.5342749 106.2110026  48.3226077 101.9752268 106.6676609  48.2389541
 117.3644498  97.4162260  43.7011156 116.7843167  98.0747064  43.3189209
 117.0980431  96.5939604  43.2898574 115.8148064  96.8167317  45.9032477
 116.3147843  96.9283852  45.0946796 116.4583672  96.5128370  46.5433285
 109.8730060 104.7245947  58.7900318 109.3897142 105.5246307  58.9964207
 109.9590999 104.7353892  57.8367762 103.1416020 106.5574327  46.7122137
 103.1186708 106.6562014  45.7604020 103.4516656 107.4039477  47.0339303
 105.8003398 108.6150482  50.8268752 106.7546651 108.5834424  50.7598683
 105.6015921 108.1541105  51.6418977 106.3902780 107.1851598  53.3939549
 107.2095669 107.6795676  53.4174387 106.6639587 106.2683566  53.3657117
 116.1469376  99.5762350  42.7567505 115.2595231  99.8612001  42.5387700
 116.5623365  99.4156113  41.9094782 119.4983912  99.6008871  46.4721844
 120.2744302 100.0905323  46.7446461 118.7732046 100.0266925  46.9293714
 121.9356471 100.3136490  47.5295785 122.5300961 100.0732226  46.8189093
 122.0083054  99.5943621  48.1569321 104.1553626 114.1570101  47.8438949
 104.0208094 113.3970502  47.2776947 103.7385689 114.8811001  47.3767738
 115.2912589 109.3407025  36.8515525 115.9948439 109.5457027  37.4673180
 114.5675238 109.9083787  37.1164608 116.1210400 105.0916886  42.9717795
 116.0645601 105.5485437  42.1325427 116.6738742 104.3307570  42.7940638
 119.9315206 100.8806618  43.7967914 119.6752140 100.4803253  44.6276122
 119.3068074 101.5950412  43.6718054 124.2427543 103.6202691  46.3039206
 123.6827101 103.6895880  47.0770768 123.6371047 103.4443676  45.5838702
 107.3122752 115.0539418  48.0557392 107.1955136 115.9984851  47.9536082
 106.4915198 114.7512980  48.4443191 117.1999287 109.7789554  38.9013985
 118.0344891 109.3470752  38.7191460 117.0383630 109.6071568  39.8290879
 116.8545179 106.2821667  40.2670324 116.7993983 106.1165939  39.3258768
 116.2291234 106.9897700  40.4232514 114.1691086 108.5870579  59.5923887
 115.0382246 108.7611231  59.2310522 113.6897838 109.4064996  59.4699616
 110.1641304  95.7829776  39.8455642 110.1519974  96.7271616  40.0023913
 111.0564726  95.5999922  39.5515104 108.3377266 115.7067680  51.2713321
 109.2404513 115.7391290  51.5879815 108.1114636 114.7768131  51.2859656
 110.0930868 114.4598667  47.9323399 109.1426499 114.4600528  47.8187771
 110.3963355 113.7131401  47.4159434 113.9793424  92.3772553  44.1001579
 113.2125820  91.8231039  44.2458262 114.3904129  92.4494422  44.9615731
 125.8283562 120.2959205  48.9969162 126.4661972 120.1765952  48.2932502
 125.7104405 121.2440049  49.0557114 122.6373268 120.2486633  48.9330686
 122.2991780 120.1327698  48.0451221 123.5063036 119.8477798  48.9131692
 118.4960084 122.1022109  44.9227577 117.9324949 122.0112046  44.1543865
 118.3812479 121.2822014  45.4030070 123.1193051 121.4021485  54.8916892
 123.1081692 121.0074283  54.0197395 123.2813691 120.6687557  55.4850663
 116.0424516 123.5973301  47.7611798 116.8345808 123.2564126  47.3458097
 116.2821166 123.7068276  48.6813951 124.0759643 125.7693077  40.2342042
 123.4247622 126.3547158  39.8476056 124.8704005 126.2999272  40.2937080
 118.0015270 122.8582214  40.6329176 118.7746146 122.3111201  40.4942052
 118.3540669 123.7226464  40.8443638 119.8400312 124.1858597  53.8396076
 119.5490178 125.0904227  53.7242742 120.4757297 124.2275124  54.5540145
 120.7656519 121.5635445  50.4297435 121.3620091 121.3391467  49.7154398
 120.8231491 120.8220191  51.0322883 120.3381548 119.0174880  38.2647626
 120.5907068 118.4956402  37.5031089 119.4006107 118.8541026  38.3674310
 125.3824830 118.0210659  46.0722370 126.1687920 117.6030082  45.7212787
 125.6463535 118.9256751  46.2404018 125.5534908 123.4583509  40.7711026
 124.9180741 123.5318136  41.4831931 125.2232314 124.0477108  40.0930106
 130.7833257 117.9585892  46.9755348 131.5158429 117.3885109  47.2093178
 130.0272613 117.5707492  47.4161854 120.0577836 120.9202986  40.4672001
 119.9414094 120.2447890  41.1353086 120.1680096 120.4335360  39.6504154
 122.4009377 120.3813133  44.1718691 122.0367584 119.8543754  44.8831612
 123.2576493 119.9911603  43.9985176 128.3058678 111.6707466  51.4349957
 127.9742003 112.5402877  51.2111172 127.7104291 111.3543750  52.1143987
 122.0414864 115.4103033  39.1680039 122.2089267 116.2783270  39.5350510
 121.8512033 115.5730315  38.2441328 124.7990197 123.8720012  50.8345869
 124.4990920 124.7745051  50.7261677 124.4541257 123.6052195  51.6867022
 118.2502679 120.3233809  46.8682574 117.3253175 120.1910023  47.0760266
 118.4987092 121.1028028  47.3652516 128.1987341 116.3902552  48.5143307
 127.2904218 116.3217961  48.2202068 128.1474937 116.8674497  49.3425132
 122.0204085 117.8660691  40.1526706 121.9003710 118.3117741  40.9912186
 121.3256673 118.2146008  39.5940244 115.6111490 119.9667082  47.7026363
 115.7403871 120.2201561  48.6165775 114.9308941 120.5594790  47.3831018
 119.7810977 130.6364332  43.8016837 119.7035007 131.5872158  43.8805318
 119.1772621 130.2910205  44.4591763 122.2728207 117.8092198  56.4578204
 121.4961541 118.3686118  56.4481069 122.9118770 118.2948981  56.9793074
 130.0648988 114.5918991  50.2921181 129.4223368 114.8851524  49.6460975
 129.5603916 114.4771911  51.0974377 127.7189151 118.3382164  40.9807040
 128.6307007 118.5709551  40.8054737 127.2098798 118.9219208  40.4182119
 120.5274579 120.6177651  56.0196171 121.2689264 121.1562695  55.7430995
 119.8211565 121.2443940  56.1767723 126.0029919 122.7606792  54.6168333
 126.4113275 122.3189202  53.8722965 125.2807180 122.1859419  54.8702525
 122.3560989 117.6979398  51.9901889 123.2022184 118.1218812  52.1336538
 122.2959627 117.0413023  52.6840453 126.3258734 123.3207982  48.3720621
 125.6967596 123.4853696  47.6696689 125.9384396 123.7349592  49.1431585
 130.2047965 124.2562420  45.7264985 129.5199004 124.6361322  45.1762018
 130.2891815 124.8657747  46.4596933 125.5060434 115.3583767  53.6483063
 125.2621366 116.1125827  53.1117339 125.7820365 115.7369114  54.4830310
 127.4598897 121.9022379  52.3260329 127.6715792 122.5454139  51.6494710
 127.4128645 121.0684696  51.8582259 125.0625126 114.5140200  49.2296901
 124.2009605 114.8121453  49.5213638 125.0887561 114.7310599  48.2977933
 121.8786695 123.0582390  45.6370707 122.3425041 123.3370093  44.8475329
 121.6143493 122.1565835  45.4543797 118.7710776 122.6053872  48.5750470
 119.3412134 123.0341140  47.9367954 119.3618888 122.3236457  49.2734655
 120.8155581 119.1805543  42.4460272 121.5179625 119.6326586  42.9134198
 120.4836210 118.5389362  43.0740165 119.2635943 117.7717299  56.8211481
 118.6334604 118.4533580  57.0546878 119.1572031 117.6600381  55.8764619
 114.5580915 117.4389095  47.7477405 113.7679969 117.6946624  47.2717516
 115.0492163 118.2537433  47.8529446 128.5744725 124.7794335  50.4982686
 129.3962169 124.3774522  50.2165368 128.5707128 124.6762569  51.4498802
 116.5095661 117.8033675  44.7060882 115.7126824 117.9152369  45.2244378
 116.2821253 118.1420327  43.8401772 122.3401328 124.3278378  52.6543397
 122.4045761 124.7898785  53.4901568 121.6312252 123.6975743  52.7825706
 112.8418618 117.6919586  50.1792396 113.0926657 118.5766596  50.4449972
 113.3778167 117.5124187  49.4067488 136.6650718 121.1233083  46.8467657
 135.9114426 120.5540481  46.6911662 136.7998259 121.0895748  47.7938292
 122.0549346 125.9946485  42.5222377 121.9195021 126.8398021  42.9507225
 122.5959159 126.1965763  41.7588311 118.5416686 112.0738065  59.1836732
 118.1483631 111.5204264  59.8584376 119.3582826 112.3848644  59.5743250
 115.5078743 123.5121923  43.0950302 116.0203264 124.3065174  43.2455867
 116.1601456 122.8148214  43.0283903 117.3173628 126.6287680  45.1773055
 117.4940256 127.5505644  44.9894039 118.1130462 126.3146099  45.6067435
 121.4584647 113.4895944  56.7756989 122.1994360 114.0903097  56.6961451
 121.6902570 112.7473582  56.2175031 116.6025985 118.6752312  55.0535218
 116.4879500 117.7737569  55.3542317 115.7470502 118.9216008  54.7020035
 123.6817822 126.6170052  56.6522719 123.2381677 125.8306430  56.3343623
 124.3435036 126.8049202  55.9866610 118.4404944 128.1465853  51.1783397
 118.9912369 128.0182917  50.4060391 117.6016420 128.4460743  50.8278290
 125.7799061 126.8972852  54.6804120 125.7617536 127.7181733  54.1884389
 126.7018981 126.7726927  54.9054261 122.2372115 124.4116981  55.5227629
 122.7700451 123.6505269  55.2926937 121.7086196 124.1190633  56.2651783
 125.4041810 109.5177047  51.0521270 125.0606079 110.4078689  50.9760381
 125.7720772 109.3278705  50.1890855 113.4727660 121.8410578  43.8709872
 114.3102882 122.2507586  43.6543580 113.6505928 120.9010020  43.8410066
 125.3692092 119.5085658  39.5593705 124.8538716 120.2790263  39.7982093
 125.0969401 118.8350795  40.1826767 122.9539203 114.3535359  44.6178944
 122.0980800 113.9642210  44.4384583 123.3666155 114.4327320  43.7578729
 124.4838350 111.8881702  49.0170504 123.9803146 111.8511838  48.2038309
 124.7768957 112.7974445  49.0767160 120.7281236 111.9720432  48.0236685
 121.5934233 111.7763241  47.6642575 120.7958745 111.7430784  48.9506042
 130.3426366 122.2618013  41.4946879 129.5655809 121.9229173  41.0502041
 131.0217847 122.2670636  40.8201844 125.1578396 117.3812750  41.3853487
 124.8528531 117.6958900  42.2363630 126.1108838 117.4594170  41.4280820
 123.6024827 123.5402974  43.0346441 123.0746189 122.8055733  42.7219678
 123.1012330 124.3177650  42.7886409 128.5817673 121.7351994  48.1513487
 127.9241348 122.4251256  48.2393616 129.3858073 122.1248426  48.4947473
 118.3343555 114.2022640  45.3953052 118.9087307 113.9797822  44.6626245
 118.9214537 114.2711335  46.1481653 127.3923132 120.0896367  46.2017429
 127.9055014 120.7226359  46.7039138 128.0424356 119.4897562  45.8360789
 118.6613142 116.2327101  39.4148937 117.8250454 116.5701788  39.7358212
 118.5217912 116.0976081  38.4776074 120.6366223 111.0763889  44.1228122
 119.9830635 110.7612906  43.4984736 120.5946697 110.4539629  44.8487944
 121.7477428 121.3583184  36.0381414 120.8404489 121.1272438  36.2372563
 122.2448460 120.5620803  36.2255395 124.6545506 130.0680691  38.9578100
 123.9807205 130.3712388  39.5663058 125.0411328 130.8709772  38.6083557
 123.8703963 117.5645823  48.4475769 122.9526524 117.7860770  48.2897457
 124.2864107 117.6392133  47.5887477 124.6539011 118.9637238  43.5778449
 125.4010830 119.4758635  43.2685571 124.9230600 118.6421291  44.4382843
 122.9265661 121.4595779  40.5605404 122.0176880 121.1754812  40.6577873
 122.9560745 121.8794857  39.7008711 128.1584928 125.0702368  44.3296571
 127.7047256 124.2293278  44.3861762 127.5278895 125.7063767  44.6671351
 127.1017848 115.9994354  45.5597239 126.3640605 115.4871741  45.8907481
 127.3544621 115.5594736  44.7480516 126.6017868 126.9078865  45.2646389
 126.8940842 127.4683922  44.5458755 127.1116488 127.2007426  46.0199549
 127.2029475 108.7770606  46.1539008 127.5088352 107.9167970  45.8664923
 127.9282080 109.3688227  45.9538002 113.4953831 119.1801293  44.5420606
 113.2978231 118.5870654  43.8171672 112.9400495 118.8753503  45.2596545
 121.4750555 119.0724400  46.6615199 121.5299165 118.1198236  46.5857676
 120.6641757 119.2283839  47.1456497 122.6241749 123.0004523  37.8993482
 122.1861179 122.2840382  37.4399120 123.3652190 123.2280637  37.3378574
 119.4142915 117.6901459  44.4205578 118.6010780 117.9895630  44.8270770
 119.9101909 117.2957148  45.1380060 121.5651493 127.6859216  46.3539843
 121.5227672 127.9120063  45.4248375 122.4814192 127.4522591  46.5025644
 125.0117127 118.1543284  53.2520472 125.3666514 118.3814757  54.1114938
 125.6589258 118.4861661  52.6297727 130.7414864 121.2761720  43.9569801
 130.6032762 121.4663316  43.0290990 130.3851082 122.0381102  44.4137852
 118.9056990 115.2619815  50.0366813 119.5456369 115.1208574  49.3389776
 118.0734520 114.9754328  49.6605415 130.7684243 123.3438247  48.9681072
 131.2020750 123.2513536  49.8164126 131.4815824 123.3195747  48.3301088
 119.6817294 124.5622245  46.1501805 120.4757892 124.0672565  45.9484380
 118.9708986 124.0340108  45.7869511 124.5012138 126.9440341  50.5014173
 124.5549160 127.5131277  51.2691889 123.6326919 127.1142226  50.1368210
 115.9900057 118.7065327  42.2261558 115.0597645 118.6449782  42.4431520
 116.0857529 118.1841280  41.4298199 115.9085606 115.2320140  44.8139800
 116.1692423 116.1465473  44.7048960 116.7302778 114.7644582  44.9636413
 117.3810531 116.6457897  51.9838624 118.0533585 116.4375259  51.3351273
 116.5540318 116.4479983  51.5443857 131.6299793 123.3861947  51.5013958
 131.8235683 124.2907758  51.7473233 131.5300411 122.9269366  52.3352543
 123.2836103 113.2719838  54.0004285 122.6364019 113.9709788  53.9068762
 124.0537119 113.7055982  54.3680533 126.6914901 123.5368690  57.0754838
 126.5400408 123.3079242  56.1584922 126.6819581 124.4939291  57.0886183
 123.4600238 121.1100603  52.0601105 124.3892298 121.2611762  51.8870072
 123.0391268 121.1984624  51.2049751 122.2588570 125.1351267  49.8299642
 122.1199655 124.7670052  50.7025581 121.4703166 125.6498907  49.6583600
 122.8536722 130.2360364  41.1725179 123.0288477 129.7648407  41.9870802
 122.1669510 130.8626130  41.4006440 123.8093785 124.5132870  47.2188480
 123.4743617 124.4733640  48.1146130 123.3097730 123.8477586  46.7458890
 117.7838029 119.9200500  52.7441061 117.6457827 119.1880739  53.3452600
 118.6942952 119.8309400  52.4625249 126.7452976 121.8588904  37.4925540
 126.1282147 121.1335732  37.3958593 126.2769465 122.6198265  37.1492614
 120.4120329 119.6320459  52.2324741 121.1219948 118.9913651  52.1911359
 120.3689638 119.8833354  53.1550922 128.4007108 126.5687813  55.1531320
 128.3419654 125.8847033  54.4861903 128.8026626 127.3106803  54.7011946
 119.1249263 116.6185677  54.0520381 118.5886620 116.1676416  54.7041977
 118.5365972 116.7531586  53.3090845 117.4197807 133.3849726  47.9465039
 117.6594405 134.0168251  48.6244058 116.5767003 133.0337766  48.2330398
 118.5351522 116.0774329  36.6146844 117.6580989 115.9563129  36.2509091
 119.0109275 115.2860407  36.3625733 128.4024515 124.5327397  53.3845300
 127.5151294 124.1953318  53.5071699 128.9723066 123.8010428  53.6214065
 110.0553662 120.8651488  46.7088351 110.7424702 120.5513218  46.1209367
 109.9001791 121.7692853  46.4355603 114.8588385 115.7541685  51.1373375
 114.7746573 115.1467354  50.4023785 114.0371091 116.2450703  51.1382871
 121.9325669 129.1928849  50.3506543 121.8595840 129.9983820  50.8625848
 121.4903062 129.3920815  49.5254565 121.7215448 128.4300619  43.8609365
 120.9382970 128.9722299  43.9547589 122.4208194 128.9474599  44.2603606
 125.0312098 114.2395248  46.5043570 125.5280798 113.4865211  46.1844640
 124.2599080 114.2759565  45.9386779 132.8841856 119.9435614  48.1461862
 132.8731732 120.8260329  47.7755795 132.0159235 119.5907165  47.9516399
 124.3924352 129.0915683  52.5064702 125.1052324 129.7263148  52.4340603
 123.9014381 129.1879549  51.6904704 126.1141879 122.9966936  44.0781993
 125.1798158 123.1168398  43.9086698 126.2918548 122.0939402  43.8142003
 121.6147067 116.3812631  46.2315255 121.2444855 115.8283672  46.9196160
 122.1106160 115.7770765  45.6790255 129.5014431 118.8384255  44.6132028
 129.9674883 119.6712246  44.5392330 129.9521931 118.3729236  45.3177286
 119.4436266 126.8410126  53.3270273 120.1445725 127.4746609  53.4799667
 118.9731381 127.1824858  52.5665912 127.5690662 125.1828076  41.6118180
 127.8450506 125.0684671  42.5212054 126.6995160 124.7845561  41.5730353
 127.4731093 111.2064842  48.6522929 126.5594173 111.4369069  48.8205136
 127.9024195 111.2903286  49.5036961 127.2437552 119.3954734  51.1522823
 126.5909002 119.6430641  50.4975276 127.6217932 118.5818872  50.8185300
 124.2044726 129.4314427  45.2550993 124.3867120 128.6136083  45.7178746
 125.0277712 129.6482119  44.8175883 124.5386891 128.3582612  42.5166042
 125.0674658 127.8475067  41.9036204 124.8015111 128.0425142  43.3811575
 123.2925125 120.1374545  57.6388860 122.6165762 120.0368674  58.3091235
 124.1152759 119.9813759  58.1024857 115.0403984 126.3746481  50.2601375
 115.6257421 125.6290169  50.3929279 114.8428822 126.6850438  51.1438039
 117.8942639 129.4097729  45.2763818 117.2253014 129.8943856  44.7927858
 117.7555509 129.6566949  46.1907196 109.6321639 118.9452082  48.9805818
 109.6705738 118.4115672  49.7742937 109.1261931 118.4187287  48.3616796
 122.0347908 131.4441472  51.8746476 122.5866216 131.6073094  52.6395561
 122.3754101 132.0345910  51.2026501 117.0112401 113.7916622  52.4768361
 117.0753727 114.6531453  52.0645758 116.9479521 113.1790624  51.7440719
 116.4864673 115.8639755  56.1241395 117.1136712 115.4816832  56.7378919
 115.6292592 115.6453957  56.4897087 126.8858782 126.2702730  57.7295130
 127.4298686 126.8832688  57.2350085 126.3045627 126.8282308  58.2462143
 113.2630216 117.6716184  42.0559750 113.5583657 116.7626862  42.0026804
 112.3618252 117.6503923  41.7340752 125.1716295 129.3923448  48.8610158
 125.0467434 128.5913188  48.3521104 125.8295386 129.8869641  48.3724128
 116.7924463 115.7472180  48.0387298 116.0711049 116.3608148  47.8994772
 117.5817719 116.2829945  47.9603944 127.2351203 127.1932468  50.4889708
 126.2881539 127.0737819  50.4168035 127.5833976 126.3054966  50.5715970
 119.5950777 113.0826607  54.3127950 120.1185178 113.3288903  55.0754259
 119.3763110 113.9146642  53.8931088 114.9918058 115.3530281  42.1799075
 114.6630764 114.4727660  41.9974181 115.3457428 115.2977950  43.0675464
 124.2397637 126.9885184  46.6894060 124.0922599 126.0601892  46.8701631
 125.0651130 127.0105275  46.2051136 118.1059881 115.6403251  42.5474553
 118.4455953 116.1689172  41.8253161 118.5532001 115.9783657  43.3233119
 127.8431758 127.8113743  47.7758933 128.7678306 127.6056604  47.6383384
 127.6747062 127.5630144  48.6848275 120.8003322 114.0240302  51.9977621
 120.4600142 113.2248115  52.3998301 120.0942328 114.3242013  51.4254454
 121.4519794 111.1089614  50.4504944 122.2745863 110.6350093  50.3283834
 121.6957857 111.8880098  50.9503630 120.0928028 114.1377873  40.7467845
 120.8136391 114.5159126  40.2431562 119.4693332 114.8566750  40.8502823
 124.2359151 114.8423022  41.6826178 124.4522765 115.7247660  41.3815006
 123.7553218 114.4509235  40.9531820 118.9758372 117.8008735  48.2596922
 118.8302953 118.1149038  49.1521204 118.4983576 118.4193635  47.7067821
 120.8354755 114.7911283  48.3077812 120.8216324 113.8952376  47.9710110
 121.5527183 114.7981947  48.9416098 122.6880886 115.2248623  50.3530939
 122.4298664 116.1465694  50.3515270 122.1565926 114.8279058  51.0431403
 127.6327075 128.3299410  43.1321025 127.8063952 127.7645833  42.3794877
 128.1255966 129.1300305  42.9500515 113.4504034 120.3414079  51.1984584
 112.9057503 121.1173887  51.3304858 114.3283384 120.6884884  51.0403705
 120.2391651 113.6725663  43.5765382 120.3607562 112.7442309  43.7756270
 119.9493693 113.6864349  42.6643697 123.1082842 111.3580574  46.7132102
 123.1304538 111.4219907  45.7584081 123.5250901 110.5185082  46.9072608
 133.4866466 121.0935833  44.7511324 133.9297612 120.3443158  44.3530448
 132.6092976 121.0845970  44.3685056 128.6202247 127.6466175  40.2317923
 129.3153152 128.2672867  40.4505238 128.9625397 126.7961526  40.5070301
 114.2370056 119.4683976  54.0914740 113.4951792 119.6166611  54.6779371
 113.9162801 119.7292241  53.2281490 130.5193670 125.0965880  41.7605254
 131.0444994 125.4353153  41.0354574 130.4316023 124.1612896  41.5768388
 122.1813719 129.0099954  53.8895130 122.4900845 128.7649101  54.7617830
 122.9789201 129.2146592  53.4014001 122.2034331 131.1637864  46.1200507
 121.7639321 130.6714242  46.8133364 122.9542448 130.6210831  45.8792582
 114.6826670 127.3549404  46.1225135 115.5084690 127.0553176  45.7423779
 114.3320722 126.5857027  46.5714924 119.6508203 126.7075873  48.1922809
 119.0288212 126.0446578  47.8925036 120.3213070 126.7337005  47.5096456
 112.8835275 125.2735731  47.0814069 112.0467183 124.8457905  46.8998070
 112.8558920 125.4668174  48.0184860 119.7232731 115.1857661  57.7855315
 119.7720886 116.0619783  57.4033084 120.2655245 114.6435054  57.2126958
 130.2087576 125.7298784  57.0656452 129.4183120 125.7122923  56.5260951
 129.9720931 126.2687078  57.8205488 130.3285451 122.5791250  54.3789180
 130.3783456 122.4141258  55.3204703 130.2199375 121.7118509  53.9887061
 119.2121710 125.2579796  41.6681269 119.3609830 125.9415260  41.0147942
 120.0188154 125.2384886  42.1830725 127.6189214 118.5622178  55.6948487
 128.5199077 118.4228643  55.4032485 127.6937188 118.7276633  56.6346664
 121.9532019 115.9389033  54.5401673 121.0835329 116.2322599  54.2684262
 122.1891499 116.5229478  55.2608937 131.8303648 124.9988192  54.6231202
 131.5388457 125.3618172  55.4594663 131.2175779 124.2855200  54.4444534
 133.0299331 122.5641072  47.1433772 133.8646222 123.0030876  47.3071332
 133.1658459 122.0879725  46.3242018 130.0790836 120.1220806  53.0911260
 130.5544958 120.3148453  52.2830111 129.1556402 120.1779992  52.8454643
 116.9674343 121.2844974  42.6742338 116.7220385 120.3807304  42.8722548
 117.1370258 121.2862124  41.7321816 124.6571053 112.1568650  52.0567094
 125.1752997 112.8929677  51.7313582 124.3026186 112.4632643  52.8913853
 116.2369991 117.0173331  40.1728500 115.5439236 117.0917686  39.5168535
 115.9921742 116.2533675  40.6950016 124.9083647 108.5768933  47.5767990
 125.1885401 107.9092122  48.2028417 125.6934254 108.7698028  47.0642654
 122.7117116 127.7527926  39.1393017 122.1391083 128.3718114  38.6863488
 123.2849909 128.3027288  39.6732939 128.7792505 116.9986567  51.3239565
 129.7309928 117.0984664  51.3451789 128.6095956 116.2064835  51.8337650
 126.8006885 114.0842150  51.5098966 126.2056817 114.3647162  50.8145455
 126.5156582 114.5736051  52.2815707 125.9314375 128.0365077  40.2701599
 126.8645049 127.9710638  40.4734474 125.8437588 128.8721343  39.8116132
 131.2580583 120.2192686  50.4381865 131.2256903 119.2808687  50.6241549
 131.8681207 120.2976723  49.7047690 123.0963914 119.0888739  36.4809069
 124.0423019 118.9594947  36.5497487 122.7178159 118.3503401  36.9578497
 131.4075072 117.0103730  50.4840148 130.8914120 116.2262186  50.2970077
 132.2915020 116.6822446  50.6486668 129.0685799 110.7544745  46.4435961
 128.8710620 110.4459833  47.3279293 129.6785504 111.4806384  46.5733891
 137.0757133 121.2808693  49.5787902 137.8060522 121.0193981  50.1395605
 136.4664079 120.5437415  49.6189970 135.1572430 119.4216556  50.1762353
 134.4305594 119.2872521  49.5678845 134.7419717 119.7293384  50.9819071
 122.9802607 123.1406485  57.9409726 123.9005616 123.3185084  58.1349773
 122.9452190 122.1962531  57.7889425 121.2806831 117.0138716  36.4163954
 120.3738287 116.7171828  36.4926668 121.5582812 116.7168534  35.5498241
 112.1984772 118.3345079  46.8663001 111.8787556 117.4810387  46.5737375
 111.6518200 118.5493657  47.6220968 115.9764679 121.0507520  50.5832507
 116.1950689 121.9824628  50.6020541 116.3890453 120.6915494  51.3687311
 122.8968897 111.5575605  42.5708196 122.0869625 111.2122690  42.9463442
 123.5853314 111.2483149  43.1595807 124.8259445 110.6353652  44.1932492
 125.3790484 111.0549106  44.8522515 125.0629532 109.7089400  44.2355448
 120.8492544 116.6240726  59.9735256 120.7489271 117.5735083  59.9047347
 120.6314087 116.2958965  59.1011326 120.0505616 113.8725651  36.5575933
 120.9124780 114.1980549  36.8171751 120.2355960 113.0857147  36.0448999
 112.0673032 121.9547990  48.8356122 111.3736503 121.5401943  48.3226077
 112.8146023 121.9968527  48.2389541 128.2038252 112.7454177  43.7011156
 127.6236921 113.4038981  43.3189209 127.9374185 111.9231522  43.2898574
 126.6541819 112.1459235  45.9032477 127.1541597 112.2575769  45.0946796
 127.2977427 111.8420288  46.5433285 120.7123815 120.0537865  58.7900318
 120.2290896 120.8538225  58.9964207 120.7984754 120.0645809  57.8367762
 113.9809774 121.8866244  46.7122137 113.9580462 121.9853932  45.7604020
 114.2910411 122.7331395  47.0339303 116.6397152 123.9442399  50.8268752
 117.5940406 123.9126342  50.7598683 116.4409676 123.4833023  51.6418977
 117.2296534 122.5143515  53.3939549 118.0489423 123.0087594  53.4174387
 117.5033342 121.5975483  53.3657117 126.9863130 114.9054268  42.7567505
 126.0988985 115.1903918  42.5387700 127.4017119 114.7448031  41.9094782
 130.3377667 114.9300789  46.4721844 131.1138057 115.4197241  46.7446461
 129.6125801 115.3558843  46.9293714 132.7750225 115.6428408  47.5295785
 133.3694716 115.4024144  46.8189093 132.8476809 114.9235538  48.1569321
 114.9947381 129.4862019  47.8438949 114.8601849 128.7262420  47.2776947
 114.5779443 130.2102919  47.3767738 126.1306344 124.6698942  36.8515525
 126.8342194 124.8748945  37.4673180 125.4068993 125.2375704  37.1164608
 126.9604154 120.4208804  42.9717795 126.9039356 120.8777355  42.1325427
 127.5132497 119.6599488  42.7940638 130.7708960 116.2098535  43.7967914
 130.5145894 115.8095171  44.6276122 130.1461828 116.9242329  43.6718054
 135.0821298 118.9494609  46.3039206 134.5220856 119.0187798  47.0770768
 134.4764801 118.7735593  45.5838702 118.1516507 130.3831336  48.0557392
 118.0348891 131.3276768  47.9536082 117.3308953 130.0804897  48.4443191
 128.0393041 125.1081472  38.9013985 128.8738645 124.6762670  38.7191460
 127.8777384 124.9363485  39.8290879 127.6938933 121.6113585  40.2670324
 127.6387737 121.4457856  39.3258768 127.0684989 122.3189618  40.4232514
 112.4831448 116.8481649  54.0931746 113.1290312 116.3380603  54.5818971
 112.2748600 117.5850331  54.6675172 125.0084841 123.9162497  59.5923887
 125.8776000 124.0903149  59.2310522 124.5291592 124.7356913  59.4699616
 121.0035059 111.1121694  39.8455642 120.9913729 112.0563534  40.0023913
 121.8958481 110.9291839  39.5515104 119.1771021 131.0359598  51.2713321
 120.0798268 131.0683208  51.5879815 118.9508391 130.1060049  51.2859656
 120.9324623 129.7890584  47.9323399 119.9820254 129.7892446  47.8187771
 121.2357109 129.0423319  47.4159434 124.8187178 107.7064470  44.1001579
 124.0519574 107.1522957  44.2458262 125.2297883 107.7786339  44.9615731
 116.8228939 113.9949266  58.1906761 117.6860401 113.6386071  58.4010085
 116.2494350 113.6563161  58.8782165 133.4767023 135.5778551  48.9330686
 133.1385534 135.4619615  48.0451221 134.3456791 135.1769716  48.9131692
 129.3353838 137.4314027  44.9227577 128.7718703 137.3403964  44.1543865
 129.2206233 136.6113932  45.4030070 126.8818270 138.9265219  47.7611798
 127.6739562 138.5856043  47.3458097 127.1214920 139.0360194  48.6813951
 131.6050274 136.8927363  50.4297435 132.2013846 136.6683385  49.7154398
 131.6625245 136.1512108  51.0322883 136.2218585 133.3502576  46.0722370
 137.0081674 132.9322000  45.7212787 136.4857289 134.2548669  46.2404018
 133.2403132 135.7105051  44.1718691 132.8761339 135.1835672  44.8831612
 134.0970248 135.3203520  43.9985176 139.1452432 126.9999384  51.4349957
 138.8135757 127.8694795  51.2111172 138.5498046 126.6835668  52.1143987
 129.0896433 135.6525727  46.8682574 128.1646930 135.5201941  47.0760266
 129.3380847 136.4319946  47.3652516 139.0381096 131.7194470  48.5143307
 138.1297973 131.6509878  48.2202068 138.9868691 132.1966415  49.3425132
 126.4505244 135.2959000  47.7026363 126.5797626 135.5493479  48.6165775
 125.7702696 135.8886708  47.3831018 133.1121961 133.1384116  56.4578204
 132.3355295 133.6978036  56.4481069 133.7512524 133.6240899  56.9793074
 140.9042742 129.9210908  50.2921181 140.2617122 130.2143442  49.6460975
 140.3997671 129.8063829  51.0974377 131.3668334 135.9469569  56.0196171
 132.1083018 136.4854613  55.7430995 130.6605319 136.5735858  56.1767723
 133.1954743 133.0271316  51.9901889 134.0415939 133.4510730  52.1336538
 133.1353381 132.3704940  52.6840453 136.3454189 130.6875684  53.6483063
 136.1015121 131.4417745  53.1117339 136.6214119 131.0661032  54.4830310
 135.9018880 129.8432118  49.2296901 135.0403359 130.1413371  49.5213638
 135.9281315 130.0602516  48.2977933 129.6104531 137.9345790  48.5750470
 130.1805888 138.3633058  47.9367954 130.2012643 137.6528374  49.2734655
 131.6549336 134.5097460  42.4460272 132.3573379 134.9618504  42.9134198
 131.3229964 133.8681279  43.0740165 130.1029697 133.1009217  56.8211481
 129.4728358 133.7825498  57.0546878 129.9965785 132.9892299  55.8764619
 125.3974670 132.7681013  47.7477405 124.6073724 133.0238542  47.2717516
 125.8885917 133.5829351  47.8529446 127.3489415 133.1325592  44.7060882
 126.5520579 133.2444287  45.2244378 127.1215007 133.4712245  43.8401772
 123.6812373 133.0211504  50.1792396 123.9320411 133.9058513  50.4449972
 124.2171921 132.8416105  49.4067488 129.3810440 127.4029983  59.1836732
 128.9877386 126.8496181  59.8584376 130.1976581 127.7140561  59.5743250
 126.3472498 138.8413841  43.0950302 126.8597019 139.6357091  43.2455867
 126.9995211 138.1440132  43.0283903 132.2978401 128.8187862  56.7756989
 133.0388115 129.4195015  56.6961451 132.5296324 128.0765500  56.2175031
 127.4419739 134.0044229  55.0535218 127.3273254 133.1029487  55.3542317
 126.5864257 134.2507926  54.7020035 136.2435564 124.8468965  51.0521270
 135.8999834 125.7370607  50.9760381 136.6114527 124.6570623  50.1890855
 124.3121415 137.1702495  43.8709872 125.1496637 137.5799504  43.6543580
 124.4899682 136.2301938  43.8410066 133.7932958 129.6827277  44.6178944
 132.9374554 129.2934127  44.4384583 134.2059910 129.7619238  43.7578729
 135.3232105 127.2173620  49.0170504 134.8196900 127.1803755  48.2038309
 135.6162711 128.1266363  49.0767160 131.5674990 127.3012350  48.0236685
 132.4327987 127.1055159  47.6642575 131.6352499 127.0722702  48.9506042
 129.1737309 129.5314558  45.3953052 129.7481061 129.3089739  44.6626245
 129.7608292 129.6003252  46.1481653 131.4759977 126.4055807  44.1228122
 130.8224390 126.0904824  43.4984736 131.4340451 125.7831547  44.8487944
 134.7097718 132.8937740  48.4475769 133.7920279 133.1152687  48.2897457
 135.1257861 132.9684051  47.5887477 137.9411602 131.3286272  45.5597239
 137.2034359 130.8163658  45.8907481 138.1938376 130.8886654  44.7480516
 138.0423230 124.1062524  46.1539008 138.3482107 123.2459888  45.8664923
 138.7675835 124.6980144  45.9538002 124.3347586 134.5093211  44.5420606
 124.1371986 133.9162571  43.8171672 123.7794250 134.2045421  45.2596545
 132.3144310 134.4016317  46.6615199 132.3692919 133.4490154  46.5857676
 131.5035512 134.5575756  47.1456497 130.2536669 133.0193377  44.4205578
 129.4404535 133.3187547  44.8270770 130.7495664 132.6249066  45.1380060
 135.8510881 133.4835201  53.2520472 136.2060269 133.7106675  54.1114938
 136.4983012 133.8153578  52.6297727 129.7450744 130.5911732  50.0366813
 130.3850124 130.4500492  49.3389776 128.9128275 130.3046246  49.6605415
 126.8293812 134.0357245  42.2261558 125.8991400 133.9741700  42.4431520
 126.9251284 133.5133197  41.4298199 126.7479361 130.5612057  44.8139800
 127.0086178 131.4757391  44.7048960 127.5696533 130.0936500  44.9636413
 128.2204286 131.9749815  51.9838624 128.8927339 131.7667177  51.3351273
 127.3934072 131.7771901  51.5443857 134.1229858 128.6011756  54.0004285
 133.4757773 129.3001705  53.9068762 134.8930873 129.0347899  54.3680533
 128.6231783 135.2492418  52.7441061 128.4851581 134.5172656  53.3452600
 129.5336707 135.1601318  52.4625249 131.2514084 134.9612377  52.2324741
 131.9613702 134.3205569  52.1911359 131.2083392 135.2125272  53.1550922
 129.9643018 131.9477595  54.0520381 129.4280375 131.4968333  54.7041977
 129.3759726 132.0823504  53.3090845 120.8947417 136.1943406  46.7088351
 121.5818457 135.8805136  46.1209367 120.7395546 137.0984771  46.4355603
 125.6982139 131.0833603  51.1373375 125.6140328 130.4759272  50.4023785
 124.8764845 131.5742621  51.1382871 135.8705853 129.5687166  46.5043570
 136.3674552 128.8157128  46.1844640 135.0992834 129.6051483  45.9386779
 132.4540822 131.7104549  46.2315255 132.0838609 131.1575589  46.9196160
 132.9499914 131.1062683  45.6790255 138.3124848 126.5356760  48.6522929
 137.3987928 126.7660986  48.8205136 138.7417949 126.6195204  49.5036961
 134.1318879 135.4666463  57.6388860 133.4559516 135.3660592  58.3091235
 134.9546513 135.3105676  58.1024857 125.8797738 141.7038399  50.2601375
 126.4651175 140.9582087  50.3929279 125.6822577 142.0142356  51.1438039
 120.4715393 134.2743999  48.9805818 120.5099493 133.7407590  49.7742937
 119.9655686 133.7479205  48.3616796 127.8506155 129.1208540  52.4768361
 127.9147482 129.9823371  52.0645758 127.7873276 128.5082541  51.7440719
 127.3258428 131.1931672  56.1241395 127.9530467 130.8108750  56.7378919
 126.4686347 130.9745874  56.4897087 124.1023971 133.0008101  42.0559750
 124.3977412 132.0918780  42.0026804 123.2012006 132.9795841  41.7340752
 127.6318218 131.0764098  48.0387298 126.9104803 131.6900066  47.8994772
 128.4211473 131.6121863  47.9603944 130.4344531 128.4118525  54.3127950
 130.9578933 128.6580821  55.0754259 130.2156864 129.2438559  53.8931088
 125.8311812 130.6822199  42.1799075 125.5024518 129.8019578  41.9974181
 126.1851183 130.6269868  43.0675464 128.9453635 130.9695169  42.5474553
 129.2849708 131.4981090  41.8253161 129.3925756 131.3075575  43.3233119
 131.6397076 129.3532220  51.9977621 131.2993897 128.5540033  52.3998301
 130.9336082 129.6533930  51.4254454 132.2913548 126.4381532  50.4504944
 133.1139617 125.9642010  50.3283834 132.5351612 127.2172016  50.9503630
 130.9321783 129.4669791  40.7467845 131.6530145 129.8451043  40.2431562
 130.3087087 130.1858667  40.8502823 129.8152127 133.1300653  48.2596922
 129.6696708 133.4440956  49.1521204 129.3377330 133.7485553  47.7067821
 131.6748510 130.1203201  48.3077812 131.6610078 129.2244294  47.9710110
 132.3920938 130.1273864  48.9416098 133.5274640 130.5540541  50.3530939
 133.2692418 131.4757612  50.3515270 132.9959681 130.1570975  51.0431403
 124.2897789 135.6705997  51.1984584 123.7451257 136.4465805  51.3304858
 125.1677139 136.0176802  51.0403705 131.0785406 129.0017581  43.5765382
 131.2001317 128.0734227  43.7756270 130.7887448 129.0156267  42.6643697
 133.9476596 126.6872491  46.7132102 133.9698293 126.7511824  45.7584081
 134.3644655 125.8477000  46.9072608 125.0763811 134.7975893  54.0914740
 124.3345547 134.9458529  54.6779371 124.7556555 135.0584159  53.2281490
 123.7229030 140.6027649  47.0814069 122.8860938 140.1749823  46.8998070
 123.6952675 140.7960092  48.0184860 130.5626485 130.5149578  57.7855315
 130.6114641 131.3911701  57.4033084 131.1048999 129.9726971  57.2126958
 132.7925774 131.2680951  54.5401673 131.9229083 131.5614517  54.2684262
 133.0285254 131.8521396  55.2608937 135.4964807 127.4860568  52.0567094
 136.0146751 128.2221595  51.7313582 135.1419940 127.7924561  52.8913853
 127.0763745 132.3465249  40.1728500 126.3832990 132.4209604  39.5168535
 126.8315497 131.5825593  40.6950016 135.7477402 123.9060850  47.5767990
 136.0279155 123.2384039  48.2028417 136.5328009 124.0989946  47.0642654
 137.6400639 129.4134067  51.5098966 137.0450572 129.6939080  50.8145455
 137.3550336 129.9027968  52.2815707 139.9079553 126.0836663  46.4435961
 139.7104374 125.7751751  47.3279293 140.5179259 126.8098302  46.5733891
 123.0378526 133.6636997  46.8663001 122.7181310 132.8102305  46.5737375
 122.4911954 133.8785575  47.6220968 126.8158434 136.3799438  50.5832507
 127.0344443 137.3116545  50.6020541 127.2284207 136.0207412  51.3687311
 133.7362651 126.8867523  42.5708196 132.9263380 126.5414608  42.9463442
 134.4247068 126.5775067  43.1595807 135.6653200 125.9645570  44.1932492
 136.2184238 126.3841023  44.8522515 135.9023286 125.0381318  44.2355448
 131.6886299 131.9532643  59.9735256 131.5883026 132.9027000  59.9047347
 131.4707841 131.6250882  59.1011326 122.9066786 137.2839908  48.8356122
 122.2130258 136.8693861  48.3226077 123.6539777 137.3260445  48.2389541
 139.0432007 128.0746095  43.7011156 138.4630676 128.7330899  43.3189209
 138.7767940 127.2523440  43.2898574 137.4935573 127.4751153  45.9032477
 137.9935352 127.5867687  45.0946796 138.1371181 127.1712205  46.5433285
 131.5517569 135.3829782  58.7900318 131.0684651 136.1830142  58.9964207
 131.6378508 135.3937727  57.8367762 124.8203529 137.2158162  46.7122137
 124.7974217 137.3145849  45.7604020 125.1304165 138.0623313  47.0339303
 127.4790907 139.2734317  50.8268752 128.4334160 139.2418259  50.7598683
 127.2803430 138.8124941  51.6418977 128.0690289 137.8435433  53.3939549
 128.8883178 138.3379512  53.4174387 128.3427096 136.9267401  53.3657117
 141.1771421 130.2592706  46.4721844 141.9531811 130.7489159  46.7446461
 140.4519555 130.6850760  46.9293714 123.3225203 132.1773567  54.0931746
 123.9684067 131.6672521  54.5818971 123.1142354 132.9142249  54.6675172
 131.8428813 126.4413611  39.8455642 131.8307483 127.3855451  40.0023913
 132.7352235 126.2583757  39.5515104 135.6580933 123.0356388  44.1001579
 134.8913329 122.4814875  44.2458262 136.0691638 123.1078257  44.9615731
 127.6622694 129.3241184  58.1906761 128.5254155 128.9677989  58.4010085
 127.0888105 128.9855079  58.8782165  47.8061542  -3.6811249  43.3768026
  47.3625396  -4.4674871  43.0588930  48.4678756  -3.4932099  42.7111916
  49.9042780  -3.4008449  41.4049427  49.8861256  -2.5799568  40.9129696
  50.8262700  -3.5254374  41.6299568  46.3615835  -5.8864320  42.2472935
  46.8944171  -6.6476032  42.0172243  45.8329916  -6.1790668  42.9897090
  50.8158621  -6.7612611  43.8000145  50.6644128  -6.9902059  42.8830229
  50.8063301  -5.8042010  43.8131490  52.5250828  -3.7293489  41.8776627
  52.4663374  -4.4134268  41.2107210  52.9270346  -2.9874499  41.4257253
  52.5268235  -5.7653905  40.1090607  51.6395014  -6.1027983  40.2317005
  53.0966786  -6.4970873  40.3459372  48.5168072  -1.2065618  39.2310008
  49.2296044  -0.5718153  39.1585910  48.0258101  -1.1101752  38.4150010
  47.4168845 -10.1606756  44.3634167  46.7409482 -10.2612627  45.0336542
  48.2396478 -10.3167543  44.8270164  46.1591627   1.1460171  38.5991783
  46.7109936   1.3091793  39.3640868  46.4997821   1.7364609  37.9271808
  51.0102502  -4.0278571  44.4540437  51.5542406  -3.4148613  43.9595392
  50.4289347  -3.4698993  44.9707450  46.3057439  -1.2881347  40.6140437
  46.6144565  -1.5332200  41.4863137  47.1032921  -1.0834709  40.1259307
  54.3331296  -4.5682517  43.7901758  53.5426840  -4.5858378  43.2506258
  54.0964651  -4.0294224  44.5450795  54.4529171  -7.7190051  41.1034487
  54.5027176  -7.8840043  42.0450010  54.3443095  -8.5862792  40.7132368
  55.9547368  -5.2993109  41.3476508  55.6632176  -4.9363129  42.1839969
  55.3419499  -6.0126101  41.1689840  47.1046326  -7.1574816  44.6655033
  48.0249336  -6.9796217  44.8595079  47.0695910  -8.1018770  44.5134732
  49.1328560  -6.3818804  46.3169193  50.0019720  -6.2078152  45.9555828
  48.6535312  -5.5624388  46.1944923  60.7921036   5.3269821  35.7214468
  61.4299446   5.2076569  35.0177808  60.6741879   6.2750665  35.7802420
  57.6010742   5.2797250  35.6575993  57.2629254   5.1638314  34.7696528
  58.4700511   4.8788415  35.6376999  58.0830525   6.4332101  41.6162198
  58.0719166   6.0384900  40.7442702  58.2451165   5.6998174  42.2095970
  51.0061990   8.6283918  34.4857104  51.7983282   8.2874742  34.0703404
  51.2458640   8.7378893  35.4059258  54.8037787   9.2169213  40.5641382
  54.5127653  10.1214844  40.4488049  55.4394771   9.2585741  41.2785452
  55.7293993   6.5946062  37.1542742  56.3257566   6.3702084  36.4399705
  55.7868965   5.8530807  37.7568190  60.3462305   3.0521275  32.7967676
  61.1325394   2.6340698  32.4458093  60.6101009   3.9567368  32.9649325
  65.7470732   2.9896509  33.7000655  66.4795904   2.4195725  33.9338484
  64.9910087   2.6018109  34.1407160  57.3646852   5.4123750  30.8963997
  57.0005059   4.8854371  31.6076919  58.2213967   5.0222219  30.7230483
  63.2696152  -3.2981917  38.1595263  62.9379477  -2.4286506  37.9356478
  62.6741766  -3.6145633  38.8389294  59.7627672   8.9030629  37.5591176
  59.4628395   9.8055667  37.4506983  59.4178731   8.6362812  38.4112329
  53.2140153   5.3544425  33.5927880  52.2890650   5.2220640  33.8005572
  53.4624566   6.1338645  34.0897823  63.1624815   1.4213169  35.2388613
  62.2541693   1.3528577  34.9447374  63.1112411   1.8985114  36.0670439
  50.5748964   4.9977699  34.4271670  50.7041345   5.2512178  35.3411081
  49.8946415   5.5905407  34.1076325  54.7448451  15.6674949  30.5262144
  54.6672481  16.6182774  30.6050624  54.1410095  15.3220821  31.1837070
  57.2365681   2.8402814  43.1823511  56.4599015   3.3996735  43.1726375
  57.8756244   3.3259597  43.7038381  65.0286462  -0.3770393  37.0166487
  64.3860842  -0.0837860  36.3706282  64.5241390  -0.4917472  37.8219684
  55.4912054   5.6488268  42.7441478  56.2326738   6.1873312  42.4676301
  54.7849039   6.2754557  42.9013029  60.9667393   7.7917408  41.3413639
  61.3750749   7.3499819  40.5968272  60.2444655   7.2170036  41.5947832
  57.3198463   2.7290015  38.7147196  58.1659658   3.1529429  38.8581845
  57.2597101   2.0723639  39.4085759  61.2896208   8.3518599  35.0965928
  60.6605070   8.5164313  34.3941996  60.9021870   8.7660208  35.8676892
  65.1685440   9.2873037  32.4510292  64.4836478   9.6671938  31.9007325
  65.2529289   9.8968363  33.1842240  60.4697909   0.3894383  40.3728370
  60.2258840   1.1436444  39.8362645  60.7457839   0.7679731  41.2075617
  62.4236371   6.9332996  39.0505635  62.6353267   7.5764756  38.3740016
  62.3766120   6.0995312  38.5827565  60.0262600  -0.4549184  35.9542207
  59.1647079  -0.1567930  36.2458945  60.0525035  -0.2378785  35.0223240
  56.8424170   8.0893007  32.3616013  57.3062515   8.3680710  31.5720636
  56.5780968   7.1876452  32.1789104  53.7348251   7.6364488  35.2995776
  54.3049608   8.0651757  34.6613261  54.3256363   7.3547073  35.9979962
  54.2273417   2.8027916  43.5456788  53.5972078   3.4844197  43.7792184
  54.1209505   2.6910998  42.6009926  63.5382199   9.8104951  37.2227993
  64.3599643   9.4085138  36.9410674  63.5344602   9.7073185  38.1744108
  57.3038803   9.3588994  39.3788703  57.3683235   9.8209402  40.2146875
  56.5949727   8.7286359  39.5071013  47.8056093   2.7230202  36.9037703
  48.0564131   3.6077212  37.1695279  48.3415641   2.5434804  36.1312794
  71.6288192   6.1543700  33.5712964  70.8751901   5.5851098  33.4156969
  71.7635734   6.1206364  34.5183599  57.0186820  11.0257102  29.2467683
  56.8832495  11.8708638  29.6752531  57.5596633  11.2276380  28.4833617
  53.5054160  -2.8951318  45.9082039  53.1121106  -3.4485120  46.5829683
  54.3220300  -2.5840740  46.2988556  52.2811102  11.6598296  31.9018362
  52.4577731  12.5816261  31.7139346  53.0767936  11.3456715  32.3312742
  56.4222121  -1.4793439  43.5002295  57.1631834  -0.8786286  43.4206758
  56.6540044  -2.2215801  42.9420338  51.5663459   3.7062928  41.7780525
  51.4516974   2.8048185  42.0787624  50.7107977   3.9526625  41.4265341
  58.6455297  11.6480668  43.3768026  58.2019151  10.8617047  43.0588930
  59.3072510  11.8359819  42.7111916  53.4042418  13.1776470  37.9028704
  53.9549843  13.0493533  37.1305698  52.5653894  13.4771359  37.5523597
  60.7436535  11.9283468  41.4049427  60.7255010  12.7492349  40.9129696
  61.6656455  11.8037544  41.6299568  57.2009589   9.4427598  42.2472935
  57.7337926   8.6815886  42.0172243  56.6723670   9.1501250  42.9897090
  60.3679284  -5.4512336  37.7766577  60.0243553  -4.5610695  37.7005688
  60.7358247  -5.6410679  36.9136162  59.4475824  -3.0807681  35.7415810
  58.9440620  -3.1177546  34.9283615  59.7406431  -2.1714938  35.8012467
  65.3063841   7.2928630  28.2192186  64.5293284   6.9539789  27.7747348
  65.9855322   7.2981253  27.5447151  58.5662302   8.5713590  29.7591747
  58.0383663   7.8366350  29.4464985  58.0649804   9.3488267  29.5131716
  63.5455148   6.7662611  34.8758794  62.8878822   7.4561872  34.9638922
  64.3495547   7.1559043  35.2192780  62.3560607   5.1206984  32.9262735
  62.8692488   5.7536975  33.4284445  63.0061830   4.5208179  32.5606095
  59.6182981  15.0991308  25.6823406  58.9444680  15.4023005  26.2908364
  60.0048803  15.9020388  25.3328863  58.8341437   2.5956439  35.1721076
  57.9163999   2.8171386  35.0142764  59.2501581   2.6702750  34.3132783
  63.1222403  10.1012985  31.0541878  62.6684730   9.2603895  31.1107068
  62.4916369  10.7374383  31.3916658  62.0655322   1.0304971  32.2842545
  61.3278079   0.5182357  32.6152788  62.3182096   0.5905353  31.4725822
  61.5655342  11.9389482  31.9891696  61.8578316  12.4994539  31.2704062
  62.0753963  12.2318043  32.7444855  56.4388029   4.1035016  33.3860506
  56.4936639   3.1508852  33.3102982  55.6279231   4.2594455  33.8701804
  56.5288967  12.7169833  33.0785149  56.4865146  12.9430679  32.1493681
  57.4451666  12.4833207  33.2270950  59.9754601   3.1853900  39.9765778
  60.3303989   3.4125373  40.8360244  60.6226732   3.5172277  39.3543034
  65.7052338   6.3072336  30.6815107  65.5670236   6.4973932  29.7536297
  65.3488557   7.0691719  31.1383159  53.8694464   0.2930431  36.7612120
  54.5093843   0.1519190  36.0635083  53.0371995   0.0064945  36.3850722
  65.7321717   8.3748863  35.6926379  66.1658224   8.2824152  36.5409433
  66.4453298   8.3506364  35.0546395  54.6454768   9.5932862  32.8747112
  55.4395366   9.0983182  32.6729687  53.9346460   9.0650725  32.5114818
  59.4649612  11.9750957  37.2259480  59.5186635  12.5441894  37.9937195
  58.5964394  12.1452842  36.8613517  52.3448006   1.6768513  38.7083931
  53.0171059   1.4685876  38.0596580  51.5177792   1.4790599  38.2689163
  66.5937267   8.4172564  38.2259264  66.7873157   9.3218374  38.4718539
  66.4937885   7.9579983  39.0597849  58.2473578  -1.6969546  40.7249592
  57.6001493  -0.9979596  40.6314068  59.0174593  -1.2633402  41.0925840
  61.6552376   8.5679307  43.8000145  61.5037882   8.3389858  42.8830229
  61.6457055   9.5249908  43.8131490  58.4237712   6.1411219  38.7846411
  59.3529772   6.2922379  38.6115379  58.0028742   6.2295240  37.9295058
  57.2226044  10.1661884  36.5544949  57.0837130   9.7980668  37.4270887
  56.4340640  10.6809523  36.3828907  57.8174196  15.2670980  27.8970486
  57.9925952  14.7959023  28.7116108  57.1306984  15.8936746  28.1251746
  58.7731259   9.5443486  33.9433787  58.4381092   9.5044256  34.8391437
  58.2735205   8.8788202  33.4704197  52.7475503   4.9511116  39.4686368
  52.6095301   4.2191355  40.0697907  53.6580427   4.8620017  39.1870556
  55.3757804   4.6631076  38.9570048  56.0857422   4.0224268  38.9156666
  55.3327112   4.9143971  39.8796228  63.3644582  11.5998429  41.8776627
  63.3057129  10.9157649  41.2107210  63.7664101  12.3417419  41.4257253
  54.0886738   1.6496294  40.7765687  53.5524095   1.1987032  41.4287283
  53.5003446   1.7842203  40.0336151  52.3835281  18.4160343  34.6710346
  52.6231879  19.0478867  35.3489364  51.5404478  18.0648383  34.9575705
  63.3661990   9.5638013  40.1090607  62.4788768   9.2263935  40.2317005
  63.9360541   8.8321044  40.3459372  49.8225859   0.7852301  37.8618682
  49.7384048   0.1777971  37.1269092  49.0008565   1.2761320  37.8628178
  56.8963143  14.2239465  37.0751850  56.8233315  15.0294437  37.5871154
  56.4540536  14.4231431  36.2499871  56.6852923  13.4611235  30.5854671
  55.9020445  14.0032916  30.6792896  57.3845668  13.9785215  30.9848912
  67.8479330   4.9746230  34.8707168  67.8369206   5.8570946  34.5001101
  66.9796710   4.6217781  34.6761705  59.3561827  14.1226299  39.2310008
  60.0689799  14.7573764  39.1585910  58.8651855  14.2190165  38.4150010
  61.0779353   8.0277552  30.8027300  60.1435632   8.1479015  30.6332004
  61.2556022   7.1250019  30.5387310  64.4651905   3.8694871  31.3377334
  64.9312357   4.7022863  31.2637637  64.9159405   3.4039853  32.0422593
  54.4073740  11.8720743  40.0515579  55.1083200  12.5057226  40.2044973
  53.9368855  12.2135474  39.2911218  62.5328136  10.2138693  28.3363486
  62.8087980  10.0995287  29.2457360  61.6632635   9.8156178  28.2975659
  62.4368568  -3.7624542  35.3768236  61.5231647  -3.5320315  35.5450442
  62.8661669  -3.6786098  36.2282268  62.2075026   4.4265350  37.8768130
  61.5546476   4.6741258  37.2220582  62.5855406   3.6129489  37.5430607
  59.1682200  14.4625044  31.9796300  59.3504594  13.6446699  32.4424052
  59.9915186  14.6792736  31.5421190  59.5024365  13.3893229  29.2411348
  60.0312132  12.8785683  28.6281510  59.7652585  13.0735759  30.1056881
  58.2562599   5.1685161  44.3634167  57.5803236   5.0679291  45.0336542
  59.0790233   5.0124375  44.8270164  50.0041458  11.4057098  36.9846682
  50.5894895  10.6600786  37.1174586  49.8066297  11.7161055  37.8683346
  52.8580113  14.4408345  32.0009124  52.1890489  14.9254473  31.5173164
  52.7192983  14.6877566  32.9152503  56.9985382  16.4752089  38.5991783
  57.5503690  16.6383710  39.3640868  57.3391575  17.0656527  37.9271808
  51.9749875  -1.1772761  39.2013667  52.0391202  -0.3157930  38.7891065
  51.9116995  -1.7898760  38.4686026  51.4502148   0.8950371  42.8486702
  52.0774187   0.5127449  43.4624226  50.5930067   0.6764573  43.2142394
  61.8496256  11.3013346  44.4540437  62.3936160  11.9143305  43.9595392
  61.2683101  11.8592925  44.9707450  60.1353769  14.4234064  35.5855465
  60.0104909  13.6223804  35.0766410  60.7932860  14.9180258  35.0969435
  62.1988678  12.2243084  37.2135015  61.2519013  12.1048436  37.1413342
  62.5471451  11.3365583  37.2961276  54.5588251  -1.8862777  41.0373257
  55.0822653  -1.6400480  41.7999566  54.3400584  -1.0542742  40.6176394
  59.2035111  12.0195801  33.4139367  59.0560073  11.0912508  33.5946937
  60.0288604  12.0415891  32.9296442  62.8069233  12.8424359  34.5004240
  63.7315780  12.6367221  34.3628691  62.6384536  12.5940761  35.4093581
  55.7640796  -0.9449081  38.7222927  55.4237616  -1.7441268  39.1243607
  55.0579802  -0.6447371  38.1499761  56.4157268  -3.8599769  37.1750250
  57.2383337  -4.3339291  37.0529141  56.6595331  -3.0809285  37.6748937
  53.9395847   2.8319352  34.9842229  53.7940427   3.1459655  35.8766510
  53.4621050   3.4504252  34.4313128  57.6518360   0.2559240  37.0776246
  57.3936138   1.1776310  37.0760576  57.1203401  -0.1410326  37.7676710
  62.5964549  13.3610027  29.8566331  62.7701427  12.7956449  29.1040184
  63.0893440  14.1610922  29.6745821  48.4141509   5.3724696  37.9229890
  47.8694977   6.1484504  38.0550164  49.2920859   5.7195500  37.7649012
  68.4503940   6.1246450  31.4756631  68.8935086   5.3753775  31.0775754
  67.5730450   6.1156586  31.0930363  63.5839721  12.6776791  26.9563230
  64.2790626  13.2983484  27.1750544  63.9262872  11.8272143  27.2315608
  49.2007531   4.4994592  40.8160047  48.4589267   4.6477228  41.4024677
  48.8800275   4.7602858  39.9526796  65.4831145  10.1276497  28.4850560
  66.0082469  10.4663770  27.7599880  65.3953497   9.1923512  28.3013695
  57.1451193  14.0410570  40.6140437  57.4538320  13.7959717  41.4863137
  57.9426675  14.2457209  40.1259307  57.1671805  16.1948480  32.8445814
  56.7276796  15.7024859  33.5378670  57.9179922  15.6521448  32.6037889
  49.6464144  12.3860021  32.8470442  50.4722164  12.0863793  32.4669085
  49.2958196  11.6167643  33.2960230  54.6145677  11.7386489  34.9168115
  53.9925687  11.0757194  34.6170343  55.2850544  11.7647621  34.2341763
  47.8472749  10.3046347  33.8059375  47.0104658   9.8768522  33.6243376
  47.8196395  10.4978791  34.7430166  54.6870205   0.2168277  44.5100621
  54.7358360   1.0930400  44.1278391  55.2292719  -0.3254330  43.9372264
  65.1725051  10.7609400  43.7901758  64.3820594  10.7433539  43.2506258
  64.9358405  11.2997694  44.5450795  65.2922926   7.6101867  41.1034487
  65.3420931   7.4451874  42.0450010  65.1836849   6.7429126  40.7132368
  62.5826688   3.5932795  42.4193794  63.4836551   3.4539260  42.1277791
  62.6574663   3.7587250  43.3591971  56.9169493   0.9699650  41.2646980
  56.0472803   1.2633216  40.9929568  57.1528974   1.5540095  41.9854244
  66.7941123  10.0298808  41.3476508  66.5025931  10.3928789  42.1839969
  66.1813254   9.3165817  41.1689840  67.9936805   7.5951688  33.8679079
  68.8283696   8.0341492  34.0316639  68.1295934   7.1190341  33.0487324
  65.0428311   5.1531423  39.8156566  65.5182432   5.3459069  39.0075418
  64.1193876   5.2090609  39.5699950  59.6208527  -2.8120733  38.7812400
  60.1390471  -2.0759707  38.4558889  59.2663660  -2.5056740  39.6159159
  63.7429980   2.0297183  38.0484872  64.6947403   2.1295281  38.0697096
  63.5733430   1.2375452  38.5582956  61.7644359  -0.8847234  38.2344273
  61.1694291  -0.6042221  37.5390762  61.4794056  -0.3953333  39.0061014
  60.8951850  13.0675693  26.9946905  61.8282523  13.0021255  27.1979781
  60.8075063  13.9031960  26.5361438  66.2218058   5.2503303  37.1627172
  66.1894378   4.3119303  37.3486855  66.8318681   5.3287339  36.4292997
  66.3712546   2.0414346  37.2085455  65.8551595   1.2572803  37.0215384
  67.2552495   1.7133063  37.3731974  72.0394607   6.3119310  36.3033208
  72.7697996   6.0504598  36.8640912  71.4301553   5.5748032  36.3435276
  70.1209905   4.4527172  36.9007660  69.3943068   4.3183137  36.2924151
  69.7057191   4.7604001  37.7064378  57.9440081   8.1717102  44.6655033
  58.8643090   8.3495701  44.8595079  57.9089664   7.2273147  44.5134732
  50.9402154   6.0818137  37.3077814  51.1588163   7.0135244  37.3265848
  51.3527927   5.7226111  38.0932618  55.8130019   1.6551342  46.6980563
  55.7126746   2.6045699  46.6292654  55.5951561   1.3269581  45.8256633
  47.0310506   6.9858607  35.5601429  46.3373977   6.5712560  35.0471383
  47.7783497   7.0279144  34.9634848  55.6761289   5.0848481  45.5145624
  55.1928371   5.8848841  45.7209513  55.7622228   5.0956426  44.5613068
  51.6034626   8.9753016  37.5514058  52.5577880   8.9436958  37.4843990
  51.4047150   8.5143640  38.3664284  52.1934008   7.5454132  40.1184856
  53.0126897   8.0398211  40.1419693  52.4670816   6.6286100  40.0902423
  65.3015141  -0.0388595  33.1967151  66.0775531   0.4507858  33.4691767
  64.5763275   0.3869459  33.6539020  67.7387699   0.6739024  34.2541091
  68.3332190   0.4334760  33.5434399  67.8114283  -0.0453845  34.8814628
  49.9584855  14.5172635  34.5684256  49.8239323  13.7573036  34.0022254
  49.5416917  15.2413535  34.1013045  61.9241628   5.4519420  29.6963102
  61.8676830   5.9087972  28.8570734  62.4769971   4.6910105  29.5185944
  65.7346434   1.2409152  30.5213221  65.4783369   0.8405788  31.3521429
  65.1099302   1.9552946  30.3963360  70.0458772   3.9805225  33.0284512
  69.4858330   4.0498415  33.8016075  69.4402276   3.8046210  32.3084009
  53.1153981  15.4141952  34.7802699  52.9986365  16.3587385  34.6781389
  52.2946427  15.1115514  35.1688498  63.0030516  10.1392088  25.6259291
  63.8376119   9.7073287  25.4436766  62.8414858   9.9674102  26.5536186
  47.4468923   1.8792266  40.8177053  48.0927786   1.3691220  41.3064278
  47.2386074   2.6160947  41.3920478  59.9722315   8.9473113  46.3169193
  60.8413475   9.1213765  45.9555828  59.4929066   9.7667530  46.1944923
  54.1408495  16.0670214  37.9958627  55.0435742  16.0993824  38.3125122
  53.9145865  15.1370665  38.0104963  55.8962097  14.8201201  34.6568706
  54.9457728  14.8203062  34.5433078  56.1994583  14.0733935  34.1404740
  51.7866414  -0.9740117  44.9152067  52.6497875  -1.3303312  45.1255392
  51.2131824  -1.3126222  45.6027471  71.6314791  20.6561739  35.7214468
  72.2693201  20.5368487  35.0177808  71.5135634  21.6042583  35.7802420
  68.4404497  20.6089167  35.6575993  68.1023008  20.4930232  34.7696528
  69.3094265  20.2080332  35.6376999  64.2991313  22.4624644  31.6472884
  63.7356178  22.3714581  30.8789172  64.1843708  21.6424548  32.1275376
  68.9224280  21.7624019  41.6162198  68.9112921  21.3676817  40.7442702
  69.0844919  21.0290092  42.2095970  61.8455745  23.9575835  34.4857104
  62.6377036  23.6166660  34.0703404  62.0852395  24.0670810  35.4059258
  69.8790871  26.1295611  26.9587349  69.2278851  26.7149692  26.5721363
  70.6735234  26.6601806  27.0182386  63.8046499  23.2184749  27.3574483
  64.5777375  22.6713736  27.2187359  64.1571897  24.0828998  27.5688944
  65.6431541  24.5461131  40.5641382  65.3521407  25.4506762  40.4488049
  66.2788525  24.5877658  41.2785452  66.5687748  21.9237979  37.1542742
  67.1651320  21.6994002  36.4399705  66.6262719  21.1822725  37.7568190
  66.1412776  19.3777415  24.9892933  66.3938297  18.8558936  24.2276396
  65.2037335  19.2143560  25.0919617  71.1856059  18.3813193  32.7967676
  71.9719148  17.9632616  32.4458093  71.4494763  19.2859285  32.9649325
  71.3566136  23.8186043  27.4956333  70.7211969  23.8920670  28.2077238
  71.0263543  24.4079642  26.8175412  76.5864486  18.3188426  33.7000655
  77.3189658  17.7487643  33.9338484  75.8303842  17.9310027  34.1407160
  65.8609065  21.2805521  27.1917308  65.7445323  20.6050424  27.8598392
  65.9711325  20.7937895  26.3749461  68.2040606  20.7415668  30.8963997
  67.8398813  20.2146289  31.6076919  69.0607722  20.3514137  30.7230483
  74.1089907  12.0310000  38.1595263  73.7773231  12.9005411  37.9356478
  73.5135520  11.7146284  38.8389294  67.8446093  15.7705567  25.8925346
  68.0120495  16.6385804  26.2595817  67.6543262  15.9332849  24.9686635
  70.6021426  24.2322546  37.5591176  70.3022149  25.1347585  37.4506983
  70.2572486  23.9654730  38.4112329  64.0533908  20.6836343  33.5927880
  63.1284404  20.5512557  33.8005572  64.3018321  21.4630562  34.0897823
  74.0018570  16.7505086  35.2388613  73.0935447  16.6820495  34.9447374
  73.9506166  17.2277031  36.0670439  67.8235314  18.2263225  26.8772013
  67.7034939  18.6720276  27.7157493  67.1287902  18.5748543  26.3185551
  61.4142719  20.3269617  34.4271670  61.5435100  20.5804096  35.3411081
  60.7340170  20.9197325  34.1076325  65.5842206  30.9966867  30.5262144
  65.5066236  31.9474692  30.6050624  64.9803850  30.6512739  31.1837070
  68.0759436  18.1694732  43.1823511  67.2992770  18.7288652  43.1726375
  68.7149999  18.6551515  43.7038381  75.8680216  14.9521525  37.0166487
  75.2254597  15.2454058  36.3706282  75.3635145  14.8374445  37.8219684
  73.5220380  18.6984698  27.7052347  74.4338236  18.9312085  27.5300044
  73.0130027  19.2821742  27.1427425  66.3305808  20.9780185  42.7441478
  67.0720492  21.5165229  42.4676301  65.6242794  21.6046474  42.9013029
  71.8061148  23.1209326  41.3413639  72.2144504  22.6791736  40.5968272
  71.0838409  22.5461953  41.5947832  68.1592218  18.0581933  38.7147196
  69.0053413  18.4821346  38.8581845  68.0990855  17.4015557  39.4085759
  72.1289962  23.6810517  35.0965928  71.4998825  23.8456231  34.3941996
  71.7415624  24.0952126  35.8676892  76.0079194  24.6164954  32.4510292
  75.3230232  24.9963856  31.9007325  76.0923044  25.2260281  33.1842240
  71.3091663  15.7186301  40.3728370  71.0652595  16.4728362  39.8362645
  71.5851594  16.0971649  41.2075617  73.2630126  22.2624913  39.0505635
  73.4747021  22.9056673  38.3740016  73.2159874  21.4287230  38.5827565
  70.8656355  14.8742734  35.9542207  70.0040834  15.1723988  36.2458945
  70.8918789  15.0913133  35.0223240  67.6817924  23.4184925  32.3616013
  68.1456270  23.6972628  31.5720636  67.4174722  22.5168369  32.1789104
  64.5742005  22.9656406  35.2995776  65.1443362  23.3943675  34.6613261
  65.1650117  22.6838991  35.9979962  66.6186810  19.5408077  29.1705578
  67.3210854  19.9929121  29.6379505  66.2867439  18.8991896  29.7985471
  65.0667172  18.1319834  43.5456788  64.4365832  18.8136114  43.7792184
  64.9603260  18.0202915  42.6009926  60.3612144  17.7991630  34.4722712
  59.5711198  18.0549158  33.9962822  60.8523392  18.6139968  34.5774752
  74.3775954  25.1396869  37.2227993  75.1993397  24.7377056  36.9410674
  74.3738357  25.0365103  38.1744108  62.3126890  18.1636209  31.4306189
  61.5158053  18.2754903  31.9489684  62.0852482  18.5022861  30.5647079
  68.1432557  24.6880912  39.3788703  68.2076990  25.1501319  40.2146875
  67.4343481  24.0578277  39.5071013  58.6449847  18.0522120  36.9037703
  58.8957886  18.9369130  37.1695279  59.1809396  17.8726722  36.1312794
  82.4681947  21.4835617  33.5712964  81.7145655  20.9143015  33.4156969
  82.6029488  21.4498282  34.5183599  67.8580575  26.3549020  29.2467683
  67.7226250  27.2000555  29.6752531  68.3990387  26.5568297  28.4833617
  64.3447915  12.4340599  45.9082039  63.9514860  11.8806798  46.5829683
  65.1614055  12.7451178  46.2988556  61.3109972  23.8724458  29.8195609
  61.8234493  24.6667708  29.9701173  61.9632685  23.1750748  29.7529210
  63.1204857  26.9890214  31.9018362  63.2971485  27.9108179  31.7139346
  63.9161690  26.6748633  32.3312742  67.2615876  13.8498479  43.5002295
  68.0025589  14.4505632  43.4206758  67.4933798  13.1076116  42.9420338
  62.4057214  19.0354846  41.7780525  62.2910729  18.1340103  42.0787624
  61.5501731  19.2818543  41.4265341  69.4849051  26.9772586  43.3768026
  69.0412905  26.1908965  43.0588930  70.1466265  27.1651737  42.7111916
  64.2436172  28.5068388  37.9028704  64.7943598  28.3785451  37.1305698
  63.4047648  28.8063277  37.5523597  71.5830289  27.2575386  41.4049427
  71.5648765  28.0784267  40.9129696  72.5050209  27.1329461  41.6299568
  68.0403343  24.7719516  42.2472935  68.5731680  24.0107804  42.0172243
  67.5117425  24.4793167  42.9897090  71.2073038   9.8779581  37.7766577
  70.8637308  10.7681223  37.7005688  71.5752001   9.6881239  36.9136162
  59.2758889  22.2013112  30.5955179  60.1134111  22.6110120  30.3788887
  59.4537157  21.2612554  30.5655373  71.1723321  19.8688193  26.2839012
  70.6569945  20.6392797  26.5227399  70.9000630  19.1953329  26.9072074
  68.7570432  14.7137893  31.3424250  67.9012029  14.3244744  31.1629889
  69.1697384  14.7929854  30.4824036  70.2869579  12.2484237  35.7415810
  69.7834374  12.2114372  34.9283615  70.5800186  13.1576979  35.8012467
  66.5312465  12.3322966  34.7481992  67.3965461  12.1365775  34.3887881
  66.5989974  12.1033318  35.6751349  76.1457595  22.6220547  28.2192186
  75.3687038  22.2831707  27.7747348  76.8249076  22.6273170  27.5447151
  70.9609624  17.7415285  28.1098793  70.6559760  18.0561434  28.9608936
  71.9140066  17.8196705  28.1526126  69.4056056  23.9005508  29.7591747
  68.8777418  23.1658268  29.4464985  68.9043559  24.6780184  29.5131716
  74.3848902  22.0954528  34.8758794  73.7272577  22.7853790  34.9638922
  75.1889301  22.4850960  35.2192780  64.1374784  14.5625174  32.1198359
  64.7118536  14.3400356  31.3871552  64.7245766  14.6313869  32.8726960
  73.1954361  20.4498901  32.9262735  73.7086243  21.0828893  33.4284445
  73.8455585  19.8500097  32.5606095  64.4644371  16.5929635  26.1394244
  63.6281683  16.9304322  26.4603519  64.3249141  16.4578615  25.2021381
  66.4397452  11.4366423  30.8473428  65.7861864  11.1215440  30.2230043
  66.3977926  10.8142164  31.5733251  67.5508656  21.7185718  22.7626720
  66.6435718  21.4874972  22.9617869  68.0479688  20.9223338  22.9500702
  70.4576735  30.4283225  25.6823406  69.7838434  30.7314922  26.2908364
  70.8442557  31.2312306  25.3328863  69.6735192  17.9248357  35.1721076
  68.7557753  18.1463304  35.0142764  70.0895335  17.9994667  34.3132783
  70.4570240  19.3239772  30.3023756  71.2042059  19.8361170  29.9930878
  70.7261829  19.0023825  31.1628150  68.7296890  21.8198313  27.2850710
  67.8208109  21.5357346  27.3823180  68.7591974  22.2397392  26.4254017
  73.9616157  25.4304903  31.0541878  73.5078484  24.5895813  31.1107068
  73.3310124  26.0666301  31.3916658  72.9049077  16.3596889  32.2842545
  72.1671834  15.8474275  32.6152788  73.1575850  15.9197270  31.4725822
  72.4049096  27.2681399  31.9891696  72.6972071  27.8286456  31.2704062
  72.9147717  27.5609960  32.7444855  73.0060704   9.1373141  32.8784315
  73.3119581   8.2770504  32.5910230  73.7313309   9.7290761  32.6783309
  59.2985060  19.5403827  31.2665913  59.1009460  18.9473188  30.5416979
  58.7431724  19.2356037  31.9841851  67.2781784  19.4326934  33.3860506
  67.3330394  18.4800770  33.3102982  66.4672986  19.5886373  33.8701804
  68.4272978  23.3607057  24.6238789  67.9892408  22.6442916  24.1644426
  69.1683418  23.5883172  24.0623880  65.2174144  18.0503993  31.1450885
  64.4042009  18.3498164  31.5516077  65.7133138  17.6559682  31.8625367
  67.3682722  28.0461750  33.0785149  67.3258900  28.2722597  32.1493681
  68.2845421  27.8125125  33.2270950  70.8148355  18.5145818  39.9765778
  71.1697743  18.7417291  40.8360244  71.4620487  18.8464195  39.3543034
  76.5446092  21.6364254  30.6815107  76.4063991  21.8265850  29.7536297
  76.1882311  22.3983637  31.1383159  64.7088219  15.6222349  36.7612120
  65.3487598  15.4811108  36.0635083  63.8765749  15.3356862  36.3850722
  76.5715472  23.7040781  35.6926379  77.0051979  23.6116070  36.5409433
  77.2847053  23.6798281  35.0546395  65.4848522  24.9224779  32.8747112
  66.2789121  24.4275100  32.6729687  64.7740215  24.3942643  32.5114818
  70.3043367  27.3042875  37.2259480  70.3580389  27.8733811  37.9937195
  69.4358148  27.4744760  36.8613517  61.7931286  19.0667861  28.9506865
  60.8628874  19.0052317  29.1676827  61.8888758  18.5443814  28.1543506
  61.7116835  15.5922674  31.5385106  61.9723652  16.5068007  31.4294267
  62.5334007  15.1247117  31.6881719  63.1841760  17.0060431  38.7083931
  63.8564814  16.7977793  38.0596580  62.3571547  16.8082517  38.2689163
  77.4331022  23.7464482  38.2259264  77.6266912  24.6510292  38.4718539
  77.3331640  23.2871901  39.0597849  69.0867332  13.6322372  40.7249592
  68.4395247  14.3312322  40.6314068  69.8568348  14.0658516  41.0925840
  72.4946130  23.8971224  43.8000145  72.3431637  23.6681776  42.8830229
  72.4850810  24.8541826  43.8131490  69.2631467  21.4703137  38.7846411
  70.1923527  21.6214297  38.6115379  68.8422497  21.5587158  37.9295058
  68.0619798  25.4953801  36.5544949  67.9230884  25.1272586  37.4270887
  67.2734395  26.0101441  36.3828907  68.6567950  30.5962898  27.8970486
  68.8319706  30.1250941  28.7116108  67.9700738  31.2228664  28.1251746
  69.6125014  24.8735404  33.9433787  69.2774846  24.8336174  34.8391437
  69.1128959  24.2080120  33.4704197  63.5869258  20.2803034  39.4686368
  63.4489055  19.5483273  40.0697907  64.4974181  20.1911934  39.1870556
  72.5484205  22.2191438  24.2170847  71.9313376  21.4938267  24.1203899
  72.0800694  22.9800799  23.8737921  66.2151558  19.9922993  38.9570048
  66.9251177  19.3516186  38.9156666  66.1720866  20.2435888  39.8796228
  74.2038337  26.9290347  41.8776627  74.1450883  26.2449567  41.2107210
  74.6057855  27.6709337  41.4257253  64.9280492  16.9788211  40.7765687
  64.3917849  16.5278950  41.4287283  64.3397201  17.1134120  40.0336151
  63.2229036  33.7452261  34.6710346  63.4625634  34.3770785  35.3489364
  62.3798232  33.3940301  34.9575705  64.3382751  16.4376863  23.3392151
  63.4612217  16.3165664  22.9754397  64.8140504  15.6462941  23.0871039
  74.2055744  24.8929931  40.1090607  73.3182523  24.5555853  40.2317005
  74.7754295  24.1612962  40.3459372  55.8584891  21.2254022  33.4333658
  56.5455931  20.9115753  32.8454673  55.7033020  22.1295387  33.1600909
  60.6619613  16.1144219  37.8618682  60.5777802  15.5069889  37.1269092
  59.8402320  16.6053237  37.8628178  67.7356898  29.5531383  37.0751850
  67.6627069  30.3586355  37.5871154  67.2934291  29.7523349  36.2499871
  67.5246677  28.7903153  30.5854671  66.7414199  29.3324833  30.6792896
  68.2239422  29.3077133  30.9848912  70.8343327  14.5997783  33.2288877
  71.3312027  13.8467745  32.9089947  70.0630309  14.6362099  32.6632086
  78.6873085  20.3038148  34.8707168  78.6762961  21.1862864  34.5001101
  77.8190464  19.9509699  34.6761705  70.1955581  29.4518217  39.2310008
  70.9083553  30.0865682  39.1585910  69.7045610  29.5482083  38.4150010
  71.9173108  23.3569470  30.8027300  70.9829387  23.4770932  30.6332004
  72.0949776  22.4541937  30.5387310  67.4178296  16.7415166  32.9560561
  67.0476084  16.1886206  33.6441467  67.9137388  16.1373299  32.4035561
  75.3045659  19.1986789  31.3377334  75.7706112  20.0314781  31.2637637
  75.7553160  18.7331771  32.0422593  65.2467495  27.2012661  40.0515579
  65.9476954  27.8349144  40.2044973  64.7762610  27.5427392  39.2911218
  73.3721890  25.5430610  28.3363486  73.6481734  25.4287205  29.2457360
  72.5026389  25.1448095  28.2975659  73.2762322  11.5667376  35.3768236
  72.3625402  11.7971603  35.5450442  73.7055424  11.6505820  36.2282268
  73.0468781  19.7557268  37.8768130  72.3940231  20.0033175  37.2220582
  73.4249160  18.9421406  37.5430607  70.0075954  29.7916961  31.9796300
  70.1898349  28.9738617  32.4424052  70.8308940  30.0084653  31.5421190
  70.3418120  28.7185146  29.2411348  70.8705886  28.2077601  28.6281510
  70.6046340  28.4027677  30.1056881  69.0956354  20.4977079  44.3634167
  68.4196991  20.3971208  45.0336542  69.9183987  20.3416293  44.8270164
  60.8435213  26.7349016  36.9846682  61.4288649  25.9892704  37.1174586
  60.6460051  27.0452972  37.8683346  63.6973868  29.7700263  32.0009124
  63.0284243  30.2546391  31.5173164  63.5586738  30.0169483  32.9152503
  55.4352867  19.3054616  35.7051125  55.4736967  18.7718207  36.4988243
  54.9293160  18.7789821  35.0862102  67.8379136  31.8044007  38.5991783
  68.3897444  31.9675628  39.3640868  68.1785330  32.3948444  37.9271808
  62.8143630  14.1519156  39.2013667  62.8784956  15.0133987  38.7891065
  62.7510750  13.5393158  38.4686026  62.2895902  16.2242289  42.8486702
  62.9167941  15.8419366  43.4624226  61.4323821  16.0056491  43.2142394
  72.6890011  26.6305264  44.4540437  73.2329915  27.2435222  43.9595392
  72.1076856  27.1884842  44.9707450  59.0661445  18.0318718  28.7805056
  59.3614886  17.1229396  28.7272110  58.1649481  18.0106457  28.4586059
  70.9747524  29.7525982  35.5855465  70.8498663  28.9515722  35.0766410
  71.6326615  30.2472175  35.0969435  62.5955692  16.1074715  34.7632605
  61.8742278  16.7210682  34.6240078  63.3848948  16.6432479  34.6849251
  73.0382432  27.5535002  37.2135015  72.0912768  27.4340353  37.1413342
  73.3865205  26.6657500  37.2961276  65.3982005  13.4429141  41.0373257
  65.9216407  13.6891438  41.7999566  65.1794339  14.2749176  40.6176394
  60.7949287  15.7132816  28.9044382  60.4661993  14.8330195  28.7219488
  61.1488657  15.6580484  29.7920771  70.0428865  27.3487718  33.4139367
  69.8953828  26.4204426  33.5946937  70.8682359  27.3707809  32.9296442
  63.9091110  16.0005785  29.2719859  64.2487182  16.5291707  28.5498468
  64.3563230  16.3386192  30.0478426  73.6462987  28.1716277  34.5004240
  74.5709535  27.9659138  34.3628691  73.4778291  27.9232678  35.4093581
  66.6034551  14.3842836  38.7222927  66.2631371  13.5850649  39.1243607
  65.8973557  14.6844547  38.1499761  67.2551022  11.4692149  37.1750250
  68.0777092  10.9952627  37.0529141  67.4989086  12.2482632  37.6748937
  65.8959257  14.4980407  27.4713152  66.6167619  14.8761660  26.9676869
  65.2724561  15.2169284  27.5748130  70.0390380  15.2025556  28.4071484
  70.2553994  16.0850194  28.1060313  69.5584447  14.8111769  27.6777126
  64.7789601  18.1611269  34.9842229  64.6334182  18.4751572  35.8766510
  64.3014805  18.7796170  34.4313128  66.6385984  15.1513817  35.0323119
  66.6247553  14.2554911  34.6955416  67.3558412  15.1584481  35.6661405
  68.4912115  15.5851157  37.0776246  68.2329893  16.5068228  37.0760576
  67.9597155  15.1881592  37.7676710  73.4358303  28.6901945  29.8566331
  73.6095181  28.1248367  29.1040184  73.9287195  29.4902839  29.6745821
  59.2535263  20.7016614  37.9229890  58.7088731  21.4776422  38.0550164
  60.1314613  21.0487418  37.7649012  66.0422880  14.0328198  30.3010689
  66.1638791  13.1044844  30.5001576  65.7524922  14.0466883  29.3889004
  68.9114070  11.7183108  33.4377409  68.9335767  11.7822441  32.4829388
  69.3282129  10.8787617  33.6317915  79.2897695  21.4538367  31.4756631
  79.7328841  20.7045693  31.0775754  78.4124205  21.4448504  31.0930363
  74.4233476  28.0068709  26.9563230  75.1184381  28.6275402  27.1750544
  74.7656626  27.1564060  27.2315608  60.0401285  19.8286510  40.8160047
  59.2983021  19.9769145  41.4024677  59.7194029  20.0894776  39.9526796
  76.3224899  25.4568414  28.4850560  76.8476223  25.7955687  27.7599880
  76.2347252  24.5215430  28.3013695  67.9844948  29.3702488  40.6140437
  68.2932074  29.1251635  41.4863137  68.7820430  29.5749127  40.1259307
  68.0065560  31.5240398  32.8445814  67.5670550  31.0316776  33.5378670
  68.7573677  30.9813365  32.6037889  60.4857899  27.7151939  32.8470442
  61.3115919  27.4155710  32.4669085  60.1351951  26.9459561  33.2960230
  65.4539432  27.0678407  34.9168115  64.8319441  26.4049112  34.6170343
  66.1244299  27.0939539  34.2341763  58.6866504  25.6338265  33.8059375
  57.8498412  25.2060439  33.6243376  58.6590149  25.8270708  34.7430166
  65.5263959  15.5460195  44.5100621  65.5752115  16.4222318  44.1278391
  66.0686474  15.0037588  43.9372264  76.0118805  26.0901318  43.7901758
  75.2214349  26.0725457  43.2506258  75.7752160  26.6289612  44.5450795
  76.1316680  22.9393784  41.1034487  76.1814685  22.7743792  42.0450010
  76.0230604  22.0721044  40.7132368  65.0152939  25.6182330  28.3926576
  65.1641059  26.3017795  27.7393249  65.8219382  25.5987420  28.9076032
  73.4220443  18.9224713  42.4193794  74.3230305  18.7831177  42.1277791
  73.4968417  19.0879167  43.3591971  67.7563248  16.2991567  41.2646980
  66.8866557  16.5925133  40.9929568  67.9922728  16.8832012  41.9854244
  77.6334877  25.3590726  41.3476508  77.3419685  25.7220707  42.1839969
  77.0207008  24.6457734  41.1689840  78.8330559  22.9243606  33.8679079
  79.6677451  23.3633410  34.0316639  78.9689688  22.4482259  33.0487324
  75.8822065  20.4823341  39.8156566  76.3576187  20.6750987  39.0075418
  74.9587631  20.5382526  39.5699950  62.7705572  21.6447508  29.3987645
  62.5251614  20.7409838  29.5967855  62.9401486  21.6464658  28.4567123
  70.4602282  12.5171184  38.7812400  70.9784226  13.2532211  38.4558889
  70.1057415  12.8235177  39.6159159  62.0401219  17.3775865  26.8973806
  61.3470464  17.4520220  26.2413842  61.7952971  16.6136209  27.4195323
  70.7114876   8.9371467  34.3013297  70.9916630   8.2694656  34.9273723
  71.4965483   9.1300562  33.7887961  68.5148344  28.1130461  25.8638323
  67.9422311  28.7320648  25.4108795  69.0881138  28.6629822  26.3978245
  74.5823734  17.3589101  38.0484872  75.5341157  17.4587198  38.0697096
  74.4127185  16.5667369  38.5582956  72.6038114  14.4444684  38.2344273
  72.0088046  14.7249697  37.5390762  72.3187810  14.9338585  39.0061014
  71.7345604  28.3967611  26.9946905  72.6676277  28.3313172  27.1979781
  71.6468817  29.2323878  26.5361438  74.3633621  27.7133481  23.9550853
  74.2847252  27.3793345  24.8486611  75.1843288  28.2055249  23.9542325
  77.0611812  20.5795220  37.1627172  77.0288132  19.6411221  37.3486855
  77.6712436  20.6579257  36.4292997  68.8995143  19.4491273  23.2054376
  69.8454248  19.3197481  23.2742794  68.5209388  18.7105935  23.6823804
  77.2106301  17.3706264  37.2085455  76.6945349  16.5864720  37.0215384
  78.0946249  17.0424980  37.3731974  74.8717027  11.1147279  33.1681268
  74.6741849  10.8062368  34.0524599  75.4816733  11.8408918  33.2979197
  82.8788362  21.6411227  36.3033208  83.6091750  21.3796515  36.8640912
  82.2695307  20.9039949  36.3435276  80.9603659  19.7819090  36.9007660
  80.2336823  19.6475055  36.2924151  80.5450946  20.0895918  37.7064378
  68.7833835  23.5009020  44.6655033  69.7036845  23.6787619  44.8595079
  68.7483418  22.5565065  44.5134732  67.0838060  17.3741250  23.1409261
  66.1769515  17.0774362  23.2171975  67.3614041  17.0771068  22.2743547
  58.0016000  18.6947613  33.5908307  57.6818785  17.8412921  33.2982681
  57.4549429  18.9096191  34.3466275  61.7795908  21.4110054  37.3077814
  61.9981918  22.3427162  37.3265848  62.1921682  21.0518029  38.0932618
  68.7000126  11.9178139  29.2953502  67.8900854  11.5725224  29.6708748
  69.3884543  11.6085683  29.8841114  70.6290674  10.9956186  30.9177799
  71.1821713  11.4151640  31.5767822  70.8660760  10.0691934  30.9600755
  66.6523773  16.9843260  46.6980563  66.5520500  17.9337617  46.6292654
  66.4345315  16.6561499  45.8256633  65.8536845  14.2328185  23.2821240
  66.7156009  14.5583083  23.5417057  66.0387189  13.4459681  22.7694306
  57.8704260  22.3150525  35.5601429  57.1767732  21.9004477  35.0471383
  58.6177251  22.3571061  34.9634848  74.0069481  13.1056711  30.4256463
  73.4268150  13.7641515  30.0434516  73.7405414  12.2834056  30.0143881
  72.4573048  12.5061769  32.6277783  72.9572826  12.6178304  31.8192102
  73.1008655  12.2022822  33.2678592  66.5155043  20.4140399  45.5145624
  66.0322125  21.2140759  45.7209513  66.6015982  20.4248344  44.5613068
  59.7841003  22.2468778  33.4367444  59.7611691  22.3456466  32.4849327
  60.0941639  23.0933929  33.7584610  62.4428381  24.3044933  37.5514058
  63.3971634  24.2728876  37.4843990  62.2440904  23.8435557  38.3664284
  63.0327763  22.8746050  40.1184856  63.8520652  23.3690128  40.1419693
  63.3064571  21.9578018  40.0902423  72.7894359  15.2656802  29.4812811
  71.9020214  15.5506452  29.2633006  73.2048348  15.1050565  28.6340088
  76.1408895  15.2903323  33.1967151  76.9169285  15.7799775  33.4691767
  75.4157029  15.7161377  33.6539020  78.5781454  16.0030942  34.2541091
  79.1725945  15.7626678  33.5434399  78.6508038  15.2838073  34.8814628
  60.7978610  29.8464553  34.5684256  60.6633078  29.0864954  34.0022254
  60.3810672  30.5705453  34.1013045  71.9337573  25.0301477  23.5760831
  72.6373423  25.2351479  24.1918487  71.2100221  25.5978238  23.8409915
  72.7635383  20.7811338  29.6963102  72.7070584  21.2379889  28.8570734
  73.3163725  20.0202022  29.5185944  76.5740189  16.5701070  30.5213221
  76.3177123  16.1697705  31.3521429  75.9493057  17.2844864  30.3963360
  80.8852527  19.3097143  33.0284512  80.3252085  19.3790332  33.8016075
  80.2796030  19.1338128  32.3084009  63.9547736  30.7433870  34.7802699
  63.8380120  31.6879302  34.6781389  63.1340182  30.4407432  35.1688498
  73.8424270  25.4684006  25.6259291  74.6769874  25.0365204  25.4436766
  73.6808613  25.2966019  26.5536186  73.4970162  21.9716119  26.9915631
  73.4418966  21.8060390  26.0504075  72.8716218  22.6792152  27.1477820
  58.2862677  17.2084183  40.8177053  58.9321541  16.6983137  41.3064278
  58.0779828  17.9452865  41.3920478  70.8116069  24.2765031  46.3169193
  71.6807229  24.4505683  45.9555828  70.3322821  25.0959448  46.1944923
  66.8066288  11.4724228  26.5700949  66.7944958  12.4166068  26.7269220
  67.6989710  11.2894373  26.2760410  64.9802250  31.3962132  37.9958627
  65.8829496  31.4285742  38.3125122  64.7539620  30.4662583  38.0104963
  66.7355852  30.1493118  34.6568706  65.7851483  30.1494980  34.5433078
  67.0388338  29.4025853  34.1404740  70.6218407   8.0667005  30.8246886
  69.8550803   7.5125491  30.9703568  71.0329112   8.1388873  31.6861038
  62.6260168  14.3551800  44.9152067  63.4891630  13.9988605  45.1255392
  62.0525579  14.0165695  45.6027471  82.4708545  35.9853657  35.7214468
  83.1086955  35.8660404  35.0177808  82.3529388  36.9334501  35.7802420
  79.2798251  35.9381085  35.6575993  78.9416763  35.8222150  34.7696528
  80.1488020  35.5372250  35.6376999  75.1385067  37.7916561  31.6472884
  74.5749932  37.7006498  30.8789172  75.0237462  36.9716466  32.1275376
  79.7618034  37.0915937  41.6162198  79.7506675  36.6968735  40.7442702
  79.9238674  36.3582009  42.2095970  72.6849499  39.2867753  34.4857104
  73.4770791  38.9458578  34.0703404  72.9246149  39.3962728  35.4059258
  80.7184626  41.4587529  26.9587349  80.0672606  42.0441609  26.5721363
  81.5128989  41.9893724  27.0182386  74.6440253  38.5476666  27.3574483
  75.4171129  38.0005653  27.2187359  74.9965652  39.4120916  27.5688944
  76.4825296  39.8753048  40.5641382  76.1915162  40.7798679  40.4488049
  77.1182280  39.9169576  41.2785452  77.4081502  37.2529897  37.1542742
  78.0045075  37.0285919  36.4399705  77.4656474  36.5114642  37.7568190
  76.9806531  34.7069332  24.9892933  77.2332051  34.1850854  24.2276396
  76.0431090  34.5435478  25.0919617  82.0249814  33.7105111  32.7967676
  82.8112903  33.2924534  32.4458093  82.2888518  34.6151203  32.9649325
  82.1959891  39.1477961  27.4956333  81.5605724  39.2212588  28.2077238
  81.8657297  39.7371560  26.8175412  87.4258241  33.6480344  33.7000655
  88.1583413  33.0779561  33.9338484  86.6697596  33.2601944  34.1407160
  76.7002820  36.6097438  27.1917308  76.5839078  35.9342342  27.8598392
  76.8105079  36.1229812  26.3749461  79.0434360  36.0707585  30.8963997
  78.6792568  35.5438206  31.6076919  79.9001476  35.6806054  30.7230483
  84.9483661  27.3601918  38.1595263  84.6166986  28.2297329  37.9356478
  84.3529275  27.0438202  38.8389294  78.6839847  31.0997485  25.8925346
  78.8514250  31.9677721  26.2595817  78.4937017  31.2624767  24.9686635
  81.4415181  39.5614464  37.5591176  81.1415904  40.4639503  37.4506983
  81.0966240  39.2946647  38.4112329  74.8927662  36.0128261  33.5927880
  73.9678159  35.8804475  33.8005572  75.1412075  36.7922480  34.0897823
  84.8412324  32.0797004  35.2388613  83.9329202  32.0112413  34.9447374
  84.7899920  32.5568949  36.0670439  78.6629068  33.5555143  26.8772013
  78.5428694  34.0012193  27.7157493  77.9681657  33.9040460  26.3185551
  72.2536473  35.6561534  34.4271670  72.3828854  35.9096013  35.3411081
  71.5733924  36.2489242  34.1076325  76.4235960  46.3258784  30.5262144
  76.3459990  47.2766609  30.6050624  75.8197604  45.9804657  31.1837070
  78.9153190  33.4986650  43.1823511  78.1386524  34.0580570  43.1726375
  79.5543753  33.9843433  43.7038381  86.7073971  30.2813443  37.0166487
  86.0648351  30.5745976  36.3706282  86.2028899  30.1666363  37.8219684
  84.3614134  34.0276616  27.7052347  85.2731991  34.2604003  27.5300044
  83.8523782  34.6113660  27.1427425  77.1699563  36.3072103  42.7441478
  77.9114247  36.8457147  42.4676301  76.4636548  36.9338392  42.9013029
  82.6454902  38.4501244  41.3413639  83.0538258  38.0083654  40.5968272
  81.9232164  37.8753871  41.5947832  78.9985972  33.3873850  38.7147196
  79.8447167  33.8113264  38.8581845  78.9384610  32.7307475  39.4085759
  82.9683717  39.0102434  35.0965928  82.3392579  39.1748148  34.3941996
  82.5809379  39.4244044  35.8676892  86.8472949  39.9456872  32.4510292
  86.1623987  40.3255773  31.9007325  86.9316798  40.5552199  33.1842240
  82.1485418  31.0478219  40.3728370  81.9046349  31.8020279  39.8362645
  82.4245348  31.4263566  41.2075617  84.1023880  37.5916831  39.0505635
  84.3140776  38.2348591  38.3740016  84.0553629  36.7579148  38.5827565
  81.7050109  30.2034652  35.9542207  80.8434588  30.5015905  36.2458945
  81.7312544  30.4205051  35.0223240  78.5211679  38.7476842  32.3616013
  78.9850024  39.0264545  31.5720636  78.2568477  37.8460287  32.1789104
  75.4135760  38.2948324  35.2995776  75.9837117  38.7235592  34.6613261
  76.0043872  38.0130909  35.9979962  77.4580565  34.8699995  29.1705578
  78.1604608  35.3221038  29.6379505  77.1261193  34.2283814  29.7985471
  75.9060926  33.4611751  43.5456788  75.2759587  34.1428032  43.7792184
  75.7997014  33.3494833  42.6009926  71.2005899  33.1283547  34.4722712
  70.4104953  33.3841076  33.9962822  71.6917146  33.9431885  34.5774752
  85.2169708  40.4688787  37.2227993  86.0387152  40.0668974  36.9410674
  85.2132111  40.3657021  38.1744108  73.1520644  33.4928127  31.4306189
  72.3551807  33.6046821  31.9489684  72.9246236  33.8314779  30.5647079
  78.9826312  40.0172830  39.3788703  79.0470744  40.4793237  40.2146875
  78.2737236  39.3870195  39.5071013  69.4843602  33.3814038  36.9037703
  69.7351640  34.2661048  37.1695279  70.0203150  33.2018639  36.1312794
  93.3075701  36.8127535  33.5712964  92.5539410  36.2434933  33.4156969
  93.4423243  36.7790199  34.5183599  78.6974329  41.6840937  29.2467683
  78.5620004  42.5292473  29.6752531  79.2384142  41.8860215  28.4833617
  75.1841669  27.7632517  45.9082039  74.7908615  27.2098716  46.5829683
  76.0007809  28.0743096  46.2988556  72.1503727  39.2016375  29.8195609
  72.6628247  39.9959626  29.9701173  72.8026440  38.5042666  29.7529210
  73.9598611  42.3182132  31.9018362  74.1365240  43.2400096  31.7139346
  74.7555445  42.0040551  32.3312742  78.1009630  29.1790396  43.5002295
  78.8419343  29.7797549  43.4206758  78.3327553  28.4368034  42.9420338
  73.2450968  34.3646763  41.7780525  73.1304483  33.4632021  42.0787624
  72.3895486  34.6110460  41.4265341  80.3242806  42.3064504  43.3768026
  79.8806660  41.5200882  43.0588930  80.9860019  42.4943654  42.7111916
  75.0829927  43.8360305  37.9028704  75.6337352  43.7077369  37.1305698
  74.2441403  44.1355194  37.5523597  82.4224044  42.5867304  41.4049427
  82.4042519  43.4076185  40.9129696  83.3443964  42.4621379  41.6299568
  78.8797098  40.1011433  42.2472935  79.4125435  39.3399721  42.0172243
  78.3511179  39.8085085  42.9897090  82.0466793  25.2071499  37.7766577
  81.7031062  26.0973141  37.7005688  82.4145756  25.0173157  36.9136162
  70.1152644  37.5305030  30.5955179  70.9527866  37.9402038  30.3788887
  70.2930911  36.5904472  30.5655373  82.0117076  35.1980110  26.2839012
  81.4963699  35.9684715  26.5227399  81.7394384  34.5245246  26.9072074
  79.5964187  30.0429811  31.3424250  78.7405783  29.6536661  31.1629889
  80.0091138  30.1221772  30.4824036  81.1263333  27.5776154  35.7415810
  80.6228129  27.5406289  34.9283615  81.4193940  28.4868897  35.8012467
  77.3706219  27.6614884  34.7481992  78.2359216  27.4657693  34.3887881
  77.4383728  27.4325236  35.6751349  86.9851350  37.9512465  28.2192186
  86.2080793  37.6123624  27.7747348  87.6642831  37.9565088  27.5447151
  81.8003379  33.0707202  28.1098793  81.4953514  33.3853352  28.9608936
  82.7533821  33.1488622  28.1526126  80.2449811  39.2297426  29.7591747
  79.7171172  38.4950185  29.4464985  79.7437313  40.0072102  29.5131716
  85.2242657  37.4246446  34.8758794  84.5666331  38.1145708  34.9638922
  86.0283056  37.8142878  35.2192780  74.9768538  29.8917092  32.1198359
  75.5512290  29.6692273  31.3871552  75.5639521  29.9605786  32.8726960
  84.0348115  35.7790819  32.9262735  84.5479997  36.4120811  33.4284445
  84.6849339  35.1792014  32.5606095  75.3038125  31.9221553  26.1394244
  74.4675438  32.2596240  26.4603519  75.1642895  31.7870533  25.2021381
  77.2791206  26.7658341  30.8473428  76.6255618  26.4507358  30.2230043
  77.2371680  26.1434081  31.5733251  78.3902411  37.0477636  22.7626720
  77.4829473  36.8166889  22.9617869  78.8873443  36.2515255  22.9500702
  81.2970490  45.7575143  25.6823406  80.6232188  46.0606840  26.2908364
  81.6836312  46.5604223  25.3328863  80.5128946  33.2540274  35.1721076
  79.5951508  33.4755221  35.0142764  80.9289090  33.3286585  34.3132783
  81.2963994  34.6531690  30.3023756  82.0435813  35.1653087  29.9930878
  81.5655584  34.3315743  31.1628150  79.5690644  37.1490231  27.2850710
  78.6601864  36.8649264  27.3823180  79.5985728  37.5689309  26.4254017
  84.8009912  40.7596820  31.0541878  84.3472239  39.9187730  31.1107068
  84.1703878  41.3958219  31.3916658  83.7442831  31.6888806  32.2842545
  83.0065588  31.1766193  32.6152788  83.9969605  31.2489188  31.4725822
  83.2442851  42.5973317  31.9891696  83.5365825  43.1578374  31.2704062
  83.7541472  42.8901878  32.7444855  83.8454459  24.4665058  32.8784315
  84.1513335  23.6062422  32.5910230  84.5707063  25.0582679  32.6783309
  70.1378815  34.8695745  31.2665913  69.9403214  34.2765106  30.5416979
  69.5825479  34.5647955  31.9841851  78.1175538  34.7618851  33.3860506
  78.1724148  33.8092688  33.3102982  77.3066740  34.9178291  33.8701804
  79.2666732  38.6898974  24.6238789  78.8286162  37.9734833  24.1644426
  80.0077173  38.9175089  24.0623880  76.0567898  33.3795911  31.1450885
  75.2435764  33.6790082  31.5516077  76.5526892  32.9851600  31.8625367
  78.2076476  43.3753668  33.0785149  78.1652655  43.6014514  32.1493681
  79.1239175  43.1417043  33.2270950  81.6542110  33.8437736  39.9765778
  82.0091498  34.0709209  40.8360244  82.3014241  34.1756112  39.3543034
  87.3839847  36.9656172  30.6815107  87.2457745  37.1557767  29.7536297
  87.0276066  37.7275554  31.1383159  75.5481973  30.9514267  36.7612120
  76.1881352  30.8103026  36.0635083  74.7159504  30.6648780  36.3850722
  87.4109226  39.0332699  35.6926379  87.8445733  38.9407988  36.5409433
  88.1240807  39.0090199  35.0546395  76.3242277  40.2516697  32.8747112
  77.1182875  39.7567017  32.6729687  75.6133969  39.7234560  32.5114818
  81.1437121  42.6334793  37.2259480  81.1974144  43.2025729  37.9937195
  80.2751903  42.8036678  36.8613517  72.6325040  34.3959779  28.9506865
  71.7022628  34.3344234  29.1676827  72.7282512  33.8735732  28.1543506
  72.5510589  30.9214592  31.5385106  72.8117407  31.8359925  31.4294267
  73.3727762  30.4539034  31.6881719  74.0235515  32.3352349  38.7083931
  74.6958568  32.1269711  38.0596580  73.1965301  32.1374435  38.2689163
  88.2724776  39.0756399  38.2259264  88.4660666  39.9802210  38.4718539
  88.1725394  38.6163818  39.0597849  79.9261087  28.9614290  40.7249592
  79.2789002  29.6604239  40.6314068  80.6962102  29.3950434  41.0925840
  83.3339885  39.2263142  43.8000145  83.1825391  38.9973694  42.8830229
  83.3244564  40.1833743  43.8131490  80.1025221  36.7995055  38.7846411
  81.0317281  36.9506214  38.6115379  79.6816251  36.8879075  37.9295058
  78.9013553  40.8245719  36.5544949  78.7624639  40.4564503  37.4270887
  78.1128149  41.3393359  36.3828907  79.4961705  45.9254816  27.8970486
  79.6713461  45.4542859  28.7116108  78.8094493  46.5520582  28.1251746
  80.4518768  40.2027322  33.9433787  80.1168601  40.1628092  34.8391437
  79.9522714  39.5372038  33.4704197  74.4263012  35.6094952  39.4686368
  74.2882810  34.8775191  40.0697907  75.3367935  35.5203852  39.1870556
  83.3877960  37.5483356  24.2170847  82.7707130  36.8230184  24.1203899
  82.9194448  38.3092716  23.8737921  77.0545313  35.3214911  38.9570048
  77.7644931  34.6808103  38.9156666  77.0114621  35.5727806  39.8796228
  85.0432091  42.2582264  41.8776627  84.9844638  41.5741485  41.2107210
  85.4451610  43.0001254  41.4257253  75.7674247  32.3080129  40.7765687
  75.2311604  31.8570867  41.4287283  75.1790955  32.4426038  40.0336151
  74.0622790  49.0744178  34.6710346  74.3019388  49.7062702  35.3489364
  73.2191987  48.7232218  34.9575705  75.1776506  31.7668780  23.3392151
  74.3005972  31.6457581  22.9754397  75.6534259  30.9754859  23.0871039
  85.0449499  40.2221848  40.1090607  84.1576277  39.8847770  40.2317005
  85.6148050  39.4904880  40.3459372  66.6978646  36.5545940  33.4333658
  67.3849686  36.2407670  32.8454673  66.5426774  37.4587305  33.1600909
  71.5013368  31.4436137  37.8618682  71.4171557  30.8361806  37.1269092
  70.6796074  31.9345155  37.8628178  78.5750652  44.8823301  37.0751850
  78.5020824  45.6878272  37.5871154  78.1328045  45.0815267  36.2499871
  78.3640432  44.1195071  30.5854671  77.5807954  44.6616751  30.6792896
  79.0633177  44.6369050  30.9848912  81.6737082  29.9289700  33.2288877
  82.1705781  29.1759663  32.9089947  80.9024063  29.9654017  32.6632086
  89.5266839  35.6330066  34.8707168  89.5156715  36.5154781  34.5001101
  88.6584219  35.2801617  34.6761705  81.0349336  44.7810135  39.2310008
  81.7477308  45.4157600  39.1585910  80.5439364  44.8774001  38.4150010
  82.7566862  38.6861387  30.8027300  81.8223141  38.8062850  30.6332004
  82.9343531  37.7833854  30.5387310  78.2572051  32.0707083  32.9560561
  77.8869838  31.5178124  33.6441467  78.7531143  31.4665217  32.4035561
  86.1439414  34.5278707  31.3377334  86.6099866  35.3606698  31.2637637
  86.5946914  34.0623688  32.0422593  76.0861249  42.5304578  40.0515579
  76.7870709  43.1641061  40.2044973  75.6156364  42.8719310  39.2911218
  84.2115645  40.8722528  28.3363486  84.4875489  40.7579123  29.2457360
  83.3420144  40.4740013  28.2975659  84.1156077  26.8959294  35.3768236
  83.2019156  27.1263521  35.5450442  84.5449178  26.9797738  36.2282268
  83.8862535  35.0849186  37.8768130  83.2333985  35.3325093  37.2220582
  84.2642915  34.2713324  37.5430607  80.8469709  45.1208879  31.9796300
  81.0292103  44.3030535  32.4424052  81.6702695  45.3376571  31.5421190
  81.1811874  44.0477064  29.2411348  81.7099641  43.5369519  28.6281510
  81.4440094  43.7319594  30.1056881  79.9350108  35.8268997  44.3634167
  79.2590745  35.7263126  45.0336542  80.7577742  35.6708211  44.8270164
  71.6828967  42.0640933  36.9846682  72.2682404  41.3184621  37.1174586
  71.4853806  42.3744890  37.8683346  74.5367622  45.0992181  32.0009124
  73.8677998  45.5838308  31.5173164  74.3980492  45.3461401  32.9152503
  66.2746622  34.6346534  35.7051125  66.3130721  34.1010124  36.4988243
  65.7686915  34.1081739  35.0862102  78.6772891  47.1335924  38.5991783
  79.2291199  47.2967546  39.3640868  79.0179084  47.7240362  37.9271808
  73.6537384  29.4811074  39.2013667  73.7178711  30.3425905  38.7891065
  73.5904504  28.8685076  38.4686026  73.1289657  31.5534207  42.8486702
  73.7561696  31.1711284  43.4624226  72.2717576  31.3348408  43.2142394
  83.5283765  41.9597182  44.4540437  84.0723669  42.5727140  43.9595392
  82.9470610  42.5176760  44.9707450  69.9055199  33.3610636  28.7805056
  70.2008641  32.4521314  28.7272110  69.0043235  33.3398375  28.4586059
  81.8141278  45.0817900  35.5855465  81.6892418  44.2807640  35.0766410
  82.4720369  45.5764093  35.0969435  73.4349446  31.4366632  34.7632605
  72.7136032  32.0502600  34.6240078  74.2242702  31.9724397  34.6849251
  83.8776187  42.8826920  37.2135015  82.9306522  42.7632271  37.1413342
  84.2258960  41.9949418  37.2961276  76.2375760  28.7721059  41.0373257
  76.7610162  29.0183355  41.7999566  76.0188093  29.6041094  40.6176394
  71.6343041  31.0424733  28.9044382  71.3055747  30.1622112  28.7219488
  71.9882412  30.9872402  29.7920771  80.8822620  42.6779636  33.4139367
  80.7347582  41.7496343  33.5946937  81.7076113  42.6999727  32.9296442
  74.7484864  31.3297703  29.2719859  75.0880937  31.8583624  28.5498468
  75.1956985  31.6678109  30.0478426  84.4856742  43.5008195  34.5004240
  85.4103289  43.2951056  34.3628691  84.3172045  43.2524596  35.4093581
  77.4428305  29.7134754  38.7222927  77.1025125  28.9142567  39.1243607
  76.7367311  30.0136465  38.1499761  78.0944777  26.7984066  37.1750250
  78.9170846  26.3244544  37.0529141  78.3382840  27.5774550  37.6748937
  76.7353011  29.8272325  27.4713152  77.4561374  30.2053578  26.9676869
  76.1118315  30.5461202  27.5748130  80.8784134  30.5317474  28.4071484
  81.0947749  31.4142112  28.1060313  80.3978201  30.1403687  27.6777126
  75.6183356  33.4903187  34.9842229  75.4727936  33.8043490  35.8766510
  75.1408559  34.1088087  34.4313128  77.4779738  30.4805735  35.0323119
  77.4641307  29.5846828  34.6955416  78.1952167  30.4876399  35.6661405
  79.3305869  30.9143075  37.0776246  79.0723647  31.8360146  37.0760576
  78.7990910  30.5173510  37.7676710  84.2752058  44.0193862  29.8566331
  84.4488935  43.4540285  29.1040184  84.7680949  44.8194757  29.6745821
  70.0929018  36.0308531  37.9229890  69.5482486  36.8068339  38.0550164
  70.9708368  36.3779336  37.7649012  76.8816634  29.3620115  30.3010689
  77.0032546  28.4336761  30.5001576  76.5918677  29.3758801  29.3889004
  79.7507825  27.0475026  33.4377409  79.7729522  27.1114359  32.4829388
  80.1675884  26.2079534  33.6317915  90.1291449  36.7830285  31.4756631
  90.5722595  36.0337610  31.0775754  89.2517959  36.7740422  31.0930363
  85.2627230  43.3360627  26.9563230  85.9578135  43.9567319  27.1750544
  85.6050381  42.4855978  27.2315608  70.8795040  35.1578428  40.8160047
  70.1376776  35.3061063  41.4024677  70.5587784  35.4186693  39.9526796
  87.1618654  40.7860332  28.4850560  87.6869978  41.1247605  27.7599880
  87.0741006  39.8507347  28.3013695  78.8238702  44.6994406  40.6140437
  79.1325829  44.4543553  41.4863137  79.6214184  44.9041044  40.1259307
  78.8459314  46.8532315  32.8445814  78.4064305  46.3608694  33.5378670
  79.5967431  46.3105283  32.6037889  71.3251653  43.0443856  32.8470442
  72.1509673  42.7447628  32.4669085  70.9745705  42.2751479  33.2960230
  76.2933186  42.3970325  34.9168115  75.6713196  41.7341030  34.6170343
  76.9638053  42.4231456  34.2341763  69.5260258  40.9630183  33.8059375
  68.6892167  40.5352357  33.6243376  69.4983904  41.1562626  34.7430166
  76.3657714  30.8752113  44.5100621  76.4145869  31.7514235  44.1278391
  76.9080228  30.3329506  43.9372264  86.8512560  41.4193236  43.7901758
  86.0608103  41.4017375  43.2506258  86.6145914  41.9581529  44.5450795
  86.9710435  38.2685702  41.1034487  87.0208440  38.1035710  42.0450010
  86.8624358  37.4012961  40.7132368  75.8546693  40.9474248  28.3926576
  76.0034814  41.6309712  27.7393249  76.6613137  40.9279338  28.9076032
  84.2614197  34.2516630  42.4193794  85.1624060  34.1123095  42.1277791
  84.3362172  34.4171085  43.3591971  78.5957002  31.6283485  41.2646980
  77.7260312  31.9217051  40.9929568  78.8316483  32.2123930  41.9854244
  88.4728632  40.6882644  41.3476508  88.1813440  41.0512624  42.1839969
  87.8600763  39.9749652  41.1689840  89.6724314  38.2535523  33.8679079
  90.5071205  38.6925328  34.0316639  89.8083443  37.7774177  33.0487324
  86.7215820  35.8115258  39.8156566  87.1969941  36.0042905  39.0075418
  85.7981385  35.8674444  39.5699950  73.6099326  36.9739426  29.3987645
  73.3645368  36.0701755  29.5967855  73.7795241  36.9756576  28.4567123
  81.2996036  27.8463102  38.7812400  81.8177980  28.5824129  38.4558889
  80.9451169  28.1527095  39.6159159  72.8794974  32.7067783  26.8973806
  72.1864219  32.7812138  26.2413842  72.6346726  31.9428127  27.4195323
  81.5508630  24.2663384  34.3013297  81.8310384  23.5986573  34.9273723
  82.3359237  24.4592480  33.7887961  79.3542099  43.4422378  25.8638323
  78.7816066  44.0612565  25.4108795  79.9274893  43.9921740  26.3978245
  85.4217489  32.6881018  38.0484872  86.3734912  32.7879116  38.0697096
  85.2520939  31.8959287  38.5582956  83.4431868  29.7736602  38.2344273
  82.8481800  30.0541614  37.5390762  83.1581565  30.2630503  39.0061014
  82.5739359  43.7259528  26.9946905  83.5070032  43.6605090  27.1979781
  82.4862572  44.5615795  26.5361438  85.2027375  43.0425399  23.9550853
  85.1241007  42.7085262  24.8486611  86.0237042  43.5347167  23.9542325
  87.9005567  35.9087138  37.1627172  87.8681887  34.9703139  37.3486855
  88.5106190  35.9871175  36.4292997  79.7388897  34.7783191  23.2054376
  80.6848002  34.6489399  23.2742794  79.3603142  34.0397853  23.6823804
  88.0500055  32.6998182  37.2085455  87.5339104  31.9156638  37.0215384
  88.9340004  32.3716898  37.3731974  85.7110782  26.4439197  33.1681268
  85.5135603  26.1354285  34.0524599  86.3210488  27.1700836  33.2979197
  93.7182116  36.9703145  36.3033208  94.4485505  36.7088433  36.8640912
  93.1089062  36.2331867  36.3435276  91.7997414  35.1111008  36.9007660
  91.0730577  34.9766972  36.2924151  91.3844700  35.4187836  37.7064378
  79.6227590  38.8300937  44.6655033  80.5430599  39.0079536  44.8595079
  79.5877173  37.8856983  44.5134732  77.9231815  32.7033167  23.1409261
  77.0163270  32.4066280  23.2171975  78.2007796  32.4062986  22.2743547
  68.8409755  34.0239531  33.5908307  68.5212539  33.1704839  33.2982681
  68.2943183  34.2388109  34.3466275  72.6189662  36.7401972  37.3077814
  72.8375672  37.6719080  37.3265848  73.0315436  36.3809946  38.0932618
  79.5393880  27.2470057  29.2953502  78.7294609  26.9017142  29.6708748
  80.2278297  26.9377601  29.8841114  81.4684429  26.3248104  30.9177799
  82.0215467  26.7443557  31.5767822  81.7054515  25.3983852  30.9600755
  77.4917528  32.3135178  46.6980563  77.3914255  33.2629535  46.6292654
  77.2739070  31.9853417  45.8256633  76.6930599  29.5620103  23.2821240
  77.5549763  29.8875001  23.5417057  76.8780943  28.7751599  22.7694306
  68.7098015  37.6442442  35.5601429  68.0161486  37.2296395  35.0471383
  69.4571006  37.6862979  34.9634848  84.8463236  28.4348629  30.4256463
  84.2661905  29.0933433  30.0434516  84.5799168  27.6125974  30.0143881
  83.2966802  27.8353687  32.6277783  83.7966580  27.9470221  31.8192102
  83.9402410  27.5314740  33.2678592  77.3548798  35.7432316  45.5145624
  76.8715880  36.5432677  45.7209513  77.4409737  35.7540261  44.5613068
  70.6234757  37.5760696  33.4367444  70.6005446  37.6748383  32.4849327
  70.9335394  38.4225847  33.7584610  73.2822135  39.6336851  37.5514058
  74.2365389  39.6020793  37.4843990  73.0834659  39.1727475  38.3664284
  73.8721517  38.2037967  40.1184856  74.6914406  38.6982046  40.1419693
  74.1458325  37.2869935  40.0902423  83.6288114  30.5948720  29.4812811
  82.7413969  30.8798370  29.2633006  84.0442103  30.4342483  28.6340088
  86.9802650  30.6195240  33.1967151  87.7563040  31.1091693  33.4691767
  86.2550784  31.0453295  33.6539020  89.4175208  31.3322860  34.2541091
  90.0119699  31.0918596  33.5434399  89.4901792  30.6129990  34.8814628
  71.6372364  45.1756471  34.5684256  71.5026832  44.4156872  34.0022254
  71.2204426  45.8997371  34.1013045  82.7731327  40.3593394  23.5760831
  83.4767177  40.5643397  24.1918487  82.0493976  40.9270156  23.8409915
  83.6029137  36.1103255  29.6963102  83.5464339  36.5671807  28.8570734
  84.1557480  35.3493940  29.5185944  87.4133943  31.8992987  30.5213221
  87.1570878  31.4989623  31.3521429  86.7886811  32.6136781  30.3963360
  91.7246281  34.6389061  33.0284512  91.1645839  34.7082250  33.8016075
  91.1189785  34.4630045  32.3084009  74.7941490  46.0725788  34.7802699
  74.6773874  47.0171220  34.6781389  73.9733936  45.7699349  35.1688498
  84.6818025  40.7975923  25.6259291  85.5163628  40.3657122  25.4436766
  84.5202367  40.6257937  26.5536186  84.3363917  37.3008037  26.9915631
  84.2812721  37.1352308  26.0504075  83.7109972  38.0084070  27.1477820
  69.1256432  32.5376101  40.8177053  69.7715295  32.0275055  41.3064278
  68.9173583  33.2744783  41.3920478  81.6509824  39.6056949  46.3169193
  82.5200984  39.7797601  45.9555828  81.1716575  40.4251365  46.1944923
  77.6460042  26.8016146  26.5700949  77.6338712  27.7457986  26.7269220
  78.5383464  26.6186291  26.2760410  75.8196004  46.7254050  37.9958627
  76.7223251  46.7577660  38.3125122  75.5933374  45.7954501  38.0104963
  77.5749606  45.4785036  34.6568706  76.6245237  45.4786898  34.5433078
  77.8782092  44.7317771  34.1404740  81.4612162  23.3958922  30.8246886
  80.6944557  22.8417409  30.9703568  81.8722867  23.4680791  31.6861038
  73.4653923  29.6843718  44.9152067  74.3285384  29.3280523  45.1255392
  72.8919333  29.3457613  45.6027471  93.3102300  51.3145575  35.7214468
  93.9480710  51.1952322  35.0177808  93.1923143  52.2626418  35.7802420
  90.1192006  51.2673003  35.6575993  89.7810517  51.1514067  34.7696528
  90.9881774  50.8664168  35.6376999  85.9778822  53.1208479  31.6472884
  85.4143687  53.0298416  30.8789172  85.8631217  52.3008383  32.1275376
  90.6011789  52.4207854  41.6162198  90.5900430  52.0260653  40.7442702
  90.7632428  51.6873927  42.2095970  83.5243254  54.6159671  34.4857104
  84.3164545  54.2750495  34.0703404  83.7639904  54.7254646  35.4059258
  91.5578380  56.7879447  26.9587349  90.9066360  57.3733527  26.5721363
  92.3522743  57.3185642  27.0182386  85.4834007  53.8768584  27.3574483
  86.2564883  53.3297571  27.2187359  85.8359406  54.7412833  27.5688944
  87.3219050  55.2044966  40.5641382  87.0308916  56.1090597  40.4488049
  87.9576034  55.2461494  41.2785452  88.2475257  52.5821815  37.1542742
  88.8438829  52.3577837  36.4399705  88.3050228  51.8406560  37.7568190
  87.8200285  50.0361250  24.9892933  88.0725806  49.5142771  24.2276396
  86.8824844  49.8727395  25.0919617  92.8643568  49.0397028  32.7967676
  93.6506657  48.6216452  32.4458093  93.1282272  49.9443121  32.9649325
  93.0353645  54.4769879  27.4956333  92.3999478  54.5504505  28.2077238
  92.7051052  55.0663477  26.8175412  98.2651995  48.9772262  33.7000655
  98.9977167  48.4071478  33.9338484  97.5091351  48.5893862  34.1407160
  87.5396574  51.9389356  27.1917308  87.4232832  51.2634259  27.8598392
  87.6498834  51.4521730  26.3749461  89.8828115  51.3999503  30.8963997
  89.5186322  50.8730124  31.6076919  90.7395231  51.0097972  30.7230483
  95.7877416  42.6893836  38.1595263  95.4560740  43.5589247  37.9356478
  95.1923029  42.3730120  38.8389294  89.5233602  46.4289403  25.8925346
  89.6908004  47.2969639  26.2595817  89.3330771  46.5916684  24.9686635
  92.2808935  54.8906382  37.5591176  91.9809658  55.7931420  37.4506983
  91.9359995  54.6238565  38.4112329  85.7321417  51.3420178  33.5927880
  84.8071913  51.2096393  33.8005572  85.9805830  52.1214398  34.0897823
  95.6806079  47.4088922  35.2388613  94.7722956  47.3404330  34.9447374
  95.6293675  47.8860867  36.0670439  89.5022823  48.8847060  26.8772013
  89.3822448  49.3304111  27.7157493  88.8075411  49.2332378  26.3185551
  83.0930228  50.9853452  34.4271670  83.2222609  51.2387931  35.3411081
  82.4127679  51.5781160  34.1076325  87.2629715  61.6550702  30.5262144
  87.1853745  62.6058527  30.6050624  86.6591359  61.3096574  31.1837070
  89.7546945  48.8278567  43.1823511  88.9780279  49.3872488  43.1726375
  90.3937508  49.3135350  43.7038381  97.5467725  45.6105360  37.0166487
  96.9042106  45.9037893  36.3706282  97.0422654  45.4958281  37.8219684
  95.2007889  49.3568533  27.7052347  96.1125745  49.5895920  27.5300044
  94.6917536  49.9405578  27.1427425  88.0093317  51.6364021  42.7441478
  88.7508001  52.1749065  42.4676301  87.3030302  52.2630310  42.9013029
  93.4848657  53.7793161  41.3413639  93.8932013  53.3375572  40.5968272
  92.7625918  53.2045789  41.5947832  89.8379727  48.7165768  38.7147196
  90.6840922  49.1405182  38.8581845  89.7778364  48.0599392  39.4085759
  93.8077471  54.3394352  35.0965928  93.1786334  54.5040066  34.3941996
  93.4203133  54.7535961  35.8676892  97.6866703  55.2748790  32.4510292
  97.0017741  55.6547691  31.9007325  97.7710553  55.8844116  33.1842240
  92.9879172  46.3770136  40.3728370  92.7440104  47.1312197  39.8362645
  93.2639103  46.7555484  41.2075617  94.9417635  52.9208749  39.0505635
  95.1534530  53.5640509  38.3740016  94.8947383  52.0871065  38.5827565
  92.5443864  45.5326569  35.9542207  91.6828343  45.8307823  36.2458945
  92.5706298  45.7496968  35.0223240  89.3605433  54.0768760  32.3616013
  89.8243779  54.3556463  31.5720636  89.0962231  53.1752205  32.1789104
  86.2529514  53.6240242  35.2995776  86.8230871  54.0527510  34.6613261
  86.8437626  53.3422826  35.9979962  88.2974319  50.1991912  29.1705578
  88.9998363  50.6512956  29.6379505  87.9654948  49.5575731  29.7985471
  86.7454681  48.7903669  43.5456788  86.1153341  49.4719950  43.7792184
  86.6390769  48.6786751  42.6009926  82.0399653  48.4575465  34.4722712
  81.2498707  48.7132994  33.9962822  82.5310901  49.2723803  34.5774752
  96.0563463  55.7980704  37.2227993  96.8780906  55.3960891  36.9410674
  96.0525866  55.6948938  38.1744108  83.9914399  48.8220044  31.4306189
  83.1945562  48.9338738  31.9489684  83.7639991  49.1606696  30.5647079
  89.8220066  55.3464747  39.3788703  89.8864499  55.8085155  40.2146875
  89.1130990  54.7162112  39.5071013  80.3237356  48.7105955  36.9037703
  80.5745395  49.5952965  37.1695279  80.8596905  48.5310557  36.1312794
 104.1469456  52.1419453  33.5712964 103.3933164  51.5726851  33.4156969
 104.2816997  52.1082117  34.5183599  89.5368084  57.0132855  29.2467683
  89.4013759  57.8584391  29.6752531  90.0777896  57.2152133  28.4833617
  86.0235423  43.0924435  45.9082039  85.6302369  42.5390633  46.5829683
  86.8401564  43.4035013  46.2988556  82.9897481  54.5308293  29.8195609
  83.5022002  55.3251543  29.9701173  83.6420194  53.8334583  29.7529210
  84.7992366  57.6474049  31.9018362  84.9758994  58.5692014  31.7139346
  85.5949199  57.3332468  32.3312742  88.9403384  44.5082314  43.5002295
  89.6813098  45.1089467  43.4206758  89.1721307  43.7659952  42.9420338
  84.0844722  49.6938681  41.7780525  83.9698238  48.7923938  42.0787624
  83.2289240  49.9402378  41.4265341  91.1636560  57.6356421  43.3768026
  90.7200414  56.8492800  43.0588930  91.8253774  57.8235572  42.7111916
  85.9223681  59.1652223  37.9028704  86.4731107  59.0369286  37.1305698
  85.0835157  59.4647112  37.5523597  93.2617798  57.9159221  41.4049427
  93.2436274  58.7368102  40.9129696  94.1837718  57.7913297  41.6299568
  89.7190852  55.4303351  42.2472935  90.2519189  54.6691639  42.0172243
  89.1904934  55.1377003  42.9897090  92.8860547  40.5363417  37.7766577
  92.5424817  41.4265059  37.7005688  93.2539510  40.3465074  36.9136162
  80.9546398  52.8596947  30.5955179  81.7921620  53.2693956  30.3788887
  81.1324666  51.9196389  30.5655373  92.8510830  50.5272028  26.2839012
  92.3357454  51.2976633  26.5227399  92.5788139  49.8537164  26.9072074
  90.4357941  45.3721729  31.3424250  89.5799538  44.9828579  31.1629889
  90.8484893  45.4513690  30.4824036  91.9657088  42.9068072  35.7415810
  91.4621883  42.8698207  34.9283615  92.2587695  43.8160815  35.8012467
  88.2099974  42.9906802  34.7481992  89.0752970  42.7949610  34.3887881
  88.2777483  42.7617153  35.6751349  97.8245104  53.2804383  28.2192186
  97.0474547  52.9415542  27.7747348  98.5036585  53.2857006  27.5447151
  92.6397133  48.3999120  28.1098793  92.3347269  48.7145269  28.9608936
  93.5927575  48.4780540  28.1526126  91.0843565  54.5589343  29.7591747
  90.5564927  53.8242103  29.4464985  90.5831068  55.3364020  29.5131716
  96.0636411  52.7538364  34.8758794  95.4060086  53.4437625  34.9638922
  96.8676810  53.1434796  35.2192780  85.8162293  45.2209010  32.1198359
  86.3906045  44.9984191  31.3871552  86.4033275  45.2897704  32.8726960
  94.8741870  51.1082737  32.9262735  95.3873752  51.7412728  33.4284445
  95.5243094  50.5083932  32.5606095  86.1431880  47.2513471  26.1394244
  85.3069192  47.5888157  26.4603519  86.0036650  47.1162450  25.2021381
  88.1184960  42.0950259  30.8473428  87.4649373  41.7799276  30.2230043
  88.0765435  41.4725999  31.5733251  89.2296165  52.3769554  22.7626720
  88.3223227  52.1458807  22.9617869  89.7267197  51.5807173  22.9500702
  92.1364244  61.0867061  25.6823406  91.4625943  61.3898758  26.2908364
  92.5230066  61.8896141  25.3328863  91.3522701  48.5832192  35.1721076
  90.4345262  48.8047139  35.0142764  91.7682844  48.6578503  34.3132783
  92.1357749  49.9823608  30.3023756  92.8829568  50.4945005  29.9930878
  92.4049338  49.6607660  31.1628150  90.4084399  52.4782148  27.2850710
  89.4995618  52.1941181  27.3823180  90.4379483  52.8981227  26.4254017
  95.6403666  56.0888738  31.0541878  95.1865993  55.2479648  31.1107068
  95.0097633  56.7250136  31.3916658  94.5836586  47.0180724  32.2842545
  93.8459343  46.5058110  32.6152788  94.8363359  46.5781106  31.4725822
  94.0836605  57.9265235  31.9891696  94.3759580  58.4870292  31.2704062
  94.5935226  58.2193796  32.7444855  94.6848213  39.7956976  32.8784315
  94.9907090  38.9354339  32.5910230  95.4100818  40.3874596  32.6783309
  80.9772569  50.1987663  31.2665913  80.7796969  49.6057023  30.5416979
  80.4219233  49.8939873  31.9841851  88.9569293  50.0910769  33.3860506
  89.0117903  49.1384605  33.3102982  88.1460495  50.2470208  33.8701804
  90.1060487  54.0190892  24.6238789  89.6679917  53.3026751  24.1644426
  90.8470927  54.2467007  24.0623880  86.8961653  48.7087829  31.1450885
  86.0829518  49.0081999  31.5516077  87.3920647  48.3143518  31.8625367
  89.0470231  58.7045586  33.0785149  89.0046409  58.9306432  32.1493681
  89.9632929  58.4708960  33.2270950  92.4935864  49.1729653  39.9765778
  92.8485252  49.4001126  40.8360244  93.1407996  49.5048030  39.3543034
  98.2233601  52.2948089  30.6815107  98.0851500  52.4849685  29.7536297
  97.8669820  53.0567472  31.1383159  86.3875727  46.2806184  36.7612120
  87.0275107  46.1394943  36.0635083  85.5553258  45.9940698  36.3850722
  98.2502981  54.3624616  35.6926379  98.6839488  54.2699905  36.5409433
  98.9634562  54.3382117  35.0546395  87.1636031  55.5808615  32.8747112
  87.9576630  55.0858935  32.6729687  86.4527724  55.0526478  32.5114818
  91.9830876  57.9626710  37.2259480  92.0367898  58.5317647  37.9937195
  91.1145657  58.1328595  36.8613517  83.4718795  49.7251697  28.9506865
  82.5416383  49.6636152  29.1676827  83.5676267  49.2027649  28.1543506
  83.3904344  46.2506509  31.5385106  83.6511161  47.1651843  31.4294267
  84.2121516  45.7830952  31.6881719  84.8629269  47.6644267  38.7083931
  85.5352323  47.4561629  38.0596580  84.0359056  47.4666353  38.2689163
  99.1118531  54.4048317  38.2259264  99.3054421  55.3094127  38.4718539
  99.0119149  53.9455736  39.0597849  90.7654841  44.2906207  40.7249592
  90.1182756  44.9896157  40.6314068  91.5355857  44.7242351  41.0925840
  94.1733639  54.5555060  43.8000145  94.0219146  54.3265611  42.8830229
  94.1638319  55.5125661  43.8131490  90.9418976  52.1286972  38.7846411
  91.8711036  52.2798132  38.6115379  90.5210006  52.2170993  37.9295058
  89.7407307  56.1537637  36.5544949  89.6018393  55.7856421  37.4270887
  88.9521904  56.6685276  36.3828907  90.3355459  61.2546733  27.8970486
  90.5107215  60.7834776  28.7116108  89.6488247  61.8812499  28.1251746
  91.2912523  55.5319239  33.9433787  90.9562355  55.4920009  34.8391437
  90.7916468  54.8663955  33.4704197  85.2656767  50.9386869  39.4686368
  85.1276564  50.2067108  40.0697907  86.1761690  50.8495770  39.1870556
  94.2271714  52.8775274  24.2170847  93.6100885  52.1522102  24.1203899
  93.7588203  53.6384634  23.8737921  87.8939067  50.6506829  38.9570048
  88.6038686  50.0100021  38.9156666  87.8508375  50.9019724  39.8796228
  95.8825846  57.5874182  41.8776627  95.8238392  56.9033402  41.2107210
  96.2845364  58.3293172  41.4257253  86.6068001  47.6372047  40.7765687
  86.0705358  47.1862785  41.4287283  86.0184710  47.7717956  40.0336151
  84.9016545  64.4036096  34.6710346  85.1413143  65.0354620  35.3489364
  84.0585741  64.0524136  34.9575705  86.0170260  47.0960698  23.3392151
  85.1399726  46.9749499  22.9754397  86.4928013  46.3046776  23.0871039
  95.8843253  55.5513766  40.1090607  94.9970032  55.2139688  40.2317005
  96.4541804  54.8196797  40.3459372  77.5372400  51.8837858  33.4333658
  78.2243440  51.5699588  32.8454673  77.3820529  52.7879222  33.1600909
  82.3407122  46.7728054  37.8618682  82.2565311  46.1653724  37.1269092
  81.5189829  47.2637073  37.8628178  89.4144407  60.2115218  37.0751850
  89.3414578  61.0170190  37.5871154  88.9721800  60.4107184  36.2499871
  89.2034186  59.4486988  30.5854671  88.4201708  59.9908669  30.6792896
  89.9026931  59.9660968  30.9848912  92.5130836  45.2581618  33.2288877
  93.0099536  44.5051580  32.9089947  91.7417818  45.2945935  32.6632086
 100.3660594  50.9621983  34.8707168 100.3550470  51.8446699  34.5001101
  99.4977973  50.6093534  34.6761705  91.8743090  60.1102052  39.2310008
  92.5871062  60.7449517  39.1585910  91.3833119  60.2065918  38.4150010
  93.5960617  54.0153305  30.8027300  92.6616896  54.1354768  30.6332004
  93.7737285  53.1125772  30.5387310  89.0965805  47.3999001  32.9560561
  88.7263593  46.8470041  33.6441467  89.5924897  46.7957134  32.4035561
  96.9833168  49.8570624  31.3377334  97.4493620  50.6898616  31.2637637
  97.4340669  49.3915606  32.0422593  86.9255004  57.8596496  40.0515579
  87.6264463  58.4932979  40.2044973  86.4550119  58.2011227  39.2911218
  95.0509399  56.2014446  28.3363486  95.3269243  56.0871040  29.2457360
  94.1813898  55.8031931  28.2975659  94.9549831  42.2251211  35.3768236
  94.0412911  42.4555438  35.5450442  95.3842933  42.3089655  36.2282268
  94.7256290  50.4141103  37.8768130  94.0727740  50.6617011  37.2220582
  95.1036669  49.6005242  37.5430607  91.6863463  60.4500797  31.9796300
  91.8685858  59.6322452  32.4424052  92.5096449  60.6668489  31.5421190
  92.0205629  59.3768982  29.2411348  92.5493395  58.8661436  28.6281510
  92.2833848  59.0611512  30.1056881  90.7743863  51.1560914  44.3634167
  90.0984500  51.0555044  45.0336542  91.5971496  51.0000128  44.8270164
  82.5222722  57.3932851  36.9846682  83.1076158  56.6476539  37.1174586
  82.3247560  57.7036808  37.8683346  85.3761377  60.4284098  32.0009124
  84.7071752  60.9130226  31.5173164  85.2374247  60.6753319  32.9152503
  77.1140376  49.9638451  35.7051125  77.1524476  49.4302042  36.4988243
  76.6080669  49.4373657  35.0862102  89.5166645  62.4627842  38.5991783
  90.0684953  62.6259463  39.3640868  89.8572839  63.0532280  37.9271808
  84.4931139  44.8102992  39.2013667  84.5572465  45.6717823  38.7891065
  84.4298259  44.1976993  38.4686026  83.9683411  46.8826124  42.8486702
  84.5955450  46.5003202  43.4624226  83.1111330  46.6640326  43.2142394
  94.3677520  57.2889099  44.4540437  94.9117424  57.9019058  43.9595392
  93.7864365  57.8468678  44.9707450  80.7448954  48.6902553  28.7805056
  81.0402395  47.7813232  28.7272110  79.8436990  48.6690293  28.4586059
  92.6535033  60.4109817  35.5855465  92.5286172  59.6099557  35.0766410
  93.3114124  60.9056011  35.0969435  84.2743201  46.7658550  34.7632605
  83.5529787  47.3794518  34.6240078  85.0636457  47.3016315  34.6849251
  94.7169941  58.2118838  37.2135015  93.7700277  58.0924189  37.1413342
  95.0652714  57.3241336  37.2961276  87.0769514  44.1012976  41.0373257
  87.6003916  44.3475273  41.7999566  86.8581848  44.9333011  40.6176394
  82.4736796  46.3716651  28.9044382  82.1449502  45.4914030  28.7219488
  82.8276166  46.3164320  29.7920771  91.7216374  58.0071554  33.4139367
  91.5741337  57.0788261  33.5946937  92.5469868  58.0291644  32.9296442
  85.5878619  46.6589621  29.2719859  85.9274691  47.1875542  28.5498468
  86.0350739  46.9970027  30.0478426  95.3250496  58.8300112  34.5004240
  96.2497044  58.6242974  34.3628691  95.1565800  58.5816514  35.4093581
  88.2822060  45.0426672  38.7222927  87.9418880  44.2434485  39.1243607
  87.5761066  45.3428382  38.1499761  88.9338531  42.1275984  37.1750250
  89.7564601  41.6536462  37.0529141  89.1776595  42.9066468  37.6748937
  87.5746766  45.1564242  27.4713152  88.2955128  45.5345495  26.9676869
  86.9512070  45.8753119  27.5748130  91.7177889  45.8609391  28.4071484
  91.9341503  46.7434029  28.1060313  91.2371956  45.4695605  27.6777126
  86.4577110  48.8195105  34.9842229  86.3121691  49.1335408  35.8766510
  85.9802314  49.4380005  34.4313128  88.3173493  45.8097653  35.0323119
  88.3035062  44.9138746  34.6955416  89.0345921  45.8168316  35.6661405
  90.1699624  46.2434993  37.0776246  89.9117402  47.1652063  37.0760576
  89.6384664  45.8465427  37.7676710  95.1145812  59.3485780  29.8566331
  95.2882690  58.7832202  29.1040184  95.6074704  60.1486675  29.6745821
  80.9322772  51.3600449  37.9229890  80.3876240  52.1360257  38.0550164
  81.8102122  51.7071253  37.7649012  87.7210389  44.6912033  30.3010689
  87.8426300  43.7628679  30.5001576  87.4312431  44.7050719  29.3889004
  90.5901579  42.3766943  33.4377409  90.6123276  42.4406276  32.4829388
  91.0069638  41.5371452  33.6317915 100.9685204  52.1122203  31.4756631
 101.4116350  51.3629528  31.0775754 100.0911714  52.1032339  31.0930363
  96.1020985  58.6652544  26.9563230  96.7971890  59.2859237  27.1750544
  96.4444135  57.8147896  27.2315608  81.7188794  50.4870345  40.8160047
  80.9770530  50.6352981  41.4024677  81.3981538  50.7478611  39.9526796
  98.0012408  56.1152250  28.4850560  98.5263732  56.4539523  27.7599880
  97.9134761  55.1799265  28.3013695  89.6632457  60.0286323  40.6140437
  89.9719583  59.7835470  41.4863137  90.4607939  60.2332962  40.1259307
  89.6853069  62.1824233  32.8445814  89.2458059  61.6900612  33.5378670
  90.4361186  61.6397201  32.6037889  82.1645408  58.3735774  32.8470442
  82.9903428  58.0739546  32.4669085  81.8139460  57.6043396  33.2960230
  87.1326941  57.7262242  34.9168115  86.5106950  57.0632947  34.6170343
  87.8031808  57.7523374  34.2341763  80.3654013  56.2922100  33.8059375
  79.5285921  55.8644275  33.6243376  80.3377658  56.4854544  34.7430166
  87.2051468  46.2044030  44.5100621  87.2539624  47.0806153  44.1278391
  87.7473983  45.6621423  43.9372264  97.6906314  56.7485153  43.7901758
  96.9001858  56.7309292  43.2506258  97.4539669  57.2873447  44.5450795
  97.8104189  53.5977620  41.1034487  97.8602194  53.4327627  42.0450010
  97.7018113  52.7304879  40.7132368  86.6940448  56.2766166  28.3926576
  86.8428568  56.9601630  27.7393249  87.5006891  56.2571256  28.9076032
  95.1007952  49.5808548  42.4193794  96.0017814  49.4415013  42.1277791
  95.1755926  49.7463003  43.3591971  89.4350757  46.9575403  41.2646980
  88.5654066  47.2508969  40.9929568  89.6710237  47.5415848  41.9854244
  99.3122386  56.0174561  41.3476508  99.0207194  56.3804542  42.1839969
  98.6994517  55.3041570  41.1689840 100.5118068  53.5827441  33.8679079
 101.3464960  54.0217245  34.0316639 100.6477197  53.1066094  33.0487324
  97.5609574  51.1407176  39.8156566  98.0363696  51.3334822  39.0075418
  96.6375140  51.1966362  39.5699950  84.4493081  52.3031343  29.3987645
  84.2039123  51.3993673  29.5967855  84.6188995  52.3048494  28.4567123
  92.1389791  43.1755020  38.7812400  92.6571735  43.9116046  38.4558889
  91.7844924  43.4819013  39.6159159  83.7188728  48.0359701  26.8973806
  83.0257973  48.1104056  26.2413842  83.4740480  47.2720044  27.4195323
  92.3902385  39.5955302  34.3013297  92.6704139  38.9278491  34.9273723
  93.1752992  39.7884398  33.7887961  90.1935853  58.7714296  25.8638323
  89.6209820  59.3904483  25.4108795  90.7668647  59.3213658  26.3978245
  96.2611243  48.0172936  38.0484872  97.2128666  48.1171034  38.0697096
  96.0914694  47.2251205  38.5582956  94.2825623  45.1028519  38.2344273
  93.6875555  45.3833532  37.5390762  93.9975319  45.5922420  39.0061014
  93.4133113  59.0551446  26.9946905  94.3463786  58.9897008  27.1979781
  93.3256326  59.8907713  26.5361438  96.0421130  58.3717316  23.9550853
  95.9634761  58.0377180  24.8486611  96.8630797  58.8639084  23.9542325
  98.7399321  51.2379056  37.1627172  98.7075641  50.2995057  37.3486855
  99.3499945  51.3163092  36.4292997  90.5782652  50.1075109  23.2054376
  91.5241757  49.9781317  23.2742794  90.1996897  49.3689771  23.6823804
  98.8893810  48.0290099  37.2085455  98.3732858  47.2448556  37.0215384
  99.7733758  47.7008816  37.3731974  96.5504536  41.7731115  33.1681268
  96.3529358  41.4646203  34.0524599  97.1604242  42.4992754  33.2979197
 104.5575871  52.2995063  36.3033208 105.2879259  52.0380351  36.8640912
 103.9482816  51.5623785  36.3435276 102.6391168  50.4402925  36.9007660
 101.9124332  50.3058890  36.2924151 102.2238455  50.7479754  37.7064378
  90.4621344  54.1592855  44.6655033  91.3824354  54.3371454  44.8595079
  90.4270927  53.2148900  44.5134732  88.7625569  48.0325085  23.1409261
  87.8557024  47.7358198  23.2171975  89.0401550  47.7354903  22.2743547
  79.6803509  49.3531449  33.5908307  79.3606294  48.4996757  33.2982681
  79.1336938  49.5680027  34.3466275  83.4583417  52.0693890  37.3077814
  83.6769427  53.0010997  37.3265848  83.8709191  51.7101864  38.0932618
  90.3787635  42.5761975  29.2953502  89.5688363  42.2309060  29.6708748
  91.0672052  42.2669519  29.8841114  92.3078183  41.6540022  30.9177799
  92.8609222  42.0735475  31.5767822  92.5448269  40.7275770  30.9600755
  88.3311282  47.6427095  46.6980563  88.2308009  48.5921452  46.6292654
  88.1132824  47.3145334  45.8256633  87.5324354  44.8912020  23.2821240
  88.3943518  45.2166919  23.5417057  87.7174698  44.1043516  22.7694306
  79.5491769  52.9734360  35.5601429  78.8555241  52.5588313  35.0471383
  80.2964760  53.0154897  34.9634848  95.6856990  43.7640547  30.4256463
  95.1055659  44.4225351  30.0434516  95.4192923  42.9417891  30.0143881
  94.1360557  43.1645605  32.6277783  94.6360335  43.2762139  31.8192102
  94.7796164  42.8606657  33.2678592  88.1942552  51.0724234  45.5145624
  87.7109634  51.8724594  45.7209513  88.2803491  51.0832179  44.5613068
  81.4628512  52.9052614  33.4367444  81.4399200  53.0040301  32.4849327
  81.7729148  53.7517765  33.7584610  84.1215890  54.9628769  37.5514058
  85.0759143  54.9312711  37.4843990  83.9228413  54.5019393  38.3664284
  84.7115272  53.5329885  40.1184856  85.5308161  54.0273964  40.1419693
  84.9852080  52.6161853  40.0902423  94.4681868  45.9240637  29.4812811
  93.5807723  46.2090288  29.2633006  94.8835857  45.7634401  28.6340088
  97.8196404  45.9487158  33.1967151  98.5956794  46.4383611  33.4691767
  97.0944538  46.3745212  33.6539020 100.2568963  46.6614777  34.2541091
 100.8513454  46.4210513  33.5434399 100.3295547  45.9421908  34.8814628
  82.4766119  60.5048388  34.5684256  82.3420587  59.7448789  34.0022254
  82.0598181  61.2289288  34.1013045  93.6125082  55.6885312  23.5760831
  94.3160932  55.8935314  24.1918487  92.8887730  56.2562074  23.8409915
  94.4422892  51.4395173  29.6963102  94.3858093  51.8963725  28.8570734
  94.9951234  50.6785858  29.5185944  98.2527698  47.2284905  30.5213221
  97.9964632  46.8281541  31.3521429  97.6280566  47.9428699  30.3963360
 102.5640036  49.9680978  33.0284512 102.0039594  50.0374168  33.8016075
 101.9583539  49.7921963  32.3084009  85.6335244  61.4017705  34.7802699
  85.5167629  62.3463138  34.6781389  84.8127691  61.0991267  35.1688498
  95.5211779  56.1267841  25.6259291  96.3557383  55.6949040  25.4436766
  95.3596122  55.9549855  26.5536186  95.1757671  52.6299954  26.9915631
  95.1206475  52.4644226  26.0504075  94.5503726  53.3375987  27.1477820
  79.9650186  47.8668019  40.8177053  80.6109050  47.3566973  41.3064278
  79.7567337  48.6036700  41.3920478  92.4903578  54.9348866  46.3169193
  93.3594738  55.1089519  45.9555828  92.0110330  55.7543283  46.1944923
  88.4853797  42.1308063  26.5700949  88.4732467  43.0749903  26.7269220
  89.3777219  41.9478209  26.2760410  86.6589759  62.0545967  37.9958627
  87.5617005  62.0869578  38.3125122  86.4327129  61.1246418  38.0104963
  88.4143361  60.8076954  34.6568706  87.4638992  60.8078815  34.5433078
  88.7175847  60.0609688  34.1404740  92.3005916  38.7250840  30.8246886
  91.5338312  38.1709327  30.9703568  92.7116621  38.7972709  31.6861038
  84.3047677  45.0135636  44.9152067  85.1679139  44.6572441  45.1255392
  83.7313088  44.6749531  45.6027471 104.1496054  66.6437492  35.7214468
 104.7874464  66.5244240  35.0177808 104.0316897  67.5918336  35.7802420
 100.9585760  66.5964920  35.6575993 100.6204272  66.4805985  34.7696528
 101.8275529  66.1956085  35.6376999  96.8172576  68.4500397  31.6472884
  96.2537441  68.3590334  30.8789172  96.7024971  67.6300301  32.1275376
 101.4405543  67.7499772  41.6162198 101.4294184  67.3552570  40.7442702
 101.6026183  67.0165845  42.2095970  94.3637008  69.9451588  34.4857104
  95.1558300  69.6042413  34.0703404  94.6033658  70.0546563  35.4059258
 102.3972135  72.1171364  26.9587349 101.7460115  72.7025445  26.5721363
 103.1916498  72.6477559  27.0182386  96.3227762  69.2060502  27.3574483
  97.0958638  68.6589489  27.2187359  96.6753161  70.0704751  27.5688944
  98.1612805  70.5336884  40.5641382  97.8702671  71.4382515  40.4488049
  98.7969789  70.5753411  41.2785452  99.0869011  67.9113732  37.1542742
  99.6832584  67.6869755  36.4399705  99.1443983  67.1698478  37.7568190
  98.6594040  65.3653168  24.9892933  98.9119560  64.8434689  24.2276396
  97.7218599  65.2019313  25.0919617 103.7037323  64.3688946  32.7967676
 104.4900412  63.9508369  32.4458093 103.9676027  65.2735038  32.9649325
 103.8747400  69.8061796  27.4956333 103.2393233  69.8796423  28.2077238
 103.5444806  70.3955395  26.8175412 109.1045750  64.3064179  33.7000655
 109.8370922  63.7363396  33.9338484 108.3485105  63.9185780  34.1407160
  98.3790329  67.2681274  27.1917308  98.2626587  66.5926177  27.8598392
  98.4892588  66.7813648  26.3749461 100.7221869  66.7291421  30.8963997
 100.3580077  66.2022042  31.6076919 101.5788985  66.3389890  30.7230483
 106.6271170  58.0185753  38.1595263 106.2954495  58.8881164  37.9356478
 106.0316783  57.7022037  38.8389294 100.3627356  61.7581320  25.8925346
 100.5301759  62.6261557  26.2595817 100.1724526  61.9208602  24.9686635
 103.1202690  70.2198299  37.5591176 102.8203413  71.1223338  37.4506983
 102.7753749  69.9530483  38.4112329  96.5715171  66.6712096  33.5927880
  95.6465668  66.5388310  33.8005572  96.8199584  67.4506315  34.0897823
 106.5199833  62.7380840  35.2388613 105.6116711  62.6696248  34.9447374
 106.4687429  63.2152784  36.0670439 100.3416577  64.2138978  26.8772013
 100.2216203  64.6596029  27.7157493  99.6469166  64.5624296  26.3185551
  93.9323982  66.3145370  34.4271670  94.0616363  66.5679849  35.3411081
  93.2521433  66.9073078  34.1076325  98.1023469  76.9842620  30.5262144
  98.0247499  77.9350445  30.6050624  97.4985113  76.6388492  31.1837070
 100.5940699  64.1570485  43.1823511  99.8174033  64.7164405  43.1726375
 101.2331262  64.6427268  43.7038381 108.3861480  60.9397278  37.0166487
 107.7435860  61.2329811  36.3706282 107.8816408  60.8250198  37.8219684
 106.0401643  64.6860451  27.7052347 106.9519500  64.9187838  27.5300044
 105.5311291  65.2697495  27.1427425  98.8487072  66.9655938  42.7441478
  99.5901756  67.5040982  42.4676301  98.1424057  67.5922227  42.9013029
 104.3242411  69.1085079  41.3413639 104.7325767  68.6667489  40.5968272
 103.6019673  68.5337706  41.5947832 100.6773481  64.0457686  38.7147196
 101.5234676  64.4697099  38.8581845 100.6172119  63.3891310  39.4085759
 104.6471226  69.6686270  35.0965928 104.0180088  69.8331984  34.3941996
 104.2596888  70.0827879  35.8676892 108.5260458  70.6040707  32.4510292
 107.8411496  70.9839609  31.9007325 108.6104307  71.2136034  33.1842240
 103.8272927  61.7062054  40.3728370 103.5833858  62.4604115  39.8362645
 104.1032857  62.0847402  41.2075617 105.7811389  68.2500666  39.0505635
 105.9928285  68.8932426  38.3740016 105.7341138  67.4162983  38.5827565
 103.3837618  60.8618487  35.9542207 102.5222097  61.1599741  36.2458945
 103.4100053  61.0788886  35.0223240 100.1999188  69.4060678  32.3616013
 100.6637533  69.6848381  31.5720636  99.9355986  68.5044122  32.1789104
  97.0923269  68.9532159  35.2995776  97.6624626  69.3819428  34.6613261
  97.6831381  68.6714744  35.9979962  99.1368074  65.5283830  29.1705578
  99.8392117  65.9804874  29.6379505  98.8048702  64.8867649  29.7985471
  97.5848435  64.1195587  43.5456788  96.9547096  64.8011867  43.7792184
  97.4784523  64.0078668  42.6009926  92.8793408  63.7867383  34.4722712
  92.0892462  64.0424911  33.9962822  93.3704655  64.6015721  34.5774752
 106.8957217  71.1272622  37.2227993 107.7174661  70.7252809  36.9410674
 106.8919620  71.0240856  38.1744108  94.8308153  64.1511962  31.4306189
  94.0339316  64.2630656  31.9489684  94.6033745  64.4898614  30.5647079
 100.6613821  70.6756665  39.3788703 100.7258253  71.1377072  40.2146875
  99.9524745  70.0454030  39.5071013  91.1631111  64.0397873  36.9037703
  91.4139149  64.9244883  37.1695279  91.6990659  63.8602475  36.1312794
 114.9863210  67.4711370  33.5712964 114.2326919  66.9018768  33.4156969
 115.1210752  67.4374035  34.5183599 100.3761838  72.3424773  29.2467683
 100.2407513  73.1876308  29.6752531 100.9171651  72.5444050  28.4833617
  96.8629178  58.4216352  45.9082039  96.4696124  57.8682551  46.5829683
  97.6795318  58.7326931  46.2988556  93.8291236  69.8600211  29.8195609
  94.3415756  70.6543461  29.9701173  94.4813949  69.1626501  29.7529210
  95.6386120  72.9765967  31.9018362  95.8152749  73.8983932  31.7139346
  96.4342954  72.6624386  32.3312742  99.7797139  59.8374232  43.5002295
 100.5206852  60.4381385  43.4206758 100.0115062  59.0951869  42.9420338
  94.9238477  65.0230599  41.7780525  94.8091992  64.1215856  42.0787624
  94.0682995  65.2694296  41.4265341 102.0030315  72.9648339  43.3768026
 101.5594169  72.1784718  43.0588930 102.6647528  73.1527490  42.7111916
  96.7617436  74.4944141  37.9028704  97.3124861  74.3661204  37.1305698
  95.9228912  74.7939030  37.5523597 104.1011553  73.2451139  41.4049427
 104.0830028  74.0660020  40.9129696 105.0231473  73.1205214  41.6299568
 100.5584607  70.7595269  42.2472935 101.0912944  69.9983557  42.0172243
 100.0298688  70.4668920  42.9897090 103.7254302  55.8655335  37.7766577
 103.3818571  56.7556976  37.7005688 104.0933265  55.6756992  36.9136162
  91.7940153  68.1888865  30.5955179  92.6315375  68.5985873  30.3788887
  91.9718420  67.2488307  30.5655373 103.6904585  65.8563946  26.2839012
 103.1751208  66.6268550  26.5227399 103.4181893  65.1829082  26.9072074
 101.2751696  60.7013646  31.3424250 100.4193292  60.3120497  31.1629889
 101.6878647  60.7805607  30.4824036 102.8050842  58.2359990  35.7415810
 102.3015638  58.1990125  34.9283615 103.0981449  59.1452732  35.8012467
  99.0493728  58.3198719  34.7481992  99.9146725  58.1241528  34.3887881
  99.1171237  58.0909071  35.6751349 108.6638859  68.6096300  28.2192186
 107.8868302  68.2707460  27.7747348 109.3430340  68.6148923  27.5447151
 103.4790888  63.7291038  28.1098793 103.1741023  64.0437187  28.9608936
 104.4321330  63.8072458  28.1526126 101.9237320  69.8881261  29.7591747
 101.3958681  69.1534021  29.4464985 101.4224822  70.6655937  29.5131716
 106.9030166  68.0830282  34.8758794 106.2453840  68.7729543  34.9638922
 107.7070565  68.4726713  35.2192780  96.6556047  60.5500927  32.1198359
  97.2299799  60.3276109  31.3871552  97.2427030  60.6189622  32.8726960
 105.7135624  66.4374654  32.9262735 106.2267506  67.0704646  33.4284445
 106.3636848  65.8375850  32.5606095  96.9825634  62.5805388  26.1394244
  96.1462947  62.9180075  26.4603519  96.8430404  62.4454368  25.2021381
  98.9578715  57.4242176  30.8473428  98.3043127  57.1091193  30.2230043
  98.9159189  56.8017917  31.5733251 100.0689920  67.7061471  22.7626720
  99.1616982  67.4750725  22.9617869 100.5660952  66.9099091  22.9500702
 102.9757999  76.4158978  25.6823406 102.3019697  76.7190675  26.2908364
 103.3623821  77.2188059  25.3328863 102.1916455  63.9124110  35.1721076
 101.2739017  64.1339057  35.0142764 102.6076599  63.9870420  34.3132783
 102.9751503  65.3115525  30.3023756 103.7223322  65.8236923  29.9930878
 103.2443093  64.9899578  31.1628150 101.2478153  67.8074066  27.2850710
 100.3389373  67.5233099  27.3823180 101.2773237  68.2273145  26.4254017
 106.4797421  71.4180656  31.0541878 106.0259748  70.5771566  31.1107068
 105.8491387  72.0542054  31.3916658 105.4230340  62.3472642  32.2842545
 104.6853097  61.8350028  32.6152788 105.6757114  61.9073023  31.4725822
 104.9230360  73.2557152  31.9891696 105.2153334  73.8162209  31.2704062
 105.4328980  73.5485713  32.7444855 105.5241968  55.1248894  32.8784315
 105.8300844  54.2646257  32.5910230 106.2494572  55.7166514  32.6783309
  91.8166324  65.5279580  31.2665913  91.6190723  64.9348941  30.5416979
  91.2612988  65.2231790  31.9841851  99.7963047  65.4202687  33.3860506
  99.8511657  64.4676523  33.3102982  98.9854249  65.5762126  33.8701804
 100.9454241  69.3482810  24.6238789 100.5073671  68.6318669  24.1644426
 101.6864682  69.5758925  24.0623880  97.7355407  64.0379747  31.1450885
  96.9223273  64.3373917  31.5516077  98.2314401  63.6435435  31.8625367
  99.8863985  74.0337503  33.0785149  99.8440164  74.2598350  32.1493681
 100.8026684  73.8000878  33.2270950 103.3329619  64.5021571  39.9765778
 103.6879007  64.7293044  40.8360244 103.9801750  64.8339948  39.3543034
 109.0627356  67.6240007  30.6815107 108.9245254  67.8141603  29.7536297
 108.7063575  68.3859390  31.1383159  97.2269482  61.6098102  36.7612120
  97.8668861  61.4686861  36.0635083  96.3947013  61.3232615  36.3850722
 109.0896735  69.6916534  35.6926379 109.5233242  69.5991823  36.5409433
 109.8028316  69.6674034  35.0546395  98.0029786  70.9100532  32.8747112
  98.7970384  70.4150853  32.6729687  97.2921478  70.3818396  32.5114818
 102.8224630  73.2918628  37.2259480 102.8761653  73.8609564  37.9937195
 101.9539412  73.4620513  36.8613517  94.3112549  65.0543614  28.9506865
  93.3810137  64.9928070  29.1676827  94.4070021  64.5319567  28.1543506
  94.2298098  61.5798427  31.5385106  94.4904916  62.4943760  31.4294267
  95.0515271  61.1122870  31.6881719  95.7023024  62.9936184  38.7083931
  96.3746077  62.7853546  38.0596580  94.8752810  62.7958270  38.2689163
 109.9512285  69.7340235  38.2259264 110.1448175  70.6386045  38.4718539
 109.8512903  69.2747654  39.0597849 101.6048596  59.6198125  40.7249592
 100.9576511  60.3188075  40.6314068 102.3749611  60.0534269  41.0925840
 105.0127394  69.8846977  43.8000145 104.8612900  69.6557529  42.8830229
 105.0032073  70.8417579  43.8131490 101.7812730  67.4578890  38.7846411
 102.7104790  67.6090050  38.6115379 101.3603760  67.5462911  37.9295058
 100.5801062  71.4829554  36.5544949 100.4412148  71.1148339  37.4270887
  99.7915658  71.9977194  36.3828907 101.1749214  76.5838651  27.8970486
 101.3500970  76.1126694  28.7116108 100.4882002  77.2104417  28.1251746
 102.1306277  70.8611157  33.9433787 101.7956110  70.8211927  34.8391437
 101.6310223  70.1955873  33.4704197  96.1050521  66.2678787  39.4686368
  95.9670319  65.5359026  40.0697907  97.0155444  66.1787687  39.1870556
 105.0665469  68.2067191  24.2170847 104.4494639  67.4814020  24.1203899
 104.5981957  68.9676552  23.8737921  98.7332822  65.9798746  38.9570048
  99.4432440  65.3391939  38.9156666  98.6902130  66.2311641  39.8796228
 106.7219600  72.9166100  41.8776627 106.6632146  72.2325320  41.2107210
 107.1239119  73.6585090  41.4257253  97.4461756  62.9663964  40.7765687
  96.9099113  62.5154703  41.4287283  96.8578464  63.1009873  40.0336151
  95.7410299  79.7328014  34.6710346  95.9806897  80.3646538  35.3489364
  94.8979496  79.3816054  34.9575705  96.8564015  62.4252616  23.3392151
  95.9793481  62.3041417  22.9754397  97.3321768  61.6338694  23.0871039
 106.7237008  70.8805684  40.1090607 105.8363786  70.5431606  40.2317005
 107.2935559  70.1488715  40.3459372  88.3766155  67.2129776  33.4333658
  89.0637195  66.8991506  32.8454673  88.2214283  68.1171140  33.1600909
  93.1800877  62.1019972  37.8618682  93.0959066  61.4945642  37.1269092
  92.3583583  62.5928990  37.8628178 100.2538161  75.5407136  37.0751850
 100.1808332  76.3462108  37.5871154  99.8115554  75.7399102  36.2499871
 100.0427941  74.7778906  30.5854671  99.2595463  75.3200586  30.6792896
 100.7420686  75.2952886  30.9848912 103.3524591  60.5873536  33.2288877
 103.8493290  59.8343498  32.9089947 102.5811572  60.6237852  32.6632086
 111.2054348  66.2913901  34.8707168 111.1944224  67.1738617  34.5001101
 110.3371728  65.9385452  34.6761705 102.7136845  75.4393970  39.2310008
 103.4264817  76.0741435  39.1585910 102.2226873  75.5357836  38.4150010
 104.4354371  69.3445223  30.8027300 103.5010650  69.4646685  30.6332004
 104.6131040  68.4417690  30.5387310  99.9359559  62.7290919  32.9560561
  99.5657347  62.1761959  33.6441467 100.4318652  62.1249052  32.4035561
 107.8226923  65.1862542  31.3377334 108.2887375  66.0190534  31.2637637
 108.2734423  64.7207524  32.0422593  97.7648758  73.1888414  40.0515579
  98.4658218  73.8224897  40.2044973  97.2943873  73.5303145  39.2911218
 105.8903154  71.5306363  28.3363486 106.1662998  71.4162958  29.2457360
 105.0207653  71.1323848  28.2975659 105.7943586  57.5543129  35.3768236
 104.8806665  57.7847356  35.5450442 106.2236687  57.6381573  36.2282268
 105.5650044  65.7433021  37.8768130 104.9121494  65.9908929  37.2220582
 105.9430424  64.9297159  37.5430607 102.5257218  75.7792714  31.9796300
 102.7079612  74.9614370  32.4424052 103.3490204  75.9960406  31.5421190
 102.8599383  74.7060899  29.2411348 103.3887150  74.1953354  28.6281510
 103.1227603  74.3903430  30.1056881 101.6137617  66.4852832  44.3634167
 100.9378254  66.3846961  45.0336542 102.4365251  66.3292046  44.8270164
  93.3616476  72.7224769  36.9846682  93.9469913  71.9768457  37.1174586
  93.1641315  73.0328725  37.8683346  96.2155131  75.7576016  32.0009124
  95.5465507  76.2422144  31.5173164  96.0768001  76.0045236  32.9152503
  87.9534131  65.2930369  35.7051125  87.9918230  64.7593960  36.4988243
  87.4474424  64.7665574  35.0862102 100.3560400  77.7919760  38.5991783
 100.9078708  77.9551381  39.3640868 100.6966593  78.3824197  37.9271808
  95.3324893  60.1394909  39.2013667  95.3966220  61.0009740  38.7891065
  95.2692013  59.5268911  38.4686026  94.8077166  62.2118042  42.8486702
  95.4349204  61.8295119  43.4624226  93.9505085  61.9932244  43.2142394
 105.2071274  72.6181017  44.4540437 105.7511178  73.2310975  43.9595392
 104.6258119  73.1760595  44.9707450  91.5842708  64.0194471  28.7805056
  91.8796150  63.1105149  28.7272110  90.6830744  63.9982210  28.4586059
 103.4928787  75.7401735  35.5855465 103.3679927  74.9391475  35.0766410
 104.1507878  76.2347928  35.0969435  95.1136955  62.0950468  34.7632605
  94.3923541  62.7086435  34.6240078  95.9030211  62.6308232  34.6849251
 105.5563696  73.5410755  37.2135015 104.6094031  73.4216106  37.1413342
 105.9046469  72.6533253  37.2961276  97.9163269  59.4304894  41.0373257
  98.4397671  59.6767191  41.7999566  97.6975602  60.2624929  40.6176394
  93.3130550  61.7008569  28.9044382  92.9843256  60.8205948  28.7219488
  93.6669921  61.6456237  29.7920771 102.5610129  73.3363471  33.4139367
 102.4135091  72.4080179  33.5946937 103.3863622  73.3583562  32.9296442
  96.4272373  61.9881538  29.2719859  96.7668446  62.5167460  28.5498468
  96.8744494  62.3261945  30.0478426 106.1644251  74.1592030  34.5004240
 107.0890798  73.9534891  34.3628691 105.9959554  73.9108431  35.4093581
  99.1215814  60.3718589  38.7222927  98.7812634  59.5726402  39.1243607
  98.4154820  60.6720300  38.1499761  99.7732286  57.4567902  37.1750250
 100.5958355  56.9828380  37.0529141 100.0170349  58.2358385  37.6748937
  98.4140520  60.4856160  27.4713152  99.1348883  60.8637413  26.9676869
  97.7905824  61.2045037  27.5748130 102.5571643  61.1901309  28.4071484
 102.7735258  62.0725947  28.1060313 102.0765710  60.7987522  27.6777126
  97.2970865  64.1487022  34.9842229  97.1515445  64.4627325  35.8766510
  96.8196068  64.7671923  34.4313128  99.1567247  61.1389570  35.0323119
  99.1428816  60.2430664  34.6955416  99.8739676  61.1460234  35.6661405
 101.0093378  61.5726910  37.0776246 100.7511156  62.4943981  37.0760576
 100.4778419  61.1757345  37.7676710 105.9539567  74.6777698  29.8566331
 106.1276444  74.1124120  29.1040184 106.4468458  75.4778592  29.6745821
  91.7716527  66.6892367  37.9229890  91.2269995  67.4652175  38.0550164
  92.6495877  67.0363171  37.7649012  98.5604143  60.0203951  30.3010689
  98.6820055  59.0920597  30.5001576  98.2706186  60.0342637  29.3889004
 101.4295334  57.7058861  33.4377409 101.4517031  57.7698194  32.4829388
 101.8463393  56.8663370  33.6317915 111.8078958  67.4414121  31.4756631
 112.2510104  66.6921446  31.0775754 110.9305468  67.4324257  31.0930363
 106.9414739  73.9944462  26.9563230 107.6365644  74.6151155  27.1750544
 107.2837890  73.1439813  27.2315608  92.5582549  65.8162263  40.8160047
  91.8164285  65.9644898  41.4024677  92.2375293  66.0770529  39.9526796
 108.8406163  71.4444168  28.4850560 109.3657487  71.7831440  27.7599880
 108.7528515  70.5091183  28.3013695 100.5026211  75.3578241  40.6140437
 100.8113338  75.1127388  41.4863137 101.3001693  75.5624880  40.1259307
 100.5246823  77.5116151  32.8445814 100.0851814  77.0192529  33.5378670
 101.2754940  76.9689118  32.6037889  93.0039162  73.7027692  32.8470442
  93.8297182  73.4031464  32.4669085  92.6533214  72.9335314  33.2960230
  97.9720695  73.0554160  34.9168115  97.3500705  72.3924865  34.6170343
  98.6425562  73.0815292  34.2341763  91.2047767  71.6214018  33.8059375
  90.3679676  71.1936192  33.6243376  91.1771413  71.8146461  34.7430166
  98.0445223  61.5335948  44.5100621  98.0933378  62.4098071  44.1278391
  98.5867737  60.9913341  43.9372264 108.5300069  72.0777071  43.7901758
 107.7395612  72.0601210  43.2506258 108.2933423  72.6165365  44.5450795
 108.6497944  68.9269538  41.1034487 108.6995949  68.7619545  42.0450010
 108.5411867  68.0596797  40.7132368  97.5334202  71.6058083  28.3926576
  97.6822323  72.2893548  27.7393249  98.3400646  71.5863173  28.9076032
 105.9401706  64.9100466  42.4193794 106.8411569  64.7706930  42.1277791
 106.0149681  65.0754920  43.3591971 100.2744511  62.2867320  41.2646980
  99.4047821  62.5800886  40.9929568 100.5103992  62.8707765  41.9854244
 110.1516140  71.3466479  41.3476508 109.8600949  71.7096460  42.1839969
 109.5388272  70.6333487  41.1689840 111.3511823  68.9119359  33.8679079
 112.1858714  69.3509163  34.0316639 111.4870952  68.4358012  33.0487324
 108.4003329  66.4699094  39.8156566 108.8757450  66.6626740  39.0075418
 107.4768894  66.5258279  39.5699950  95.2886835  67.6323261  29.3987645
  95.0432877  66.7285591  29.5967855  95.4582750  67.6340411  28.4567123
 102.9783545  58.5046937  38.7812400 103.4965489  59.2407964  38.4558889
 102.6238678  58.8110931  39.6159159  94.5582483  63.3651618  26.8973806
  93.8651728  63.4395973  26.2413842  94.3134235  62.6011962  27.4195323
 103.2296139  54.9247220  34.3013297 103.5097893  54.2570409  34.9273723
 104.0146746  55.1176315  33.7887961 101.0329608  74.1006214  25.8638323
 100.4603575  74.7196401  25.4108795 101.6062402  74.6505575  26.3978245
 107.1004998  63.3464854  38.0484872 108.0522421  63.4462951  38.0697096
 106.9308448  62.5543122  38.5582956 105.1219377  60.4320437  38.2344273
 104.5269309  60.7125450  37.5390762 104.8369074  60.9214338  39.0061014
 104.2526868  74.3843364  26.9946905 105.1857541  74.3188925  27.1979781
 104.1650080  75.2199631  26.5361438 106.8814884  73.7009234  23.9550853
 106.8028516  73.3669098  24.8486611 107.7024551  74.1931002  23.9542325
 109.5793076  66.5670973  37.1627172 109.5469396  65.6286974  37.3486855
 110.1893699  66.6455010  36.4292997 101.4176406  65.4367026  23.2054376
 102.3635511  65.3073235  23.2742794 101.0390651  64.6981688  23.6823804
 109.7287564  63.3582017  37.2085455 109.2126613  62.5740474  37.0215384
 110.6127513  63.0300733  37.3731974 107.3898291  57.1023032  33.1681268
 107.1923112  56.7938121  34.0524599 107.9997997  57.8284671  33.2979197
 115.3969625  67.6286980  36.3033208 116.1273014  67.3672268  36.8640912
 114.7876571  66.8915702  36.3435276 113.4784922  65.7694843  36.9007660
 112.7518086  65.6350808  36.2924151 113.0632209  66.0771671  37.7064378
 101.3015099  69.4884773  44.6655033 102.2218108  69.6663372  44.8595079
 101.2664682  68.5440818  44.5134732  99.6019324  63.3617003  23.1409261
  98.6950779  63.0650116  23.2171975  99.8795305  63.0646821  22.2743547
  90.5197264  64.6823366  33.5908307  90.2000048  63.8288674  33.2982681
  89.9730692  64.8971944  34.3466275  94.2977171  67.3985807  37.3077814
  94.5163181  68.3302915  37.3265848  94.7102945  67.0393782  38.0932618
 101.2181389  57.9053893  29.2953502 100.4082118  57.5600977  29.6708748
 101.9065806  57.5961436  29.8841114 103.1471938  56.9831939  30.9177799
 103.7002976  57.4027393  31.5767822 103.3842024  56.0567687  30.9600755
  99.1705037  62.9719013  46.6980563  99.0701764  63.9213370  46.6292654
  98.9526579  62.6437252  45.8256633  98.3718108  60.2203938  23.2821240
  99.2337272  60.5458836  23.5417057  98.5568452  59.4335434  22.7694306
  90.3885524  68.3026278  35.5601429  89.6948995  67.8880231  35.0471383
  91.1358515  68.3446814  34.9634848 106.5250745  59.0932464  30.4256463
 105.9449414  59.7517269  30.0434516 106.2586677  58.2709809  30.0143881
 104.9754311  58.4937522  32.6277783 105.4754089  58.6054057  31.8192102
 105.6189919  58.1898575  33.2678592  99.0336307  66.4016152  45.5145624
  98.5503389  67.2016512  45.7209513  99.1197246  66.4124097  44.5613068
  92.3022266  68.2344531  33.4367444  92.2792955  68.3332219  32.4849327
  92.6122903  69.0809682  33.7584610  94.9609644  70.2920687  37.5514058
  95.9152898  70.2604629  37.4843990  94.7622168  69.8311310  38.3664284
  95.5509026  68.8621803  40.1184856  96.3701915  69.3565881  40.1419693
  95.8245834  67.9453771  40.0902423 105.3075623  61.2532555  29.4812811
 104.4201478  61.5382205  29.2633006 105.7229612  61.0926318  28.6340088
 108.6590159  61.2779076  33.1967151 109.4350549  61.7675528  33.4691767
 107.9338293  61.7037130  33.6539020 111.0962717  61.9906695  34.2541091
 111.6907208  61.7502431  33.5434399 111.1689301  61.2713826  34.8814628
  93.3159873  75.8340306  34.5684256  93.1814341  75.0740707  34.0022254
  92.8991935  76.5581206  34.1013045 104.4518836  71.0177230  23.5760831
 105.1554686  71.2227232  24.1918487 103.7281485  71.5853991  23.8409915
 105.2816646  66.7687091  29.6963102 105.2251848  67.2255642  28.8570734
 105.8344989  66.0077775  29.5185944 109.0921452  62.5576823  30.5213221
 108.8358387  62.1573458  31.3521429 108.4674320  63.2720617  30.3963360
 113.4033790  65.2972896  33.0284512 112.8433348  65.3666085  33.8016075
 112.7977294  65.1213881  32.3084009  96.4728999  76.7309623  34.7802699
  96.3561383  77.6755056  34.6781389  95.6521445  76.4283185  35.1688498
 106.3605534  71.4559759  25.6259291 107.1951137  71.0240957  25.4436766
 106.1989876  71.2841772  26.5536186 106.0151426  67.9591872  26.9915631
 105.9600230  67.7936143  26.0504075 105.3897481  68.6667905  27.1477820
  90.8043941  63.1959936  40.8177053  91.4502804  62.6858890  41.3064278
  90.5961092  63.9328618  41.3920478 103.3297333  70.2640784  46.3169193
 104.1988493  70.4381436  45.9555828 102.8504084  71.0835201  46.1944923
  99.3247551  57.4599981  26.5700949  99.3126221  58.4041821  26.7269220
 100.2170973  57.2770126  26.2760410  97.4983513  77.3837885  37.9958627
  98.4010760  77.4161495  38.3125122  97.2720883  76.4538336  38.0104963
  99.2537115  76.1368871  34.6568706  98.3032746  76.1370733  34.5433078
  99.5569601  75.3901606  34.1404740 103.1399671  54.0542758  30.8246886
 102.3732066  53.5001244  30.9703568 103.5510376  54.1264626  31.6861038
  95.1441432  60.3427554  44.9152067  96.0072893  59.9864358  45.1255392
  94.5706842  60.0041448  45.6027471 114.9889809  81.9729410  35.7214468
 115.6268219  81.8536157  35.0177808 114.8710652  82.9210254  35.7802420
 111.7979515  81.9256838  35.6575993 111.4598026  81.8097903  34.7696528
 112.6669283  81.5248003  35.6376999 107.6566331  83.7792314  31.6472884
 107.0931196  83.6882251  30.8789172 107.5418726  82.9592219  32.1275376
 113.2365889  87.4463282  26.9587349 112.5853869  88.0317362  26.5721363
 114.0310252  87.9769477  27.0182386 107.1621516  84.5352419  27.3574483
 107.9352392  83.9881406  27.2187359 107.5146915  85.3996669  27.5688944
 109.4987794  80.6945085  24.9892933 109.7513315  80.1726607  24.2276396
 108.5612353  80.5311231  25.0919617 114.5431077  79.6980864  32.7967676
 115.3294166  79.2800287  32.4458093 114.8069781  80.6026956  32.9649325
 114.7141154  85.1353714  27.4956333 114.0786987  85.2088341  28.2077238
 114.3838561  85.7247313  26.8175412 119.9439504  79.6356097  33.7000655
 120.6764676  79.0655314  33.9338484 119.1878860  79.2477697  34.1407160
 109.2184083  82.5973191  27.1917308 109.1020341  81.9218095  27.8598392
 109.3286343  82.1105565  26.3749461 111.5615624  82.0583338  30.8963997
 111.1973831  81.5313959  31.6076919 112.4182740  81.6681807  30.7230483
 117.4664925  73.3477671  38.1595263 117.1348249  74.2173082  37.9356478
 116.8710538  73.0313955  38.8389294 111.2021111  77.0873238  25.8925346
 111.3695513  77.9553475  26.2595817 111.0118280  77.2500520  24.9686635
 113.9596444  85.5490217  37.5591176 113.6597167  86.4515256  37.4506983
 113.6147504  85.2822400  38.4112329 107.4108926  82.0004014  33.5927880
 106.4859422  81.8680228  33.8005572 107.6593339  82.7798233  34.0897823
 117.3593588  78.0672757  35.2388613 116.4510465  77.9988166  34.9447374
 117.3081184  78.5444702  36.0670439 111.1810332  79.5430896  26.8772013
 111.0609957  79.9887946  27.7157493 110.4862920  79.8916213  26.3185551
 108.9417224  92.3134537  30.5262144 108.8641254  93.2642362  30.6050624
 108.3378868  91.9680410  31.1837070 119.2255234  76.2689196  37.0166487
 118.5829615  76.5621729  36.3706282 118.7210163  76.1542116  37.8219684
 116.8795398  80.0152369  27.7052347 117.7913254  80.2479756  27.5300044
 116.3705045  80.5989413  27.1427425 115.1636166  84.4376997  41.3413639
 115.5719522  83.9959407  40.5968272 114.4413427  83.8629624  41.5947832
 115.4864980  84.9978187  35.0965928 114.8573843  85.1623901  34.3941996
 115.0990642  85.4119797  35.8676892 119.3654212  85.9332625  32.4510292
 118.6805250  86.3131526  31.9007325 119.4498061  86.5427952  33.1842240
 114.6666681  77.0353972  40.3728370 114.4227613  77.7896032  39.8362645
 114.9426612  77.4139319  41.2075617 116.6205144  83.5792584  39.0505635
 116.8322039  84.2224344  38.3740016 116.5734892  82.7454901  38.5827565
 114.2231373  76.1910405  35.9542207 113.3615852  76.4891658  36.2458945
 114.2493807  76.4080804  35.0223240 111.0392942  84.7352595  32.3616013
 111.5031288  85.0140298  31.5720636 110.7749740  83.8336040  32.1789104
 109.9761828  80.8575748  29.1705578 110.6785872  81.3096791  29.6379505
 109.6442457  80.2159567  29.7985471 103.7187162  79.1159300  34.4722712
 102.9286216  79.3716829  33.9962822 104.2098410  79.9307638  34.5774752
 117.7350972  86.4564540  37.2227993 118.5568415  86.0544727  36.9410674
 117.7313375  86.3532774  38.1744108 105.6701908  79.4803880  31.4306189
 104.8733071  79.5922574  31.9489684 105.4427500  79.8190532  30.5647079
 102.0024865  79.3689791  36.9037703 102.2532904  80.2536801  37.1695279
 102.5384414  79.1894392  36.1312794 125.8256965  82.8003288  33.5712964
 125.0720673  82.2310686  33.4156969 125.9604506  82.7665953  34.5183599
 111.2155593  87.6716690  29.2467683 111.0801268  88.5168226  29.6752531
 111.7565405  87.8735968  28.4833617 107.7022932  73.7508270  45.9082039
 107.3089878  73.1974469  46.5829683 108.5189073  74.0618849  46.2988556
 104.6684990  85.1892128  29.8195609 105.1809511  85.9835379  29.9701173
 105.3207703  84.4918419  29.7529210 106.4779875  88.3057885  31.9018362
 106.6546503  89.2275849  31.7139346 107.2736708  87.9916304  32.3312742
 110.6190893  75.1666149  43.5002295 111.3600607  75.7673302  43.4206758
 110.8508816  74.4243787  42.9420338 112.8424069  88.2940257  43.3768026
 112.3987923  87.5076635  43.0588930 113.5041283  88.4819407  42.7111916
 107.6011190  89.8236058  37.9028704 108.1518616  89.6953122  37.1305698
 106.7622666  90.1230947  37.5523597 114.9405307  88.5743057  41.4049427
 114.9223783  89.3951938  40.9129696 115.8625227  88.4497132  41.6299568
 114.5648056  71.1947252  37.7766577 114.2212326  72.0848894  37.7005688
 114.9327019  71.0048910  36.9136162 102.6333907  83.5180783  30.5955179
 103.4709129  83.9277791  30.3788887 102.8112175  82.5780225  30.5655373
 114.5298339  81.1855863  26.2839012 114.0144963  81.9560468  26.5227399
 114.2575648  80.5120999  26.9072074 112.1145450  76.0305564  31.3424250
 111.2587046  75.6412414  31.1629889 112.5272402  76.1097525  30.4824036
 113.6444597  73.5651907  35.7415810 113.1409392  73.5282043  34.9283615
 113.9375204  74.4744650  35.8012467 109.8887483  73.6490637  34.7481992
 110.7540479  73.4533446  34.3887881 109.9564992  73.4200989  35.6751349
 119.5032613  83.9388218  28.2192186 118.7262056  83.5999377  27.7747348
 120.1824094  83.9440841  27.5447151 114.3184642  79.0582955  28.1098793
 114.0134778  79.3729105  28.9608936 115.2715084  79.1364375  28.1526126
 112.7631074  85.2173179  29.7591747 112.2352436  84.4825938  29.4464985
 112.2618577  85.9947855  29.5131716 117.7423920  83.4122199  34.8758794
 117.0847595  84.1021461  34.9638922 118.5464319  83.8018631  35.2192780
 107.4949802  75.8792845  32.1198359 108.0693554  75.6568026  31.3871552
 108.0820784  75.9481539  32.8726960 116.5529379  81.7666572  32.9262735
 117.0661261  82.3996564  33.4284445 117.2030603  81.1667767  32.5606095
 107.8219389  77.9097306  26.1394244 106.9856701  78.2471993  26.4603519
 107.6824159  77.7746286  25.2021381 109.7972469  72.7534094  30.8473428
 109.1436882  72.4383111  30.2230043 109.7552944  72.1309834  31.5733251
 110.9083674  83.0353389  22.7626720 110.0010736  82.8042642  22.9617869
 111.4054706  82.2391008  22.9500702 113.8151753  91.7450896  25.6823406
 113.1413452  92.0482593  26.2908364 114.2017575  92.5479977  25.3328863
 113.0310210  79.2416027  35.1721076 112.1132771  79.4630974  35.0142764
 113.4470353  79.3162338  34.3132783 113.8145258  80.6407443  30.3023756
 114.5617077  81.1528840  29.9930878 114.0836847  80.3191496  31.1628150
 112.0871908  83.1365984  27.2850710 111.1783127  82.8525017  27.3823180
 112.1166992  83.5565062  26.4254017 117.3191175  86.7472573  31.0541878
 116.8653502  85.9063483  31.1107068 116.6885142  87.3833972  31.3916658
 116.2624095  77.6764559  32.2842545 115.5246852  77.1641946  32.6152788
 116.5150868  77.2364941  31.4725822 115.7624114  88.5849070  31.9891696
 116.0547089  89.1454127  31.2704062 116.2722735  88.8777631  32.7444855
 116.3635722  70.4540811  32.8784315 116.6694599  69.5938175  32.5910230
 117.0888327  71.0458432  32.6783309 102.6560078  80.8571498  31.2665913
 102.4584478  80.2640859  30.5416979 102.1006742  80.5523708  31.9841851
 110.6356802  80.7494604  33.3860506 110.6905412  79.7968441  33.3102982
 109.8248004  80.9054044  33.8701804 111.7847996  84.6774728  24.6238789
 111.3467425  83.9610586  24.1644426 112.5258436  84.9050842  24.0623880
 108.5749162  79.3671664  31.1450885 107.7617027  79.6665835  31.5516077
 109.0708156  78.9727353  31.8625367 110.7257740  89.3629421  33.0785149
 110.6833918  89.5890267  32.1493681 111.6420438  89.1292796  33.2270950
 119.9021110  82.9531925  30.6815107 119.7639009  83.1433521  29.7536297
 119.5457329  83.7151307  31.1383159 108.0663236  76.9390020  36.7612120
 108.7062616  76.7978779  36.0635083 107.2340767  76.6524533  36.3850722
 119.9290490  85.0208452  35.6926379 120.3626997  84.9283741  36.5409433
 120.6422071  84.9965952  35.0546395 108.8423540  86.2392450  32.8747112
 109.6364139  85.7442770  32.6729687 108.1315233  85.7110313  32.5114818
 113.6618385  88.6210546  37.2259480 113.7155407  89.1901482  37.9937195
 112.7933166  88.7912431  36.8613517 105.1506304  80.3835532  28.9506865
 104.2203892  80.3219987  29.1676827 105.2463776  79.8611485  28.1543506
 105.0691853  76.9090345  31.5385106 105.3298670  77.8235678  31.4294267
 105.8909025  76.4414787  31.6881719 106.5416778  78.3228102  38.7083931
 107.2139832  78.1145464  38.0596580 105.7146565  78.1250188  38.2689163
 120.7906040  85.0632152  38.2259264 120.9841930  85.9677963  38.4718539
 120.6906658  84.6039571  39.0597849 112.4442350  74.9490043  40.7249592
 111.7970265  75.6479992  40.6314068 113.2143366  75.3826187  41.0925840
 115.8521148  85.2138895  43.8000145 115.7006655  84.9849447  42.8830229
 115.8425828  86.1709496  43.8131490 111.4194816  86.8121472  36.5544949
 111.2805902  86.4440257  37.4270887 110.6309413  87.3269112  36.3828907
 112.0142968  91.9130569  27.8970486 112.1894724  91.4418612  28.7116108
 111.3275756  92.5396335  28.1251746 112.9700032  86.1903075  33.9433787
 112.6349864  86.1503845  34.8391437 112.4703977  85.5247791  33.4704197
 115.9059223  83.5359109  24.2170847 115.2888394  82.8105937  24.1203899
 115.4375712  84.2968469  23.8737921 117.5613355  88.2458018  41.8776627
 117.5025901  87.5617238  41.2107210 117.9632873  88.9877008  41.4257253
 106.5804054  95.0619931  34.6710346 106.8200652  95.6938456  35.3489364
 105.7373250  94.7107971  34.9575705 107.6957769  77.7544533  23.3392151
 106.8187235  77.6333334  22.9754397 108.1715522  76.9630612  23.0871039
 117.5630762  86.2097601  40.1090607 116.6757541  85.8723523  40.2317005
 118.1329313  85.4780633  40.3459372  99.2159909  82.5421693  33.4333658
  99.9030949  82.2283423  32.8454673  99.0608038  83.4463058  33.1600909
 104.0194631  77.4311890  37.8618682 103.9352820  76.8237559  37.1269092
 103.1977338  77.9220908  37.8628178 111.0931916  90.8699054  37.0751850
 111.0202087  91.6754025  37.5871154 110.6509309  91.0691020  36.2499871
 110.8821695  90.1070824  30.5854671 110.0989217  90.6492504  30.6792896
 111.5814440  90.6244803  30.9848912 114.1918345  75.9165453  33.2288877
 114.6887045  75.1635416  32.9089947 113.4205327  75.9529770  32.6632086
 122.0448103  81.6205819  34.8707168 122.0337979  82.5030534  34.5001101
 121.1765482  81.2677370  34.6761705 113.5530599  90.7685888  39.2310008
 114.2658571  91.4033353  39.1585910 113.0620628  90.8649754  38.4150010
 115.2748126  84.6737141  30.8027300 114.3404405  84.7938603  30.6332004
 115.4524794  83.7709607  30.5387310 110.7753314  78.0582836  32.9560561
 110.4051102  77.5053877  33.6441467 111.2712406  77.4540970  32.4035561
 118.6620677  80.5154460  31.3377334 119.1281129  81.3482451  31.2637637
 119.1128178  80.0499441  32.0422593 116.7296908  86.8598281  28.3363486
 117.0056752  86.7454876  29.2457360 115.8601407  86.4615766  28.2975659
 116.6337340  72.8835047  35.3768236 115.7200420  73.1139274  35.5450442
 117.0630441  72.9673491  36.2282268 116.4043799  81.0724939  37.8768130
 115.7515249  81.3200846  37.2220582 116.7824178  80.2589077  37.5430607
 113.3650972  91.1084632  31.9796300 113.5473367  90.2906288  32.4424052
 114.1883958  91.3252324  31.5421190 113.6993138  90.0352817  29.2411348
 114.2280904  89.5245272  28.6281510 113.9621357  89.7195347  30.1056881
 104.2010231  88.0516686  36.9846682 104.7863667  87.3060374  37.1174586
 104.0035069  88.3620643  37.8683346 107.0548886  91.0867934  32.0009124
 106.3859261  91.5714061  31.5173164 106.9161756  91.3337154  32.9152503
  98.7927885  80.6222287  35.7051125  98.8311985  80.0885877  36.4988243
  98.2868178  80.0957492  35.0862102 111.1954154  93.1211677  38.5991783
 111.7472462  93.2843299  39.3640868 111.5360348  93.7116115  37.9271808
 106.1718648  75.4686827  39.2013667 106.2359974  76.3301658  38.7891065
 106.1085768  74.8560829  38.4686026 105.6470920  77.5409960  42.8486702
 106.2742959  77.1587037  43.4624226 104.7898839  77.3224162  43.2142394
 116.0465029  87.9472935  44.4540437 116.5904933  88.5602893  43.9595392
 115.4651874  88.5052513  44.9707450 102.4236463  79.3486389  28.7805056
 102.7189904  78.4397067  28.7272110 101.5224499  79.3274128  28.4586059
 114.3322542  91.0693653  35.5855465 114.2073681  90.2683393  35.0766410
 114.9901633  91.5639846  35.0969435 105.9530710  77.4242385  34.7632605
 105.2317296  78.0378353  34.6240078 106.7423966  77.9600150  34.6849251
 116.3957450  88.8702673  37.2135015 115.4487786  88.7508024  37.1413342
 116.7440223  87.9825171  37.2961276 108.7557023  74.7596812  41.0373257
 109.2791425  75.0059108  41.7999566 108.5369357  75.5916847  40.6176394
 104.1524305  77.0300486  28.9044382 103.8237011  76.1497865  28.7219488
 104.5063675  76.9748155  29.7920771 113.4003883  88.6655389  33.4139367
 113.2528846  87.7372096  33.5946937 114.2257377  88.6875480  32.9296442
 107.2666128  77.3173456  29.2719859 107.6062200  77.8459377  28.5498468
 107.7138248  77.6553862  30.0478426 117.0038005  89.4883948  34.5004240
 117.9284553  89.2826809  34.3628691 116.8353309  89.2400349  35.4093581
 109.9609568  75.7010507  38.7222927 109.6206389  74.9018320  39.1243607
 109.2548575  76.0012218  38.1499761 110.6126040  72.7859819  37.1750250
 111.4352110  72.3120297  37.0529141 110.8564104  73.5650303  37.6748937
 109.2534275  75.8148078  27.4713152 109.9742637  76.1929331  26.9676869
 108.6299579  76.5336955  27.5748130 113.3965398  76.5193227  28.4071484
 113.6129012  77.4017865  28.1060313 112.9159465  76.1279440  27.6777126
 108.1364619  79.4778940  34.9842229 107.9909200  79.7919243  35.8766510
 107.6589823  80.0963840  34.4313128 109.9961002  76.4681488  35.0323119
 109.9822571  75.5722581  34.6955416 110.7133430  76.4752152  35.6661405
 111.8487133  76.9018828  37.0776246 111.5904910  77.8235899  37.0760576
 111.3172173  76.5049263  37.7676710 116.7933321  90.0069615  29.8566331
 116.9670199  89.4416038  29.1040184 117.2862213  90.8070510  29.6745821
 109.3997898  75.3495868  30.3010689 109.5213809  74.4212514  30.5001576
 109.1099940  75.3634554  29.3889004 112.2689088  73.0350779  33.4377409
 112.2910785  73.0990112  32.4829388 112.6857147  72.1955287  33.6317915
 122.6472713  82.7706038  31.4756631 123.0903859  82.0213363  31.0775754
 121.7699223  82.7616175  31.0930363 117.7808494  89.3236380  26.9563230
 118.4759399  89.9443072  27.1750544 118.1231644  88.4731731  27.2315608
 119.6799917  86.7736085  28.4850560 120.2051241  87.1123358  27.7599880
 119.5922270  85.8383101  28.3013695 111.3419966  90.6870159  40.6140437
 111.6507092  90.4419306  41.4863137 112.1395448  90.8916797  40.1259307
 111.3640578  92.8408068  32.8445814 110.9245568  92.3484447  33.5378670
 112.1148695  92.2981036  32.6037889 103.8432917  89.0319609  32.8470442
 104.6690937  88.7323381  32.4669085 103.4926969  88.2627232  33.2960230
 108.8114450  88.3846078  34.9168115 108.1894459  87.7216783  34.6170343
 109.4819317  88.4107209  34.2341763 102.0441522  86.9505936  33.8059375
 101.2073430  86.5228110  33.6243376 102.0165167  87.1438379  34.7430166
 108.8838977  76.8627866  44.5100621 108.9327133  77.7389988  44.1278391
 109.4261492  76.3205259  43.9372264 119.3693823  87.4068989  43.7901758
 118.5789367  87.3893128  43.2506258 119.1327178  87.9457283  44.5450795
 119.4891698  84.2561455  41.1034487 119.5389703  84.0911463  42.0450010
 119.3805622  83.3888714  40.7132368 108.3727957  86.9350001  28.3926576
 108.5216077  87.6185465  27.7393249 109.1794400  86.9155091  28.9076032
 116.7795461  80.2392383  42.4193794 117.6805323  80.0998848  42.1277791
 116.8543435  80.4046838  43.3591971 120.9909895  86.6758397  41.3476508
 120.6994703  87.0388377  42.1839969 120.3782026  85.9625405  41.1689840
 122.1905577  84.2411277  33.8679079 123.0252469  84.6801081  34.0316639
 122.3264706  83.7649930  33.0487324 119.2397083  81.7991011  39.8156566
 119.7151205  81.9918658  39.0075418 118.3162649  81.8550197  39.5699950
 106.1280590  82.9615179  29.3987645 105.8826632  82.0577509  29.5967855
 106.2976504  82.9632329  28.4567123 113.8177300  73.8338855  38.7812400
 114.3359244  74.5699882  38.4558889 113.4632432  74.1402848  39.6159159
 105.3976237  78.6943536  26.8973806 104.7045482  78.7687891  26.2413842
 105.1527989  77.9303880  27.4195323 114.0689894  70.2539137  34.3013297
 114.3491648  69.5862327  34.9273723 114.8540501  70.4468233  33.7887961
 111.8723362  89.4298131  25.8638323 111.2997329  90.0488318  25.4108795
 112.4456156  89.9797493  26.3978245 117.9398752  78.6756771  38.0484872
 118.8916175  78.7754869  38.0697096 117.7702203  77.8835040  38.5582956
 115.9613132  75.7612355  38.2344273 115.3663064  76.0417367  37.5390762
 115.6762828  76.2506256  39.0061014 115.0920622  89.7135281  26.9946905
 116.0251295  89.6480843  27.1979781 115.0043835  90.5491548  26.5361438
 117.7208639  89.0301152  23.9550853 117.6422270  88.6961015  24.8486611
 118.5418306  89.5222920  23.9542325 120.4186830  81.8962891  37.1627172
 120.3863150  80.9578892  37.3486855 121.0287454  81.9746928  36.4292997
 112.2570161  80.7658944  23.2054376 113.2029266  80.6365152  23.2742794
 111.8784406  80.0273606  23.6823804 120.5681318  78.6873935  37.2085455
 120.0520367  77.9032391  37.0215384 121.4521267  78.3592651  37.3731974
 118.2292045  72.4314950  33.1681268 118.0316867  72.1230038  34.0524599
 118.8391751  73.1576589  33.2979197 126.2363380  82.9578898  36.3033208
 126.9666768  82.6964186  36.8640912 125.6270325  82.2207620  36.3435276
 124.3178677  81.0986761  36.9007660 123.5911841  80.9642725  36.2924151
 123.9025964  81.4063589  37.7064378 110.4413078  78.6908920  23.1409261
 109.5344533  78.3942033  23.2171975 110.7189059  78.3938739  22.2743547
 101.3591018  80.0115284  33.5908307 101.0393803  79.1580592  33.2982681
 100.8124447  80.2263862  34.3466275 112.0575144  73.2345810  29.2953502
 111.2475872  72.8892895  29.6708748 112.7459561  72.9253354  29.8841114
 113.9865692  72.3123857  30.9177799 114.5396731  72.7319310  31.5767822
 114.2235778  71.3859605  30.9600755 109.2111863  75.5495856  23.2821240
 110.0731027  75.8750754  23.5417057 109.3962207  74.7627352  22.7694306
 101.2279278  83.6318195  35.5601429 100.5342750  83.2172148  35.0471383
 101.9752269  83.6738732  34.9634848 117.3644499  74.4224382  30.4256463
 116.7843168  75.0809186  30.0434516 117.0980432  73.6001727  30.0143881
 115.8148065  73.8229440  32.6277783 116.3147844  73.9345974  31.8192102
 116.4583673  73.5190493  33.2678592 103.1416021  83.5636449  33.4367444
 103.1186709  83.6624136  32.4849327 103.4516657  84.4101600  33.7584610
 116.1469377  76.5824473  29.4812811 115.2595232  76.8674123  29.2633006
 116.5623366  76.4218236  28.6340088 119.4983913  76.6070994  33.1967151
 120.2744303  77.0967446  33.4691767 118.7732047  77.0329048  33.6539020
 121.9356472  77.3198613  34.2541091 122.5300963  77.0794349  33.5434399
 122.0083056  76.6005743  34.8814628 104.1553628  91.1632224  34.5684256
 104.0208096  90.4032625  34.0022254 103.7385690  91.8873124  34.1013045
 115.2912591  86.3469147  23.5760831 115.9948441  86.5519150  24.1918487
 114.5675239  86.9145909  23.8409915 116.1210401  82.0979008  29.6963102
 116.0645602  82.5547560  28.8570734 116.6738743  81.3369693  29.5185944
 119.9315207  77.8868740  30.5213221 119.6752141  77.4865376  31.3521429
 119.3068075  78.6012534  30.3963360 124.2427545  80.6264814  33.0284512
 123.6827103  80.6958003  33.8016075 123.6371048  80.4505798  32.3084009
 107.3122753  92.0601541  34.7802699 107.1955138  93.0046973  34.6781389
 106.4915200  91.7575102  35.1688498 117.1999288  86.7851676  25.6259291
 118.0344892  86.3532875  25.4436766 117.0383631  86.6133690  26.5536186
 116.8545180  83.2883790  26.9915631 116.7993984  83.1228061  26.0504075
 116.2291235  83.9959823  27.1477820 101.6437695  78.5251854  40.8177053
 102.2896559  78.0150808  41.3064278 101.4354846  79.2620536  41.3920478
 110.1641306  72.7891899  26.5700949 110.1519975  73.7333739  26.7269220
 111.0564728  72.6062044  26.2760410 108.3377268  92.7129803  37.9958627
 109.2404514  92.7453413  38.3125122 108.1114638  91.7830254  38.0104963
 110.0930870  91.4660789  34.6568706 109.1426501  91.4662651  34.5433078
 110.3963356  90.7193524  34.1404740 113.9793425  69.3834675  30.8246886
 113.2125821  68.8293162  30.9703568 114.3904130  69.4556544  31.6861038
 105.9835186  75.6719471  44.9152067 106.8466648  75.3156276  45.1255392
 105.4100597  75.3333366  45.6027471 125.8283563  97.3021328  35.7214468
 126.4661973  97.1828075  35.0177808 125.7104406  98.2502171  35.7802420
 122.6373269  97.2548756  35.6575993 122.2991781  97.1389820  34.7696528
 123.5063038  96.8539921  35.6376999 118.4960085  99.1084232  31.6472884
 117.9324950  99.0174169  30.8789172 118.3812480  98.2884137  32.1275376
 123.1193052  98.4083607  41.6162198 123.1081693  98.0136406  40.7442702
 123.2813692  97.6749680  42.2095970 116.0424517 100.6035424  34.4857104
 116.8345809 100.2626248  34.0703404 116.2821167 100.7130399  35.4059258
 124.0759644 102.7755200  26.9587349 123.4247624 103.3609280  26.5721363
 124.8704007 103.3061395  27.0182386 118.0015271  99.8644337  27.3574483
 118.7746147  99.3173324  27.2187359 118.3540670 100.7288586  27.5688944
 119.8400314 101.1920719  40.5641382 119.5490180 102.0966350  40.4488049
 120.4757298 101.2337247  41.2785452 120.7656520  98.5697568  37.1542742
 121.3620093  98.3453590  36.4399705 120.8231492  97.8282313  37.7568190
 120.3381549  96.0237003  24.9892933 120.5907069  95.5018524  24.2276396
 119.4006108  95.8603148  25.0919617 125.3824832  95.0272781  32.7967676
 126.1687921  94.6092205  32.4458093 125.6463536  95.9318874  32.9649325
 125.5534909 100.4645632  27.4956333 124.9180742 100.5380258  28.2077238
 125.2232315 101.0539231  26.8175412 130.7833259  94.9648015  33.7000655
 131.5158431  94.3947231  33.9338484 130.0272614  94.5769615  34.1407160
 120.0577838  97.9265109  27.1917308 119.9414096  97.2510012  27.8598392
 120.1680097  97.4397483  26.3749461 122.4009378  97.3875256  30.8963997
 122.0367586  96.8605877  31.6076919 123.2576494  96.9973725  30.7230483
 128.3058679  88.6769589  38.1595263 127.9742004  89.5465000  37.9356478
 127.7104292  88.3605873  38.8389294 122.0414865  92.4165156  25.8925346
 122.2089268  93.2845392  26.2595817 121.8512034  92.5792437  24.9686635
 124.7990199 100.8782135  37.5591176 124.4990922 101.7807173  37.4506983
 124.4541258 100.6114318  38.4112329 118.2502680  97.3295932  33.5927880
 117.3253177  97.1972146  33.8005572 118.4987093  98.1090151  34.0897823
 128.1987342  93.3964675  35.2388613 127.2904220  93.3280083  34.9447374
 128.1474938  93.8736620  36.0670439 122.0204086  94.8722813  26.8772013
 121.9003712  95.3179864  27.7157493 121.3256675  95.2208131  26.3185551
 115.6111491  96.9729205  34.4271670 115.7403872  97.2263684  35.3411081
 114.9308942  97.5656913  34.1076325 119.7810978 107.6426455  30.5262144
 119.7035008 108.5934280  30.6050624 119.1772622 107.2972328  31.1837070
 122.2728208  94.8154320  43.1823511 121.4961542  95.3748241  43.1726375
 122.9118771  95.3011103  43.7038381 130.0648989  91.5981113  37.0166487
 129.4223369  91.8913646  36.3706282 129.5603917  91.4834034  37.8219684
 127.7189152  95.3444286  27.7052347 128.6307009  95.5771673  27.5300044
 127.2098800  95.9281331  27.1427425 120.5274580  97.6239774  42.7441478
 121.2689265  98.1624818  42.4676301 119.8211566  98.2506063  42.9013029
 126.0029920  99.7668914  41.3413639 126.4113276  99.3251325  40.5968272
 125.2807182  99.1921542  41.5947832 122.3560990  94.7041521  38.7147196
 123.2022185  95.1280935  38.8581845 122.2959628  94.0475145  39.4085759
 126.3258735 100.3270105  35.0965928 125.6967597 100.4915819  34.3941996
 125.9384397 100.7411714  35.8676892 130.2047967 101.2624543  32.4510292
 129.5199005 101.6423444  31.9007325 130.2891816 101.8719869  33.1842240
 125.5060436  92.3645889  40.3728370 125.2621367  93.1187950  39.8362645
 125.7820366  92.7431237  41.2075617 127.4598898  98.9084502  39.0505635
 127.6715794  99.5516262  38.3740016 127.4128647  98.0746818  38.5827565
 125.0625127  91.5202322  35.9542207 124.2009606  91.8183576  36.2458945
 125.0887562  91.7372721  35.0223240 121.8786697 100.0644513  32.3616013
 122.3425042 100.3432216  31.5720636 121.6143495  99.1627958  32.1789104
 118.7710778  99.6115995  35.2995776 119.3412135 100.0403263  34.6613261
 119.3618890  99.3298579  35.9979962 120.8155583  96.1867665  29.1705578
 121.5179626  96.6388709  29.6379505 120.4836211  95.5451484  29.7985471
 119.2635944  94.7779422  43.5456788 118.6334605  95.4595703  43.7792184
 119.1572032  94.6662504  42.6009926 114.5580917  94.4451218  34.4722712
 113.7679971  94.7008747  33.9962822 115.0492164  95.2599556  34.5774752
 128.5744726 101.7856457  37.2227993 129.3962170 101.3836644  36.9410674
 128.5707129 101.6824691  38.1744108 116.5095662  94.8095797  31.4306189
 115.7126825  94.9214492  31.9489684 116.2821254  95.1482449  30.5647079
 122.3401330 101.3340500  39.3788703 122.4045762 101.7960908  40.2146875
 121.6312254 100.7037865  39.5071013 112.8418620  94.6981708  36.9037703
 113.0926658  95.5828718  37.1695279 113.3778168  94.5186310  36.1312794
 136.6650719  98.1295206  33.5712964 135.9114428  97.5602604  33.4156969
 136.7998260  98.0957870  34.5183599 122.0549347 103.0008608  29.2467683
 121.9195022 103.8460144  29.6752531 122.5959160 103.2027886  28.4833617
 118.5416687  89.0800188  45.9082039 118.1483633  88.5266386  46.5829683
 119.3582827  89.3910766  46.2988556 115.5078745 100.5184046  29.8195609
 116.0203265 101.3127296  29.9701173 116.1601458  99.8210336  29.7529210
 117.3173629 103.6349802  31.9018362 117.4940258 104.5567767  31.7139346
 118.1130463 103.3208222  32.3312742 121.4584648  90.4958067  43.5002295
 122.1994361  91.0965220  43.4206758 121.6902571  89.7535705  42.9420338
 116.6025986  95.6814434  41.7780525 116.4879501  94.7799691  42.0787624
 115.7470504  95.9278131  41.4265341 123.6817824 103.6232174  43.3768026
 123.2381678 102.8368553  43.0588930 124.3435037 103.8111325  42.7111916
 118.4404945 105.1527976  37.9028704 118.9912370 105.0245039  37.1305698
 117.6016421 105.4522865  37.5523597 125.7799062 103.9034974  41.4049427
 125.7617537 104.7243855  40.9129696 126.7018982 103.7789050  41.6299568
 122.2372116 101.4179104  42.2472935 122.7700453 100.6567392  42.0172243
 121.7086197 101.1252756  42.9897090 125.4041811  86.5239170  37.7766577
 125.0606080  87.4140812  37.7005688 125.7720773  86.3340828  36.9136162
 113.4727661  98.8472700  30.5955179 114.3102883  99.2569709  30.3788887
 113.6505929  97.9072142  30.5655373 125.3692094  96.5147781  26.2839012
 124.8538717  97.2852386  26.5227399 125.0969402  95.8412917  26.9072074
 122.9539205  91.3597482  31.3424250 122.0980801  90.9704332  31.1629889
 123.3666156  91.4389443  30.4824036 124.4838351  88.8943825  35.7415810
 123.9803147  88.8573960  34.9283615 124.7768958  89.8036568  35.8012467
 120.7281237  88.9782555  34.7481992 121.5934234  88.7825363  34.3887881
 120.7958746  88.7492907  35.6751349 130.3426368  99.2680136  28.2192186
 129.5655811  98.9291295  27.7747348 131.0217849  99.2732759  27.5447151
 125.1578397  94.3874873  28.1098793 124.8528532  94.7021022  28.9608936
 126.1108839  94.4656293  28.1526126 123.6024829 100.5465096  29.7591747
 123.0746190  99.8117856  29.4464985 123.1012331 101.3239773  29.5131716
 128.5817675  98.7414117  34.8758794 127.9241349  99.4313378  34.9638922
 129.3858074  99.1310549  35.2192780 118.3343556  91.2084763  32.1198359
 118.9087308  90.9859944  31.3871552 118.9214539  91.2773457  32.8726960
 127.3923133  97.0958490  32.9262735 127.9055015  97.7288481  33.4284445
 128.0424357  96.4959685  32.5606095 118.6613143  93.2389224  26.1394244
 117.8250456  93.5763910  26.4603519 118.5217913  93.1038203  25.2021381
 120.6366224  88.0826012  30.8473428 119.9830636  87.7675029  30.2230043
 120.5946698  87.4601752  31.5733251 121.7477429  98.3645307  22.7626720
 120.8404491  98.1334560  22.9617869 122.2448461  97.5682926  22.9500702
 124.6545508 107.0742814  25.6823406 123.9807206 107.3774511  26.2908364
 125.0411330 107.8771894  25.3328863 123.8703964  94.5707945  35.1721076
 122.9526526  94.7922892  35.0142764 124.2864108  94.6454256  34.3132783
 124.6539012  95.9699361  30.3023756 125.4010831  96.4820758  29.9930878
 124.9230602  95.6483414  31.1628150 122.9265662  98.4657902  27.2850710
 122.0176882  98.1816934  27.3823180 122.9560746  98.8856980  26.4254017
 128.1584930 102.0764491  31.0541878 127.7047257 101.2355401  31.1107068
 127.5278896 102.7125889  31.3916658 127.1017849  93.0056477  32.2842545
 126.3640606  92.4933863  32.6152788 127.3544623  92.5656859  31.4725822
 126.6017869 103.9140988  31.9891696 126.8940843 104.4746045  31.2704062
 127.1116489 104.2069549  32.7444855 127.2029477  85.7832729  32.8784315
 127.5088353  84.9230092  32.5910230 127.9282081  86.3750349  32.6783309
 113.4953833  96.1863416  31.2665913 113.2978232  95.5932776  30.5416979
 112.9400497  95.8815626  31.9841851 121.4750556  96.0786522  33.3860506
 121.5299166  95.1260359  33.3102982 120.6641758  96.2345961  33.8701804
 122.6241750 100.0066645  24.6238789 122.1861180  99.2902504  24.1644426
 123.3652191 100.2342760  24.0623880 119.4142916  94.6963582  31.1450885
 118.6010782  94.9957752  31.5516077 119.9101910  94.3019271  31.8625367
 121.5651494 104.6921339  33.0785149 121.5227673 104.9182185  32.1493681
 122.4814193 104.4584713  33.2270950 125.0117128  95.1605406  39.9765778
 125.3666516  95.3876879  40.8360244 125.6589259  95.4923783  39.3543034
 130.7414865  98.2823842  30.6815107 130.6032763  98.4725438  29.7536297
 130.3851084  99.0443225  31.1383159 118.9056991  92.2681937  36.7612120
 119.5456370  92.1270696  36.0635083 118.0734522  91.9816451  36.3850722
 130.7684244 100.3500369  35.6926379 131.2020751 100.2575658  36.5409433
 131.4815825 100.3257870  35.0546395 119.6817295 101.5684368  32.8747112
 120.4757893 101.0734688  32.6729687 118.9708987 101.0402231  32.5114818
 124.5012139 103.9502463  37.2259480 124.5549162 104.5193400  37.9937195
 123.6326921 104.1204348  36.8613517 115.9900058  95.7127450  28.9506865
 115.0597646  95.6511905  29.1676827 116.0857530  95.1903402  28.1543506
 115.9085607  92.2382262  31.5385106 116.1692425  93.1527596  31.4294267
 116.7302780  91.7706705  31.6881719 117.3810533  93.6520020  38.7083931
 118.0533586  93.4437382  38.0596580 116.5540319  93.4542106  38.2689163
 131.6299794 100.3924070  38.2259264 131.8235684 101.2969880  38.4718539
 131.5300412  99.9331489  39.0597849 123.2836105  90.2781960  40.7249592
 122.6364020  90.9771910  40.6314068 124.0537120  90.7118104  41.0925840
 126.6914903 100.5430813  43.8000145 126.5400409 100.3141364  42.8830229
 126.6819582 101.5001414  43.8131490 123.4600239  98.1162725  38.7846411
 124.3892299  98.2673885  38.6115379 123.0391269  98.2046746  37.9295058
 122.2588571 102.1413390  36.5544949 122.1199657 101.7732174  37.4270887
 121.4703167 102.6561029  36.3828907 122.8536723 107.2422486  27.8970486
 123.0288479 106.7710529  28.7116108 122.1669511 107.8688252  28.1251746
 123.8093786 101.5194992  33.9433787 123.4743619 101.4795762  34.8391437
 123.3097732 100.8539708  33.4704197 117.7838030  96.9262623  39.4686368
 117.6457828  96.1942861  40.0697907 118.6942953  96.8371523  39.1870556
 126.7452978  98.8651027  24.2170847 126.1282148  98.1397855  24.1203899
 126.2769466  99.6260387  23.8737921 120.4120331  96.6382582  38.9570048
 121.1219949  95.9975774  38.9156666 120.3689639  96.8895477  39.8796228
 128.4007109 103.5749935  41.8776627 128.3419655 102.8909155  41.2107210
 128.8026628 104.3168925  41.4257253 119.1249265  93.6247800  40.7765687
 118.5886622  93.1738538  41.4287283 118.5365973  93.7593709  40.0336151
 117.4197808 110.3911849  34.6710346 117.6594406 111.0230373  35.3489364
 116.5767005 110.0399889  34.9575705 118.5351524  93.0836451  23.3392151
 117.6580990  92.9625252  22.9754397 119.0109277  92.2922529  23.0871039
 128.4024517 101.5389519  40.1090607 127.5151295 101.2015441  40.2317005
 128.9723068 100.8072550  40.3459372 110.0553664  97.8713611  33.4333658
 110.7424704  97.5575341  32.8454673 109.9001792  98.7754976  33.1600909
 114.8588386  92.7603807  37.8618682 114.7746575  92.1529477  37.1269092
 114.0371092  93.2512826  37.8628178 121.9325670 106.1990971  37.0751850
 121.8595841 107.0045943  37.5871154 121.4903063 106.3982937  36.2499871
 121.7215450 105.4362741  30.5854671 120.9382972 105.9784422  30.6792896
 122.4208195 105.9536721  30.9848912 125.0312100  91.2457371  33.2288877
 125.5280799  90.4927333  32.9089947 124.2599081  91.2821688  32.6632086
 132.8841857  96.9497736  34.8707168 132.8731733  97.8322452  34.5001101
 132.0159237  96.5969287  34.6761705 124.3924354 106.0977805  39.2310008
 125.1052326 106.7325270  39.1585910 123.9014382 106.1941671  38.4150010
 126.1141880 100.0029058  30.8027300 125.1798159 100.1230521  30.6332004
 126.2918549  99.1001525  30.5387310 121.6147068  93.3874754  32.9560561
 121.2444856  92.8345794  33.6441467 122.1106161  92.7832887  32.4035561
 129.5014432  95.8446377  31.3377334 129.9674884  96.6774369  31.2637637
 129.9521932  95.3791359  32.0422593 119.4436267 103.8472249  40.0515579
 120.1445727 104.4808732  40.2044973 118.9731382 104.1886981  39.2911218
 127.5690663 102.1890199  28.3363486 127.8450507 102.0746793  29.2457360
 126.6995162 101.7907684  28.2975659 127.4731095  88.2126964  35.3768236
 126.5594174  88.4431191  35.5450442 127.9024196  88.2965409  36.2282268
 127.2437553  96.4016856  37.8768130 126.5909003  96.6492764  37.2220582
 127.6217933  95.5880995  37.5430607 124.2044727 106.4376550  31.9796300
 124.3867121 105.6198206  32.4424052 125.0277713 106.6544242  31.5421190
 124.5386892 105.3644735  29.2411348 125.0674659 104.8537189  28.6281510
 124.8015112 105.0487265  30.1056881 123.2925126  97.1436667  44.3634167
 122.6165763  97.0430797  45.0336542 124.1152760  96.9875881  44.8270164
 115.0403985 103.3808604  36.9846682 115.6257422 102.6352292  37.1174586
 114.8428824 103.6912561  37.8683346 117.8942640 106.4159851  32.0009124
 117.2253016 106.9005979  31.5173164 117.7555510 106.6629072  32.9152503
 109.6321640  95.9514204  35.7051125 109.6705739  95.4177795  36.4988243
 109.1261933  95.4249410  35.0862102 122.0347909 108.4503595  38.5991783
 122.5866217 108.6135216  39.3640868 122.3754102 109.0408033  37.9271808
 117.0112402  90.7978745  39.2013667 117.0753729  91.6593576  38.7891065
 116.9479522  90.1852746  38.4686026 116.4864675  92.8701877  42.8486702
 117.1136713  92.4878955  43.4624226 115.6292594  92.6516079  43.2142394
 126.8858783 103.2764852  44.4540437 127.4298687 103.8894811  43.9595392
 126.3045628 103.8344431  44.9707450 113.2630217  94.6778306  28.7805056
 113.5583659  93.7688985  28.7272110 112.3618253  94.6566046  28.4586059
 125.1716296 106.3985570  35.5855465 125.0467436 105.5975310  35.0766410
 125.8295387 106.8931764  35.0969435 116.7924464  92.7534303  34.7632605
 116.0711050  93.3670271  34.6240078 117.5817720  93.2892068  34.6849251
 127.2351205 104.1994591  37.2135015 126.2881540 104.0799942  37.1413342
 127.5833978 103.3117089  37.2961276 119.5950778  90.0888729  41.0373257
 120.1185180  90.3351026  41.7999566 119.3763111  90.9208764  40.6176394
 114.9918059  92.3592404  28.9044382 114.6630765  91.4789783  28.7219488
 115.3457430  92.3040073  29.7920771 124.2397638 103.9947307  33.4139367
 124.0922600 103.0664014  33.5946937 125.0651131 104.0167397  32.9296442
 118.1059882  92.6465374  29.2719859 118.4455955  93.1751295  28.5498468
 118.5532003  92.9845780  30.0478426 127.8431760 104.8175865  34.5004240
 128.7678307 104.6118727  34.3628691 127.6747063 104.5692267  35.4093581
 120.8003323  91.0302425  38.7222927 120.4600143  90.2310238  39.1243607
 120.0942329  91.3304135  38.1499761 121.4519795  88.1151737  37.1750250
 122.2745864  87.6412215  37.0529141 121.6957858  88.8942221  37.6748937
 120.0928029  91.1439995  27.4713152 120.8136392  91.5221248  26.9676869
 119.4693333  91.8628872  27.5748130 124.2359152  91.8485144  28.4071484
 124.4522767  92.7309782  28.1060313 123.7553219  91.4571358  27.6777126
 118.9758374  94.8070858  34.9842229 118.8302954  95.1211161  35.8766510
 118.4983577  95.4255758  34.4313128 120.8354756  91.7973406  35.0323119
 120.8216325  90.9014499  34.6955416 121.5527185  91.8044069  35.6661405
 122.6880887  92.2310746  37.0776246 122.4298665  93.1527816  37.0760576
 122.1565928  91.8341180  37.7676710 127.6327076 105.3361533  29.8566331
 127.8063953 104.7707955  29.1040184 128.1255967 106.1362428  29.6745821
 113.4504036  97.3476202  37.9229890 112.9057504  98.1236010  38.0550164
 114.3283386  97.6947006  37.7649012 120.2391652  90.6787786  30.3010689
 120.3607564  89.7504432  30.5001576 119.9493695  90.6926472  29.3889004
 123.1082843  88.3642696  33.4377409 123.1304540  88.4282029  32.4829388
 123.5250902  87.5247205  33.6317915 133.4866467  98.0997956  31.4756631
 133.9297613  97.3505281  31.0775754 132.6092977  98.0908092  31.0930363
 128.6202248 104.6528297  26.9563230 129.3153153 105.2734990  27.1750544
 128.9625399 103.8023649  27.2315608 114.2370058  96.4746098  40.8160047
 113.4951794  96.6228734  41.4024677 113.9162802  96.7354364  39.9526796
 130.5193672 102.1028003  28.4850560 131.0444996 102.4415276  27.7599880
 130.4316024 101.1675018  28.3013695 122.1813720 106.0162077  40.6140437
 122.4900847 105.7711223  41.4863137 122.9789202 106.2208715  40.1259307
 122.2034332 108.1699986  32.8445814 121.7639323 107.6776365  33.5378670
 122.9542449 107.6272954  32.6037889 114.6826671 104.3611527  32.8470442
 115.5084691 104.0615299  32.4669085 114.3320723 103.5919149  33.2960230
 119.6508204 103.7137995  34.9168115 119.0288214 103.0508700  34.6170343
 120.3213071 103.7399127  34.2341763 112.8835276 102.2797853  33.8059375
 112.0467185 101.8520028  33.6243376 112.8558922 102.4730297  34.7430166
 119.7232732  92.1919783  44.5100621 119.7720887  93.0681906  44.1278391
 120.2655246  91.6497176  43.9372264 130.2087578 102.7360907  43.7901758
 129.4183121 102.7185045  43.2506258 129.9720932 103.2749200  44.5450795
 130.3285453  99.5853373  41.1034487 130.3783458  99.4203380  42.0450010
 130.2199376  98.7180632  40.7132368 119.2121711 102.2641919  28.3926576
 119.3609832 102.9477383  27.7393249 120.0188155 102.2447009  28.9076032
 127.6189215  95.5684301  42.4193794 128.5199078  95.4290766  42.1277791
 127.6937190  95.7338756  43.3591971 121.9532020  92.9451156  41.2646980
 121.0835330  93.2384722  40.9929568 122.1891501  93.5291601  41.9854244
 131.8303649 102.0050314  41.3476508 131.5388458 102.3680295  42.1839969
 131.2175781 101.2917323  41.1689840 133.0299332  99.5703194  33.8679079
 133.8646223 100.0092998  34.0316639 133.1658461  99.0941847  33.0487324
 130.0790838  97.1282929  39.8156566 130.5544959  97.3210575  39.0075418
 129.1556403  97.1842115  39.5699950 116.9674344  98.2907096  29.3987645
 116.7220386  97.3869426  29.5967855 117.1370259  98.2924247  28.4567123
 124.6571054  89.1630773  38.7812400 125.1752998  89.8991800  38.4558889
 124.3026187  89.4694766  39.6159159 116.2369992  94.0235454  26.8973806
 115.5439237  94.0979809  26.2413842 115.9921744  93.2595797  27.4195323
 124.9083648  85.5831055  34.3013297 125.1885402  84.9154244  34.9273723
 125.6934255  85.7760151  33.7887961 122.7117117 104.7590049  25.8638323
 122.1391084 105.3780236  25.4108795 123.2849911 105.3089411  26.3978245
 128.7792507  94.0048689  38.0484872 129.7309930  94.1046787  38.0697096
 128.6095957  93.2126958  38.5582956 126.8006886  91.0904272  38.2344273
 126.2056818  91.3709285  37.5390762 126.5156583  91.5798173  39.0061014
 125.9314377 105.0427199  26.9946905 126.8645050 104.9772761  27.1979781
 125.8437589 105.8783466  26.5361438 131.2580585  97.2254809  37.1627172
 131.2256905  96.2870810  37.3486855 131.8681208  97.3038846  36.4292997
 123.0963915  96.0950862  23.2054376 124.0423020  95.9657070  23.2742794
 122.7178160  95.3565524  23.6823804 131.4075073  94.0165852  37.2085455
 130.8914122  93.2324309  37.0215384 132.2915022  93.6884569  37.3731974
 129.0685800  87.7606868  33.1681268 128.8710621  87.4521956  34.0524599
 129.6785505  88.4868507  33.2979197 137.0757134  98.2870816  36.3033208
 137.8060523  98.0256104  36.8640912 136.4664080  97.5499538  36.3435276
 135.1572431  96.4278678  36.9007660 134.4305595  96.2934643  36.2924151
 134.7419718  96.7355507  37.7064378 122.9802608 100.1468608  44.6655033
 123.9005617 100.3247207  44.8595079 122.9452191  99.2024653  44.5134732
 121.2806833  94.0200838  23.1409261 120.3738288  93.7233951  23.2171975
 121.5582814  93.7230656  22.2743547 112.1984773  95.3407202  33.5908307
 111.8787557  94.4872510  33.2982681 111.6518201  95.5555780  34.3466275
 115.9764680  98.0569643  37.3077814 116.1950690  98.9886750  37.3265848
 116.3890454  97.6977617  38.0932618 122.8968898  88.5637728  29.2953502
 122.0869627  88.2184813  29.6708748 123.5853315  88.2545272  29.8841114
 124.8259447  87.6415775  30.9177799 125.3790485  88.0611228  31.5767822
 125.0629533  86.7151523  30.9600755 120.8492546  93.6302848  46.6980563
 120.7489273  94.5797205  46.6292654 120.6314088  93.3021087  45.8256633
 120.0505617  90.8787773  23.2821240 120.9124781  91.2042672  23.5417057
 120.2355961  90.0919269  22.7694306 112.0673033  98.9610113  35.5601429
 111.3736504  98.5464066  35.0471383 112.8146024  99.0030650  34.9634848
 128.2038254  89.7516300  30.4256463 127.6236923  90.4101104  30.0434516
 127.9374186  88.9293644  30.0143881 126.6541820  89.1521358  32.6277783
 127.1541598  89.2637892  31.8192102 127.2977428  88.8482410  33.2678592
 120.7123816  97.0599987  45.5145624 120.2290898  97.8600347  45.7209513
 120.7984755  97.0707932  44.5613068 113.9809775  98.8928367  33.4367444
 113.9580464  98.9916054  32.4849327 114.2910412  99.7393518  33.7584610
 116.6397153 100.9504522  37.5514058 117.5940407 100.9188464  37.4843990
 116.4409677 100.4895146  38.3664284 117.2296535  99.5205638  40.1184856
 118.0489424 100.0149717  40.1419693 117.5033343  98.6037606  40.0902423
 126.9863132  91.9116390  29.4812811 126.0988987  92.1966041  29.2633006
 127.4017121  91.7510154  28.6340088 130.3377668  91.9362911  33.1967151
 131.1138058  92.4259364  33.4691767 129.6125802  92.3620965  33.6539020
 132.7750226  92.6490530  34.2541091 133.3694717  92.4086266  33.5434399
 132.8476810  91.9297661  34.8814628 114.9947382 106.4924141  34.5684256
 114.8601850 105.7324542  34.0022254 114.5779444 107.2165041  34.1013045
 126.1306345 101.6761065  23.5760831 126.8342195 101.8811067  24.1918487
 125.4068994 102.2437827  23.8409915 126.9604155  97.4270926  29.6963102
 126.9039357  97.8839478  28.8570734 127.5132498  96.6661611  29.5185944
 130.7708961  93.2160658  30.5213221 130.5145896  92.8157294  31.3521429
 130.1461829  93.9304452  30.3963360 135.0821299  95.9556731  33.0284512
 134.5220857  96.0249921  33.8016075 134.4764803  95.7797716  32.3084009
 118.1516508 107.3893458  34.7802699 118.0348892 108.3338891  34.6781389
 117.3308954 107.0867020  35.1688498 128.0393043 102.1143594  25.6259291
 128.8738646 101.6824793  25.4436766 127.8777385 101.9425608  26.5536186
 127.6938935  98.6175707  26.9915631 127.6387738  98.4519979  26.0504075
 127.0684990  99.3251740  27.1477820 112.4831450  93.8543772  40.8177053
 113.1290313  93.3442726  41.3064278 112.2748601  94.5912453  41.3920478
 125.0084842 100.9224619  46.3169193 125.8776001 101.0965272  45.9555828
 124.5291593 101.7419036  46.1944923 121.0035060  88.1183816  26.5700949
 120.9913730  89.0625656  26.7269220 121.8958482  87.9353962  26.2760410
 119.1771022 108.0421720  37.9958627 120.0798269 108.0745331  38.3125122
 118.9508392 107.1122171  38.0104963 120.9324624 106.7952707  34.6568706
 119.9820255 106.7954568  34.5433078 121.2357110 106.0485441  34.1404740
 124.8187180  84.7126593  30.8246886 124.0519575  84.1585080  30.9703568
 125.2297885  84.7848462  31.6861038 116.8228941  91.0011389  44.9152067
 117.6860402  90.6448194  45.1255392 116.2494351  90.6625284  45.6027471
 136.6677318 112.6313245  35.7214468 137.3055728 112.5119993  35.0177808
 136.5498160 113.5794089  35.7802420 133.4767024 112.5840673  35.6575993
 133.1385535 112.4681738  34.7696528 134.3456792 112.1831838  35.6376999
 129.3353840 114.4376150  31.6472884 128.7718705 114.3466087  30.8789172
 129.2206235 113.6176054  32.1275376 133.9586807 113.7375525  41.6162198
 133.9475448 113.3428323  40.7442702 134.1207446 113.0041598  42.2095970
 126.8818272 115.9327341  34.4857104 127.6739563 115.5918166  34.0703404
 127.1214922 116.0422316  35.4059258 130.6794068 116.5212637  40.5641382
 130.3883934 117.4258268  40.4488049 131.3151052 116.5629164  41.2785452
 131.6050275 113.8989485  37.1542742 132.2013847 113.6745508  36.4399705
 131.6625246 113.1574231  37.7568190 136.2218586 110.3564699  32.7967676
 137.0081675 109.9384122  32.4458093 136.4857290 111.2610791  32.9649325
 141.6227013 110.2939932  33.7000655 142.3552185 109.7239149  33.9338484
 140.8666369 109.9061533  34.1407160 133.2403133 112.7167174  30.8963997
 132.8761340 112.1897795  31.6076919 134.0970249 112.3265643  30.7230483
 139.1452434 104.0061506  38.1595263 138.8135758 104.8756917  37.9356478
 138.5498047 103.6897790  38.8389294 135.6383953 116.2074052  37.5591176
 135.3384676 117.1099091  37.4506983 135.2935013 115.9406236  38.4112329
 129.0896435 112.6587849  33.5927880 128.1646931 112.5264063  33.8005572
 129.3380848 113.4382068  34.0897823 139.0381097 108.7256593  35.2388613
 138.1297974 108.6572001  34.9447374 138.9868693 109.2028537  36.0670439
 126.4505246 112.3021123  34.4271670 126.5797627 112.5555602  35.3411081
 125.7702697 112.8948831  34.1076325 133.1121963 110.1446238  43.1823511
 132.3355297 110.7040158  43.1726375 133.7512526 110.6303021  43.7038381
 140.9042743 106.9273031  37.0166487 140.2617124 107.2205564  36.3706282
 140.3997672 106.8125951  37.8219684 131.3668335 112.9531691  42.7441478
 132.1083019 113.4916735  42.4676301 130.6605320 113.5797980  42.9013029
 136.8423675 115.0960832  41.3413639 137.2507031 114.6543242  40.5968272
 136.1200936 114.5213459  41.5947832 133.1954745 110.0333439  38.7147196
 134.0415940 110.4572852  38.8581845 133.1353382 109.3767063  39.4085759
 137.1652489 115.6562023  35.0965928 136.5361352 115.8207737  34.3941996
 136.7778151 116.0703632  35.8676892 136.3454190 107.6937807  40.3728370
 136.1015122 108.4479868  39.8362645 136.6214120 108.0723155  41.2075617
 138.2992653 114.2376419  39.0505635 138.5109548 114.8808179  38.3740016
 138.2522401 113.4038736  38.5827565 135.9018882 106.8494240  35.9542207
 135.0403361 107.1475494  36.2458945 135.9281316 107.0664639  35.0223240
 129.6104532 114.9407912  35.2995776 130.1805889 115.3695181  34.6613261
 130.2012644 114.6590497  35.9979962 131.6549337 111.5159583  29.1705578
 132.3573381 111.9680627  29.6379505 131.3229966 110.8743402  29.7985471
 130.1029699 110.1071340  43.5456788 129.4728359 110.7887621  43.7792184
 129.9965787 109.9954421  42.6009926 125.3974671 109.7743136  34.4722712
 124.6073725 110.0300664  33.9962822 125.8885919 110.5891474  34.5774752
 139.4138481 117.1148375  37.2227993 140.2355924 116.7128562  36.9410674
 139.4100884 117.0116609  38.1744108 127.3489417 110.1387715  31.4306189
 126.5520580 110.2506409  31.9489684 127.1215009 110.4774367  30.5647079
 133.1795084 116.6632418  39.3788703 133.2439517 117.1252825  40.2146875
 132.4706008 116.0329783  39.5071013 123.6812374 110.0273626  36.9037703
 123.9320413 110.9120636  37.1695279 124.2171923 109.8478228  36.1312794
 129.3810441 104.4092106  45.9082039 128.9877387 103.8558304  46.5829683
 130.1976582 104.7202684  46.2988556 126.3472499 115.8475964  29.8195609
 126.8597020 116.6419214  29.9701173 126.9995212 115.1502254  29.7529210
 132.2978402 105.8249985  43.5002295 133.0388116 106.4257138  43.4206758
 132.5296325 105.0827622  42.9420338 127.4419740 111.0106352  41.7780525
 127.3273256 110.1091609  42.0787624 126.5864258 111.2570049  41.4265341
 134.5211578 118.9524092  43.3768026 134.0775432 118.1660471  43.0588930
 135.1828792 119.1403243  42.7111916 129.2798699 120.4819894  37.9028704
 129.8306124 120.3536957  37.1305698 128.4410175 120.7814783  37.5523597
 136.6192816 119.2326892  41.4049427 136.6011292 120.0535773  40.9129696
 137.5412736 119.1080967  41.6299568 133.0765870 116.7471022  42.2472935
 133.6094207 115.9859310  42.0172243 132.5479952 116.4544673  42.9897090
 136.2435565 101.8531088  37.7766577 135.8999835 102.7432729  37.7005688
 136.6114528 101.6632745  36.9136162 124.3121416 114.1764618  30.5955179
 125.1496638 114.5861626  30.3788887 124.4899684 113.2364060  30.5655373
 133.7932959 106.6889399  31.3424250 132.9374555 106.2996250  31.1629889
 134.2059911 106.7681360  30.4824036 135.3232106 104.2235743  35.7415810
 134.8196901 104.1865878  34.9283615 135.6162713 105.1328485  35.8012467
 131.5674992 104.3074472  34.7481992 132.4327988 104.1117281  34.3887881
 131.6352501 104.0784824  35.6751349 139.4211429 114.0706035  34.8758794
 138.7635104 114.7605296  34.9638922 140.2251828 114.4602466  35.2192780
 129.1737311 106.5376680  32.1198359 129.7481063 106.3151862  31.3871552
 129.7608293 106.6065375  32.8726960 138.2316888 112.4250407  32.9262735
 138.7448770 113.0580399  33.4284445 138.8818112 111.8251603  32.5606095
 131.4759978 103.4117929  30.8473428 130.8224391 103.0966946  30.2230043
 131.4340453 102.7893670  31.5733251 134.7097719 109.8999863  35.1721076
 133.7920280 110.1214810  35.0142764 135.1257862 109.9746173  34.3132783
 137.9411604 108.3348395  32.2842545 137.2034361 107.8225781  32.6152788
 138.1938377 107.8948776  31.4725822 138.0423231 101.1124647  32.8784315
 138.3482108 100.2522010  32.5910230 138.7675836 101.7042267  32.6783309
 124.3347587 111.5155333  31.2665913 124.1371987 110.9224694  30.5416979
 123.7794251 111.2107544  31.9841851 132.3144311 111.4078440  33.3860506
 132.3692921 110.4552276  33.3102982 131.5035513 111.5637879  33.8701804
 130.2536671 110.0255500  31.1450885 129.4404536 110.3249670  31.5516077
 130.7495665 109.6311188  31.8625367 135.8510882 110.4897324  39.9765778
 136.2060270 110.7168797  40.8360244 136.4983014 110.8215701  39.3543034
 129.7450745 107.5973855  36.7612120 130.3850125 107.4562614  36.0635083
 128.9128276 107.3108368  36.3850722 130.5211049 116.8976285  32.8747112
 131.3151648 116.4026606  32.6729687 129.8102742 116.3694149  32.5114818
 135.3405894 119.2794381  37.2259480 135.3942916 119.8485317  37.9937195
 134.4720675 119.4496266  36.8613517 126.8293813 111.0419367  28.9506865
 125.8991401 110.9803823  29.1676827 126.9251285 110.5195320  28.1543506
 126.7479362 107.5674180  31.5385106 127.0086179 108.4819513  31.4294267
 127.5696534 107.0998623  31.6881719 128.2204287 108.9811937  38.7083931
 128.8927341 108.7729299  38.0596580 127.3934074 108.7834023  38.2689163
 142.4693548 115.7215988  38.2259264 142.6629439 116.6261798  38.4718539
 142.3694167 115.2623407  39.0597849 134.1229859 105.6073878  40.7249592
 133.4757774 106.3063828  40.6314068 134.8930875 106.0410022  41.0925840
 137.5308657 115.8722730  43.8000145 137.3794164 115.6433282  42.8830229
 137.5213337 116.8293332  43.8131490 134.2993994 113.4454643  38.7846411
 135.2286054 113.5965803  38.6115379 133.8785024 113.5338664  37.9295058
 133.0982325 117.4705307  36.5544949 132.9593411 117.1024092  37.4270887
 132.3096922 117.9852947  36.3828907 134.6487541 116.8486910  33.9433787
 134.3137373 116.8087680  34.8391437 134.1491486 116.1831626  33.4704197
 128.6231784 112.2554540  39.4686368 128.4851582 111.5234779  40.0697907
 129.5336708 112.1663440  39.1870556 131.2514085 111.9674500  38.9570048
 131.9613704 111.3267692  38.9156666 131.2083393 112.2187394  39.8796228
 139.2400864 118.9041853  41.8776627 139.1813410 118.2201073  41.2107210
 139.6420382 119.6460843  41.4257253 129.9643019 108.9539717  40.7765687
 129.4280376 108.5030456  41.4287283 129.3759728 109.0885626  40.0336151
 139.2418271 116.8681437  40.1090607 138.3545050 116.5307359  40.2317005
 139.8116822 116.1364468  40.3459372 120.8947418 113.2005529  33.4333658
 121.5818458 112.8867259  32.8454673 120.7395547 114.1046893  33.1600909
 125.6982140 108.0895725  37.8618682 125.6140329 107.4821395  37.1269092
 124.8764847 108.5804743  37.8628178 132.7719424 121.5282889  37.0751850
 132.6989596 122.3337861  37.5871154 132.3296818 121.7274855  36.2499871
 135.8705854 106.5749289  33.2288877 136.3674554 105.8219251  32.9089947
 135.0992836 106.6113605  32.6632086 135.2318108 121.4269723  39.2310008
 135.9446080 122.0617188  39.1585910 134.7408137 121.5233589  38.4150010
 132.4540823 108.7166672  32.9560561 132.0838610 108.1637712  33.6441467
 132.9499915 108.1124805  32.4035561 130.2830022 119.1764167  40.0515579
 130.9839481 119.8100650  40.2044973 129.8125137 119.5178898  39.2911218
 138.3124849 103.5418882  35.3768236 137.3987929 103.7723109  35.5450442
 138.7417950 103.6257326  36.2282268 138.0831307 111.7308774  37.8768130
 137.4302758 111.9784682  37.2220582 138.4611687 110.9172912  37.5430607
 134.1318881 112.4728585  44.3634167 133.4559518 112.3722714  45.0336542
 134.9546514 112.3167799  44.8270164 125.8797740 118.7100522  36.9846682
 126.4651176 117.9644210  37.1174586 125.6822578 119.0204478  37.8683346
 120.4715394 111.2806122  35.7051125 120.5099494 110.7469713  36.4988243
 119.9655687 110.7541327  35.0862102 132.8741663 123.7795513  38.5991783
 133.4259971 123.9427134  39.3640868 133.2147857 124.3699950  37.9271808
 127.8506157 106.1270662  39.2013667 127.9147483 106.9885493  38.7891065
 127.7873277 105.5144664  38.4686026 127.3258429 108.1993795  42.8486702
 127.9530468 107.8170872  43.4624226 126.4686348 107.9807997  43.2142394
 137.7252538 118.6056770  44.4540437 138.2692442 119.2186728  43.9595392
 137.1439383 119.1636349  44.9707450 124.1023972 110.0070224  28.7805056
 124.3977413 109.0980902  28.7272110 123.2012008 109.9857964  28.4586059
 127.6318219 108.0826221  34.7632605 126.9104805 108.6962188  34.6240078
 128.4211475 108.6183985  34.6849251 138.0744959 119.5286508  37.2135015
 137.1275295 119.4091859  37.1413342 138.4227732 118.6409006  37.2961276
 130.4344532 105.4180647  41.0373257 130.9578934 105.6642944  41.7999566
 130.2156866 106.2500682  40.6176394 125.8311813 107.6884322  28.9044382
 125.5024520 106.8081701  28.7219488 126.1851184 107.6331990  29.7920771
 128.9453637 107.9757292  29.2719859 129.2849709 108.5043213  28.5498468
 129.3925757 108.3137698  30.0478426 131.6397077 106.3594342  38.7222927
 131.2993898 105.5602155  39.1243607 130.9336084 106.6596053  38.1499761
 132.2913549 103.4443655  37.1750250 133.1139619 102.9704133  37.0529141
 132.5351613 104.2234138  37.6748937 130.9321784 106.4731913  27.4713152
 131.6530146 106.8513166  26.9676869 130.3087088 107.1920790  27.5748130
 129.8152128 110.1362775  34.9842229 129.6696709 110.4503078  35.8766510
 129.3377332 110.7547676  34.4313128 131.6748511 107.1265323  35.0323119
 131.6610080 106.2306417  34.6955416 132.3920939 107.1335987  35.6661405
 133.5274642 107.5602663  37.0776246 133.2692419 108.4819734  37.0760576
 132.9959682 107.1633098  37.7676710 124.2897790 112.6768120  37.9229890
 123.7451258 113.4527928  38.0550164 125.1677140 113.0238924  37.7649012
 131.0785407 106.0079704  30.3010689 131.2001318 105.0796350  30.5001576
 130.7887449 106.0218390  29.3889004 133.9476597 103.6934614  33.4377409
 133.9698294 103.7573947  32.4829388 134.3644656 102.8539123  33.6317915
 125.0763812 111.8038016  40.8160047 124.3345548 111.9520651  41.4024677
 124.7556556 112.0646282  39.9526796 133.0207475 121.3453994  40.6140437
 133.3294601 121.1003141  41.4863137 133.8182957 121.5500633  40.1259307
 125.5220426 119.6903445  32.8470442 126.3478446 119.3907217  32.4669085
 125.1714478 118.9211067  33.2960230 130.4901959 119.0429913  34.9168115
 129.8681968 118.3800618  34.6170343 131.1606826 119.0691045  34.2341763
 123.7229031 117.6089771  33.8059375 122.8860939 117.1811945  33.6243376
 123.6952676 117.8022214  34.7430166 130.5626486 107.5211701  44.5100621
 130.6114642 108.3973824  44.1278391 131.1049001 106.9789094  43.9372264
 141.0481332 118.0652824  43.7901758 140.2576876 118.0476963  43.2506258
 140.8114687 118.6041118  44.5450795 141.1679207 114.9145291  41.1034487
 141.2177212 114.7495298  42.0450010 141.0593130 114.0472550  40.7132368
 138.4582970 110.8976219  42.4193794 139.3592832 110.7582683  42.1277791
 138.5330944 111.0630673  43.3591971 132.7925775 108.2743073  41.2646980
 131.9229084 108.5676639  40.9929568 133.0285255 108.8583518  41.9854244
 142.6697404 117.3342232  41.3476508 142.3782212 117.6972213  42.1839969
 142.0569535 116.6209240  41.1689840 140.9184592 112.4574847  39.8156566
 141.3938714 112.6502493  39.0075418 139.9950158 112.5134033  39.5699950
 135.4964809 104.4922690  38.7812400 136.0146753 105.2283717  38.4558889
 135.1419941 104.7986684  39.6159159 127.0763746 109.3527371  26.8973806
 126.3832991 109.4271726  26.2413842 126.8315498 108.5887715  27.4195323
 135.7477403 100.9122973  34.3013297 136.0279157 100.2446162  34.9273723
 136.5328010 101.1052068  33.7887961 139.6186261 109.3340607  38.0484872
 140.5703684 109.4338704  38.0697096 139.4489712 108.5418875  38.5582956
 137.6400641 106.4196190  38.2344273 137.0450573 106.7001203  37.5390762
 137.3550337 106.9090091  39.0061014 142.0974339 112.5546726  37.1627172
 142.0650659 111.6162727  37.3486855 142.7074963 112.6330763  36.4292997
 142.2468827 109.3457770  37.2085455 141.7307876 108.5616227  37.0215384
 143.1308776 109.0176487  37.3731974 139.9079554 103.0898785  33.1681268
 139.7104376 102.7813874  34.0524599 140.5179260 103.8160424  33.2979197
 145.9966186 111.7570596  36.9007660 145.2699350 111.6226561  36.2924151
 145.5813473 112.0647425  37.7064378 133.8196362 115.4760526  44.6655033
 134.7399372 115.6539125  44.8595079 133.7845945 114.5316571  44.5134732
 123.0378527 110.6699119  33.5908307 122.7181312 109.8164427  33.2982681
 122.4911956 110.8847697  34.3466275 126.8158435 113.3861560  37.3077814
 127.0344445 114.3178668  37.3265848 127.2284209 113.0269535  38.0932618
 133.7362653 103.8929646  29.2953502 132.9263381 103.5476731  29.6708748
 134.4247070 103.5837189  29.8841114 135.6653201 102.9707692  30.9177799
 136.2184240 103.3903146  31.5767822 135.9023287 102.0443440  30.9600755
 131.6886300 108.9594766  46.6980563 131.5883027 109.9089123  46.6292654
 131.4707842 108.6313005  45.8256633 122.9066787 114.2902031  35.5601429
 122.2130259 113.8755984  35.0471383 123.6539778 114.3322567  34.9634848
 139.0432008 105.0808218  30.4256463 138.4630677 105.7393022  30.0434516
 138.7767941 104.2585562  30.0143881 137.4935574 104.4813275  32.6277783
 137.9935353 104.5929810  31.8192102 138.1371182 104.1774328  33.2678592
 131.5517570 112.3891905  45.5145624 131.0684652 113.1892265  45.7209513
 131.6378509 112.3999850  44.5613068 124.8203530 114.2220285  33.4367444
 124.7974218 114.3207972  32.4849327 125.1304166 115.0685435  33.7584610
 127.4790908 116.2796440  37.5514058 128.4334161 116.2480382  37.4843990
 127.2803431 115.8187063  38.3664284 128.0690290 114.8497556  40.1184856
 128.8883179 115.3441634  40.1419693 128.3427098 113.9329524  40.0902423
 141.1771422 107.2654829  33.1967151 141.9531812 107.7551281  33.4691767
 140.4519556 107.6912883  33.6539020 143.6143981 107.9782448  34.2541091
 144.2088472 107.7378184  33.5434399 143.6870565 107.2589579  34.8814628
 125.8341137 121.8216059  34.5684256 125.6995605 121.0616460  34.0022254
 125.4173199 122.5456959  34.1013045 128.9910262 122.7185376  34.7802699
 128.8742647 123.6630809  34.6781389 128.1702709 122.4158938  35.1688498
 123.3225204 109.1835689  40.8177053 123.9684068 108.6734643  41.3064278
 123.1142355 109.9204371  41.3920478 135.8478596 116.2516537  46.3169193
 136.7169756 116.4257189  45.9555828 135.3685348 117.0710954  46.1944923
 131.8428815 103.4475734  26.5700949 131.8307484 104.3917574  26.7269220
 132.7352237 103.2645879  26.2760410 130.0164777 123.3713638  37.9958627
 130.9192023 123.4037248  38.3125122 129.7902147 122.4414089  38.0104963
 135.6580934 100.0418511  30.8246886 134.8913330  99.4876997  30.9703568
 136.0691639 100.1140379  31.6861038 127.6622695 106.3303307  44.9152067
 128.5254157 105.9740111  45.1255392 127.0888106 105.9917201  45.6027471
 143.9515717 125.4738156  43.1823511 143.1749051 126.0332076  43.1726375
 144.5906280 125.9594939  43.7038381 140.9423453 125.4363257  43.5456788
 140.3122114 126.1179538  43.7792184 140.8359541 125.3246339  42.6009926
 140.2204196 119.7384023  45.9082039 139.8271142 119.1850222  46.5829683
 141.0370336 120.0494602  46.2988556 143.1372157 121.1541902  43.5002295
 143.8781870 121.7549055  43.4206758 143.3690080 120.4119540  42.9420338
 138.2813495 126.3398270  41.7780525 138.1667010 125.4383527  42.0787624
 137.4258013 126.5861966  41.4265341 144.9623614 120.9365796  40.7249592
 144.3151529 121.6355745  40.6314068 145.7324629 121.3701940  41.0925840
 140.8036774 124.2831635  40.7765687 140.2674131 123.8322374  41.4287283
 140.2153482 124.4177544  40.0336151 144.9712635 127.8020503  44.3634167
 144.2953272 127.7014632  45.0336542 145.7940269 127.6459717  44.8270164
 138.6899911 121.4562580  39.2013667 138.7541238 122.3177411  38.7891065
 138.6267031 120.8436582  38.4686026 138.1652184 123.5285713  42.8486702
 138.7924222 123.1462790  43.4624226 137.3080102 123.3099915  43.2142394
 141.2738287 120.7472565  41.0373257 141.7972689 120.9934861  41.7999566
 141.0550620 121.5792600  40.6176394 135.9157567 127.1329934  40.8160047
 135.1739303 127.2812569  41.4024677 135.5950311 127.3938199  39.9526796
 141.4020241 122.8503619  44.5100621 141.4508396 123.7265741  44.1278391
 141.9442755 122.3081012  43.9372264 143.6319529 123.6034991  41.2646980
 142.7622839 123.8968557  40.9929568 143.8679010 124.1875436  41.9854244
 142.5280055 124.2886684  46.6980563 142.4276782 125.2381041  46.6292654
 142.3101597 123.9604923  45.8256633 142.3911325 127.7183823  45.5145624
 141.9078406 128.5184183  45.7209513 142.4772264 127.7291767  44.5613068
 134.1618959 124.5127607  40.8177053 134.8077822 124.0026561  41.3064278
 133.9536110 125.2496289  41.3920478 138.5016450 121.6595224  44.9152067
 139.3647911 121.3032029  45.1255392 137.9281860 121.3209119  45.6027471
  69.4849053   3.9834709  30.1013332  69.0412907   3.1971087  29.7834237
  70.1466266   4.1713859  29.4357223  71.5830291   4.2637509  28.1294733
  71.5648766   5.0846390  27.6375003  72.5050211   4.1391584  28.3544875
  68.0403345   1.7781638  28.9718242  68.5731682   1.0169926  28.7417550
  67.5117426   1.4855290  29.7142396  72.4946131   0.9033347  30.5245452
  72.3431638   0.6743899  29.6075535  72.4850811   1.8603948  30.5376797
  74.2038338   3.9352469  28.6021934  74.1450884   3.2511690  27.9352517
  74.6057857   4.6771459  28.1502559  74.2055745   1.8992053  26.8335913
  73.3182524   1.5617975  26.9562312  74.7754296   1.1675085  27.0704679
  70.1955582   6.4580340  25.9555315  70.9083555   7.0927805  25.8831217
  69.7045611   6.5544206  25.1395317  69.0956355  -2.4960798  31.0879473
  68.4196992  -2.5966669  31.7581849  69.9183989  -2.6521585  31.5515471
  67.8379138   8.8106129  25.3237089  68.3897446   8.9737751  26.0886175
  68.1785331   9.4010567  24.6517114  72.6890012   3.6367387  31.1785744
  73.2329916   4.2497345  30.6840699  72.1076857   4.1946965  31.6952757
  67.9844949   6.3764611  27.3385744  68.2932075   6.1313757  28.2108443
  68.7820431   6.5811249  26.8504614  76.0118806   3.0963441  30.5147065
  75.2214350   3.0787580  29.9751564  75.7752161   3.6351734  31.2696102
  76.1316681  -0.0544093  27.8279794  76.1814686  -0.2194085  28.7695316
  76.0230605  -0.9216834  27.4377674  77.6334878   2.3652849  28.0721815
  77.3419687   2.7282829  28.9085276  77.0207010   1.6519857  27.8935147
  68.7833837   0.5071142  31.3900339  69.7036846   0.6849741  31.5840386
  68.7483420  -0.4372813  31.2380039  70.8116071   1.2827153  33.0414500
  71.6807230   1.4567806  32.6801135  70.3322822   2.1021570  32.9190229
  82.4708546  12.9915779  22.4459775  83.1086956  12.8722527  21.7423115
  82.3529389  13.9396623  22.5047727  79.2798253  12.9443208  22.3821300
  78.9416764  12.8284272  21.4941834  80.1488021  12.5434373  22.3622306
  79.7618036  14.0978059  28.3407505  79.7506676  13.7030858  27.4688009
  79.9238675  13.3644132  28.9341276  72.6849500  16.2929876  21.2102411
  73.4770792  15.9520700  20.7948710  72.9246150  16.4024851  22.1304564
  76.4825297  16.8815171  27.2886689  76.1915163  17.7860802  27.1733355
  77.1182281  16.9231699  28.0030759  77.4081504  14.2592020  23.8788049
  78.0045076  14.0348042  23.1645012  77.4656475  13.5176765  24.4813497
  82.0249815  10.7167233  19.5212983  82.8112904  10.2986656  19.1703400
  82.2888519  11.6213325  19.6894631  87.4258242  10.6542466  20.4245961
  88.1583414  10.0841683  20.6583791  86.6697598  10.2664067  20.8652467
  79.0434362  13.0769708  17.6209304  78.6792569  12.5500329  18.3322225
  79.9001478  12.6868177  17.4475789  84.9483662   4.3664041  24.8840570
  84.6166987   5.2359452  24.6601785  84.3529276   4.0500325  25.5634600
  81.4415182  16.5676587  24.2836483  81.1415905  17.4701625  24.1752290
  81.0966241  16.3008770  25.1357636  74.8927663  13.0190383  20.3173187
  73.9678160  12.8866598  20.5250879  75.1412077  13.7984603  20.8143130
  84.8412326   9.0859127  21.9633920  83.9329203   9.0174535  21.6692681
  84.7899921   9.5631072  22.7915746  72.2536474  12.6623657  21.1516976
  72.3828856  12.9158136  22.0656388  71.5733926  13.2551365  20.8321631
  76.4235962  23.3320907  17.2507450  76.3459991  24.2828732  17.3295931
  75.8197605  22.9866779  17.9082377  78.9153191  10.5048772  29.9068817
  78.1386526  11.0642692  29.8971682  79.5543755  10.9905555  30.4283687
  86.7073972   7.2875565  23.7411794  86.0648352   7.5808098  23.0951589
  86.2028901   7.1728485  24.5464991  77.1699564  13.3134226  29.4686784
  77.9114248  13.8519270  29.1921608  76.4636549  13.9400514  29.6258336
  82.6454903  15.4563366  28.0658946  83.0538259  15.0145777  27.3213578
  81.9232165  14.8815994  28.3193139  78.9985973  10.3935973  25.4392503
  79.8447169  10.8175386  25.5827152  78.9384611   9.7369597  26.1331066
  82.9683718  16.0164557  21.8211235  82.3392581  16.1810271  21.1187303
  82.5809380  16.4306166  22.5922199  86.8472950  16.9518995  19.1755598
  86.1623988  17.3317896  18.6252632  86.9316799  17.5614321  19.9087546
  82.1485419   8.0540341  27.0973676  81.9046351   8.8082402  26.5607952
  82.4245349   8.4325689  27.9320923  84.1023882  14.5978954  25.7750942
  84.3140777  15.2410714  25.0985323  84.0553630  13.7641270  25.3072872
  81.7050111   7.2096774  22.6787514  80.8434590   7.5078028  22.9704252
  81.7312545   7.4267173  21.7468547  78.5211680  15.7538965  19.0861320
  78.9850025  16.0326668  18.2965942  78.2568478  14.8522409  18.9034410
  75.4135761  15.3010446  22.0241083  75.9837118  15.7297715  21.3858568
  76.0043873  15.0193031  22.7225269  75.9060928  10.4673874  30.2702094
  75.2759588  11.1490155  30.5037491  75.7997015  10.3556955  29.3255233
  85.2169710  17.4750909  23.9473299  86.0387153  17.0731096  23.6655981
  85.2132112  17.3719143  24.8989415  78.9826313  17.0234952  26.1034010
  79.0470745  17.4855360  26.9392182  78.2737237  16.3932317  26.2316320
  69.4843603  10.3876160  23.6283009  69.7351641  11.2723170  23.8940585
  70.0203151  10.2080762  22.8558101  93.3075703  13.8189658  20.2958271
  92.5539411  13.2497056  20.1402275  93.4423244  13.7852322  21.2428905
  78.6974331  18.6903060  15.9712990  78.5620005  19.5354596  16.3997838
  79.2384143  18.8922338  15.2078924  75.1841670   4.7694640  32.6327345
  74.7908616   4.2160838  33.3074990  76.0007811   5.0805218  33.0233863
  73.9598613  19.3244254  18.6263668  74.1365241  20.2462219  18.4384652
  74.7555446  19.0102673  19.0558048  78.1009631   6.1852519  30.2247602
  78.8419345   6.7859672  30.1452064  78.3327554   5.4430157  29.6665644
  73.2450969  11.3708886  28.5025832  73.1304484  10.4694143  28.8032931
  72.3895487  11.6172583  28.1510648  80.3242807  19.3126626  30.1013332
  79.8806661  18.5263005  29.7834237  80.9860021  19.5005777  29.4357223
  75.0829928  20.8422428  24.6274011  75.6337353  20.7139491  23.8551005
  74.2441404  21.1417317  24.2768904  82.4224045  19.5929426  28.1294733
  82.4042520  20.4138307  27.6375003  83.3443965  19.4683502  28.3544875
  78.8797099  17.1073556  28.9718242  79.4125436  16.3461844  28.7417550
  78.3511180  16.8147208  29.7142396  82.0466794   2.2133622  24.5011884
  81.7031064   3.1035263  24.4250994  82.4145757   2.0235279  23.6381469
  81.1263335   4.5838277  22.4661117  80.6228130   4.5468412  21.6528922
  81.4193941   5.4931020  22.5257774  86.9851351  14.9574588  14.9437492
  86.2080794  14.6185747  14.4992654  87.6642832  14.9627211  14.2692457
  80.2449812  16.2359548  16.4837054  79.7171173  15.5012308  16.1710291
  79.7437315  17.0134225  16.2377022  85.2242658  14.4308569  21.6004100
  84.5666332  15.1207830  21.6884229  86.0283057  14.8205001  21.9438087
  84.0348117  12.7852941  19.6508042  84.5479998  13.4182933  20.1529752
  84.6849341  12.1854137  19.2851402  81.2970491  22.7637266  12.4068713
  80.6232190  23.0668962  13.0153671  81.6836313  23.5666346  12.0574170
  80.5128948  10.2602397  21.8966382  79.5951509  10.4817344  21.7388071
  80.9289091  10.3348707  21.0378090  84.8009913  17.7658943  17.7787185
  84.3472240  16.9249853  17.8352375  84.1703880  18.4020341  18.1161965
  83.7442833   8.6950929  19.0087852  83.0065589   8.1828315  19.3398095
  83.9969606   8.2551311  18.1971129  83.2442852  19.6035440  18.7137003
  83.5365827  20.1640497  17.9949368  83.7541473  19.8964001  19.4690162
  78.1175540  11.7680974  20.1105812  78.1724149  10.8154810  20.0348289
  77.3066742  11.9240413  20.5947111  78.2076477  20.3815791  19.8030456
  78.1652656  20.6076637  18.8738988  79.1239176  20.1479165  19.9516257
  81.6542111  10.8499858  26.7011085  82.0091499  11.0771331  27.5605551
  82.3014242  11.1818235  26.0788340  87.3839848  13.9718294  17.4060414
  87.2457747  14.1619890  16.4781603  87.0276067  14.7337677  17.8628465
  75.5481974   7.9576389  23.4857426  76.1881354   7.8165148  22.7880389
  74.7159505   7.6710903  23.1096028  87.4109228  16.0394821  22.4171686
  87.8445734  15.9470110  23.2654740  88.1240808  16.0152322  21.7791702
  76.3242278  17.2578820  19.5992419  77.1182877  16.7629140  19.3974994
  75.6133971  16.7296683  19.2360124  81.1437123  19.6396915  23.9504786
  81.1974145  20.2087852  24.7182502  80.2751904  19.8098800  23.5858823
  74.0235516   9.3414471  25.4329237  74.6958569   9.1331834  24.7841886
  73.1965303   9.1436557  24.9934470  88.2724777  16.0818522  24.9504571
  88.4660667  16.9864332  25.1963846  88.1725395  15.6225941  25.7843156
  79.9261088   5.9676412  27.4494898  79.2789003   6.6666362  27.3559375
  80.6962103   6.4012556  27.8171147  83.3339886  16.2325265  30.5245452
  83.1825392  16.0035816  29.6075535  83.3244565  17.1895866  30.5376797
  80.1025222  13.8057177  25.5091718  81.0317282  13.9568337  25.3360685
  79.6816252  13.8941198  24.6540365  78.9013554  17.8307842  23.2790256
  78.7624640  17.4626626  24.1516194  78.1128150  18.3455481  23.1074214
  79.4961706  22.9316938  14.6215792  79.6713462  22.4604981  15.4361415
  78.8094494  23.5582704  14.8497053  80.4518769  17.2089444  20.6679093
  80.1168602  17.1690214  21.5636743  79.9522715  16.5434160  20.1949504
  74.4263013  12.6157074  26.1931675  74.2882811  11.8837313  26.7943214
  75.3367937  12.5265975  25.9115862  77.0545314  12.3277034  25.6815354
  77.7644932  11.6870226  25.6401973  77.0114622  12.5789929  26.6041535
  85.0432093  19.2644387  28.6021934  84.9844639  18.5803607  27.9352517
  85.4451611  20.0063377  28.1502559  75.7674248   9.3142252  27.5010994
  75.2311605   8.8632990  28.1532590  75.1790956   9.4488160  26.7581458
  74.0622791  26.0806301  21.3955652  74.3019390  26.7124825  22.0734671
  73.2191988  25.7294341  21.6821012  85.0449500  17.2283971  26.8335913
  84.1576279  16.8909893  26.9562312  85.6148051  16.4967002  27.0704679
  71.5013369   8.4498259  24.5863988  71.4171558   7.8423929  23.8514398
  70.6796076   8.9407278  24.5873485  78.5750653  21.8885423  23.7997156
  78.5020825  22.6940395  24.3116461  78.1328046  22.0877389  22.9745178
  78.3640433  21.1257193  17.3099978  77.5807955  21.6678874  17.4038202
  79.0633178  21.6431173  17.7094219  89.5266840  12.6392188  21.5952475
  89.5156717  13.5216904  21.2246408  88.6584220  12.2863739  21.4007012
  81.0349337  21.7872257  25.9555315  81.7477309  22.4219722  25.8831217
  80.5439365  21.8836123  25.1395317  82.7566864  15.6923510  17.5272607
  81.8223142  15.8124973  17.3577311  82.9343532  14.7895977  17.2632617
  86.1439415  11.5340829  18.0622641  86.6099867  12.3668821  17.9882944
  86.5946916  11.0685811  18.7667899  76.0861250  19.5366701  26.7760886
  76.7870710  20.1703184  26.9290280  75.6156365  19.8781432  26.0156525
  84.2115646  17.8784651  15.0608793  84.4875490  17.7641245  15.9702667
  83.3420145  17.4802135  15.0220966  84.1156078   3.9021416  22.1013542
  83.2019158   4.1325643  22.2695749  84.5449179   3.9859860  22.9527575
  83.8862536  12.0911308  24.6013436  83.2333987  12.3387216  23.9465889
  84.2642916  11.2775446  24.2675914  80.8469710  22.1271001  18.7041607
  81.0292105  21.3092657  19.1669359  81.6702696  22.3438694  18.2666497
  81.1811876  21.0539187  15.9656655  81.7099642  20.5431641  15.3526817
  81.4440095  20.7381717  16.8302188  79.9350109  12.8331119  31.0879473
  79.2590746  12.7325249  31.7581849  80.7577743  12.6770333  31.5515471
  71.6828968  19.0703056  23.7091989  72.2682405  18.3246744  23.8419893
  71.4853807  19.3807013  24.5928652  74.5367624  22.1054303  18.7254431
  73.8677999  22.5900431  18.2418471  74.3980493  22.3523524  19.6397809
  78.6772892  24.1398047  25.3237089  79.2291200  24.3029668  26.0886175
  79.0179086  24.7302485  24.6517114  73.6537385   6.4873197  25.9258974
  73.7178712   7.3488028  25.5136372  73.5904506   5.8747198  25.1931333
  73.1289658   8.5596329  29.5732008  73.7561697   8.1773406  30.1869533
  72.2717577   8.3410531  29.9387701  83.5283767  18.9659304  31.1785744
  84.0723671  19.5789263  30.6840699  82.9470611  19.5238883  31.6952757
  81.8141279  22.0880022  22.3100771  81.6892419  21.2869762  21.8011717
  82.4720371  22.5826216  21.8214741  83.8776188  19.8889042  23.9380322
  82.9306523  19.7694394  23.8658648  84.2258961  19.0011540  24.0206583
  76.2375761   5.7783181  27.7618563  76.7610163   6.0245478  28.5244873
  76.0188095   6.6103216  27.3421701  80.8822621  19.6841759  20.1384674
  80.7347584  18.7558466  20.3192244  81.7076115  19.7061849  19.6541749
  84.4856743  20.5070317  21.2249547  85.4103290  20.3013179  21.0873998
  84.3172046  20.2586719  22.1338888  77.4428306   6.7196876  25.4468234
  77.1025127   5.9204690  25.8488914  76.7367313   7.0198587  24.8745067
  78.0944778   3.8046189  23.8995557  78.9170847   3.3306667  23.7774447
  78.3382842   4.5836673  24.3994243  75.6183357  10.4965310  21.7087536
  75.4727938  10.8105613  22.6011817  75.1408560  11.1150210  21.1558434
  79.3305870   7.9205198  23.8021553  79.0723648   8.8422268  23.8005883
  78.7990911   7.5235632  24.4922017  84.2752059  21.0255985  16.5811638
  84.4488937  20.4602407  15.8285490  84.7680950  21.8256880  16.3991128
  70.0929019  13.0370654  24.6475197  69.5482487  13.8130462  24.7795471
  70.9708369  13.3841458  24.4894318  90.1291450  13.7892408  18.2001938
  90.5722596  13.0399733  17.8021061  89.2517961  13.7802544  17.8175670
  85.2627232  20.3422749  13.6808536  85.9578136  20.9629442  13.8995851
  85.6050382  19.4918100  13.9560914  70.8795041  12.1640550  27.5405354
  70.1376777  12.3123186  28.1269984  70.5587785  12.4248816  26.6772103
  87.1618655  17.7922455  15.2095867  87.6869979  18.1309728  14.4845187
  87.0741007  16.8569470  15.0259002  78.8238704  21.7056528  27.3385744
  79.1325830  21.4605675  28.2108443  79.6214186  21.9103167  26.8504614
  78.8459316  23.8594438  19.5691120  78.4064306  23.3670817  20.2623977
  79.5967433  23.3167406  19.3283195  71.3251655  20.0505979  19.5715748
  72.1509674  19.7509751  19.1914392  70.9745707  19.2813601  20.0205537
  76.2933188  19.4032447  21.6413422  75.6713197  18.7403152  21.3415650
  76.9638055  19.4293579  20.9587070  69.5260260  17.9692305  20.5304682
  68.6892168  17.5414480  20.3488683  69.4983905  18.1624749  21.4675473
  76.3657715   7.8814235  31.2345928  76.4145871   8.7576358  30.8523698
  76.9080229   7.3391628  30.6617571  86.8512561  18.4255358  30.5147065
  86.0608105  18.4079497  29.9751564  86.6145915  18.9643652  31.2696102
  86.9710436  15.2747825  27.8279794  87.0208441  15.1097832  28.7695316
  86.8624359  14.4075084  27.4377674  84.2614198  11.2578753  29.1439100
  85.1624061  11.1185218  28.8523098  84.3362173  11.4233208  30.0837278
  78.5957004   8.6345608  27.9892287  77.7260313   8.9279174  27.7174875
  78.8316484   9.2186053  28.7099550  88.4728633  17.6944766  28.0721815
  88.1813441  18.0574747  28.9085276  87.8600764  16.9811775  27.8935147
  89.6724315  15.2597646  20.5924385  90.5071206  15.6987450  20.7561946
  89.8083444  14.7836299  19.7732631  86.7215821  12.8177381  26.5401873
  87.1969943  13.0105027  25.7320724  85.7981386  12.8736567  26.2945257
  81.2996037   4.8525224  25.5057707  81.8177981   5.5886251  25.1804196
  80.9451170   5.1589218  26.3404466  85.4217490   9.6943141  24.7730179
  86.3734913   9.7941239  24.7942403  85.2520940   8.9021410  25.2828263
  83.4431869   6.7798724  24.9589580  82.8481802   7.0603737  24.2636068
  83.1581566   7.2692625  25.7306321  82.5739360  20.7321651  13.7192212
  83.5070033  20.6667213  13.9225088  82.4862573  21.5677918  13.2606745
  87.9005568  12.9149261  23.8872478  87.8681888  11.9765261  24.0732162
  88.5106191  12.9933297  23.1538303  88.0500056   9.7060304  23.9330762
  87.5339105   8.9218761  23.7460690  88.9340005   9.3779021  24.0977281
  93.7182118  13.9765268  23.0278515  94.4485506  13.7150556  23.5886218
  93.1089063  13.2393989  23.0680583  91.7997415  12.1173130  23.6252966
  91.0730578  11.9829095  23.0169458  91.3844702  12.4249959  24.4309684
  79.6227591  15.8363060  31.3900339  80.5430601  16.0141659  31.5840386
  79.5877174  14.8919105  31.2380039  72.6189664  13.7464094  24.0323120
  72.8375674  14.6781202  24.0511154  73.0315438  13.3872069  24.8177924
  77.4917529   9.3197300  33.4225869  77.3914256  10.2691657  33.3537961
  77.2739071   8.9915539  32.5501940  68.7098016  14.6504565  22.2846736
  68.0161488  14.2358518  21.7716690  69.4571007  14.6925101  21.6880154
  77.3548799  12.7494439  32.2390931  76.8715881  13.5494799  32.4454820
  77.4409738  12.7602384  31.2858375  73.2822137  16.6398974  24.2759365
  74.2365390  16.6082916  24.2089296  73.0834660  16.1789597  25.0909591
  73.8721519  15.2100090  26.8430163  74.6914408  15.7044168  26.8665000
  74.1458326  14.2932058  26.8147730  86.9802651   7.6257363  19.9212457
  87.7563041   8.1153816  20.1937074  86.2550785   8.0515417  20.3784327
  89.4175210   8.3384982  20.9786398  90.0119700   8.0980718  20.2679706
  89.4901793   7.6192113  21.6059934  71.6372365  22.1818593  21.2929563
  71.5026833  21.4218994  20.7267561  71.2204428  22.9059493  20.8258352
  83.6029139  13.1165378  16.4208408  83.5464340  13.5733929  15.5816041
  84.1557481  12.3556063  16.2431251  87.4133945   8.9055110  17.2458528
  87.1570879   8.5051746  18.0766735  86.7886813   9.6198904  17.1208667
  91.7246282  11.6451183  19.7529819  91.1645840  11.7144372  20.5261381
  91.1189786  11.4692168  19.0329315  74.7941491  23.0787910  21.5048005
  74.6773875  24.0233343  21.4026696  73.9733938  22.7761472  21.8933805
  84.6818026  17.8038046  12.3504598  85.5163630  17.3719244  12.1682073
  84.5202369  17.6320060  13.2781493  69.1256433   9.5438224  27.5422360
  69.7715297   9.0337178  28.0309585  68.9173584  10.2806905  28.1165785
  81.6509825  16.6119071  33.0414500  82.5200985  16.7859723  32.6801135
  81.1716577  17.4313488  32.9190229  75.8196005  23.7316172  24.7203934
  76.7223252  23.7639782  25.0370429  75.5933375  22.8016623  24.7350270
  77.5749607  22.4847159  21.3814012  76.6245238  22.4849020  21.2678385
  77.8782094  21.7379893  20.8650047  73.4653924   6.6905841  31.6397374
  74.3285386   6.3342646  31.8500698  72.8919335   6.3519736  32.3272778
  93.3102301  28.3207697  22.4459775  93.9480711  28.2014444  21.7423115
  93.1923144  29.2688541  22.5047727  90.1192007  28.2735125  22.3821300
  89.7810519  28.1576190  21.4941834  90.9881775  27.8726290  22.3622306
  85.9778823  30.1270602  18.3718190  85.4143688  30.0360539  17.6034478
  85.8631218  29.3070506  18.8520683  90.6011790  29.4269977  28.3407505
  90.5900431  29.0322775  27.4688009  90.7632430  28.6936050  28.9341276
  83.5243255  31.6221793  21.2102411  84.3164547  31.2812618  20.7948710
  83.7639905  31.7316768  22.1304564  91.5578382  33.7941569  13.6832655
  90.9066361  34.3795650  13.2966669  92.3522744  34.3247764  13.7427693
  85.4834009  30.8830706  14.0819790  86.2564885  30.3359694  13.9432666
  85.8359408  31.7474956  14.2934251  87.3219051  32.2107089  27.2886689
  87.0308917  33.1152720  27.1733355  87.9576036  32.2523616  28.0030759
  88.2475258  29.5883937  23.8788049  88.8438830  29.3639960  23.1645012
  88.3050230  28.8468683  24.4813497  87.8200287  27.0423373  11.7138240
  88.0725807  26.5204894  10.9521703  86.8824846  26.8789518  11.8164923
  92.8643569  26.0459151  19.5212983  93.6506659  25.6278574  19.1703400
  93.1282274  26.9505243  19.6894631  93.0353647  31.4832001  14.2201640
  92.3999480  31.5566628  14.9322544  92.7051053  32.0725600  13.5420719
  98.2651997  25.9834384  20.4245961  98.9977168  25.4133601  20.6583791
  97.5091352  25.5955985  20.8652467  87.5396575  28.9451479  13.9162615
  87.4232833  28.2696382  14.5843699  87.6498835  28.4583852  13.0994768
  89.8828116  28.4061626  17.6209304  89.5186323  27.8792247  18.3322225
  90.7395232  28.0160095  17.4475789  95.7877417  19.6955958  24.8840570
  95.4560742  20.5651369  24.6601785  95.1923030  19.3792242  25.5634600
  89.5233603  23.4351525  12.6170652  89.6908006  24.3031762  12.9841123
  89.3330772  23.5978807  11.6931942  92.2808936  31.8968504  24.2836483
  91.9809659  32.7993543  24.1752290  91.9359996  31.6300687  25.1357636
  85.7321418  28.3482301  20.3173187  84.8071914  28.2158515  20.5250879
  85.9805831  29.1276520  20.8143130  95.6806080  24.4151044  21.9633920
  94.7722958  24.3466453  21.6692681  95.6293676  24.8922989  22.7915746
  89.5022824  25.8909183  13.6017319  89.3822449  26.3366234  14.4402799
  88.8075412  26.2394501  13.0430857  83.0930229  27.9915575  21.1516976
  83.2222610  28.2450054  22.0656388  82.4127680  28.5843283  20.8321631
  87.2629716  38.6612825  17.2507450  87.1853746  39.6120650  17.3295931
  86.6591360  38.3158697  17.9082377  89.7546946  25.8340690  29.9068817
  88.9780280  26.3934610  29.8971682  90.3937509  26.3197473  30.4283687
  97.5467727  22.6167483  23.7411794  96.9042107  22.9100016  23.0951589
  97.0422655  22.5020403  24.5464991  95.2007890  26.3630656  14.4297653
  96.1125746  26.5958043  14.2545351  94.6917537  26.9467700  13.8672732
  88.0093318  28.6426143  29.4686784  88.7508003  29.1811187  29.1921608
  87.3030304  29.2692432  29.6258336  93.4848658  30.7855284  28.0658946
  93.8932014  30.3437694  27.3213578  92.7625919  30.2107911  28.3193139
  89.8379728  25.7227891  25.4392503  90.6840923  26.1467304  25.5827152
  89.7778366  25.0661515  26.1331066  93.8077473  31.3456474  21.8211235
  93.1786335  31.5102189  21.1187303  93.4203135  31.7598084  22.5922199
  97.6866704  32.2810912  19.1755598  97.0017743  32.6609814  18.6252632
  97.7710554  32.8906239  19.9087546  92.9879173  23.3832259  27.0973676
  92.7440105  24.1374320  26.5607952  93.2639104  23.7617607  27.9320923
  94.9417636  29.9270871  25.7750942  95.1534531  30.5702631  25.0985323
  94.8947384  29.0933188  25.3072872  92.5443865  22.5388692  22.6787514
  91.6828344  22.8369946  22.9704252  92.5706300  22.7559091  21.7468547
  89.3605434  31.0830883  19.0861320  89.8243780  31.3618586  18.2965942
  89.0962233  30.1814327  18.9034410  86.2529515  30.6302364  22.0241083
  86.8230873  31.0589632  21.3858568  86.8437627  30.3484949  22.7225269
  88.2974320  27.2054035  15.8950885  88.9998364  27.6575079  16.3624811
  87.9654949  26.5637854  16.5230778  86.7454682  25.7965792  30.2702094
  86.1153343  26.4782072  30.5037491  86.6390770  25.6848873  29.3255233
  82.0399654  25.4637588  21.1968018  81.2498708  25.7195116  20.7208129
  82.5310902  26.2785925  21.3020059  96.0563464  32.8042827  23.9473299
  96.8780908  32.4023014  23.6655981  96.0525867  32.7011061  24.8989415
  83.9914400  25.8282167  18.1551495  83.1945563  25.9400861  18.6734991
  83.7639992  26.1668819  17.2892386  89.8220067  32.3526870  26.1034010
  89.8864500  32.8147277  26.9392182  89.1130991  31.7224235  26.2316320
  80.3237357  25.7168078  23.6283009  80.5745396  26.6015088  23.8940585
  80.8596906  25.5372680  22.8558101 104.1469457  29.1481575  20.2958271
 103.3933165  28.5788973  20.1402275 104.2816998  29.1144240  21.2428905
  89.5368085  34.0194978  15.9712990  89.4013760  34.8646513  16.3997838
  90.0777898  34.2214255  15.2078924  86.0235425  20.0986557  32.6327345
  85.6302370  19.5452756  33.3074990  86.8401565  20.4097136  33.0233863
  82.9897483  31.5370416  16.5440915  83.5022003  32.3313666  16.6946480
  83.6420195  30.8396706  16.4774517  84.7992367  34.6536172  18.6263668
  84.9758996  35.5754137  18.4384652  85.5949201  34.3394591  19.0558048
  88.9403386  21.5144436  30.2247602  89.6813099  22.1151590  30.1452064
  89.1721309  20.7722074  29.6665644  84.0844724  26.7000804  28.5025832
  83.9698239  25.7986061  28.8032931  83.2289241  26.9464501  28.1510648
  91.1636561  34.6418544  30.1013332  90.7200416  33.8554923  29.7834237
  91.8253775  34.8297695  29.4357223  85.9223683  36.1714346  24.6274011
  86.4731108  36.0431409  23.8551005  85.0835159  36.4709235  24.2768904
  93.2617800  34.9221344  28.1294733  93.2436275  35.7430225  27.6375003
  94.1837720  34.7975419  28.3544875  89.7190854  32.4365473  28.9718242
  90.2519191  31.6753762  28.7417550  89.1904935  32.1439125  29.7142396
  92.8860549  17.5425539  24.5011884  92.5424818  18.4327181  24.4250994
  93.2539511  17.3527197  23.6381469  80.9546399  29.8659070  17.3200486
  81.7921621  30.2756078  17.1034193  81.1324667  28.9258512  17.2900680
  92.8510831  27.5334151  13.0084319  92.3357455  28.3038755  13.2472706
  92.5788140  26.8599287  13.6317380  90.4357942  22.3783851  18.0669557
  89.5799539  21.9890702  17.8875196  90.8484894  22.4575812  17.2069343
  91.9657089  19.9130195  22.4661117  91.4621885  19.8760330  21.6528922
  92.2587696  20.8222937  22.5257774  88.2099975  19.9968924  21.4727299
  89.0752972  19.8011733  21.1133188  88.2777484  19.7679276  22.3996655
  97.8245106  30.2866505  14.9437492  97.0474548  29.9477665  14.4992654
  98.5036587  30.2919128  14.2692457  92.6397135  25.4061243  14.8344100
  92.3347270  25.7207392  15.6854243  93.5927577  25.4842663  14.8771433
  91.0843566  31.5651466  16.4837054  90.5564928  30.8304226  16.1710291
  90.5831069  32.3426142  16.2377022  96.0636412  29.7600486  21.6004100
  95.4060087  30.4499748  21.6884229  96.8676812  30.1496918  21.9438087
  85.8162294  22.2271132  18.8443665  86.3906046  22.0046314  18.1116858
  86.4033276  22.2959827  19.5972267  94.8741871  28.1144859  19.6508042
  95.3873753  28.7474851  20.1529752  95.5243095  27.5146055  19.2851402
  86.1431881  24.2575593  12.8639551  85.3069193  24.5950280  13.1848825
  86.0036651  24.1224573  11.9266688  88.1184962  19.1012381  17.5718735
  87.4649374  18.7861398  16.9475350  88.0765436  18.4788122  18.2978558
  89.2296167  29.3831676   9.4872027  88.3223228  29.1520930   9.6863176
  89.7267199  28.5869295   9.6746008  92.1364245  38.0929183  12.4068713
  91.4625944  38.3960880  13.0153671  92.5230067  38.8958264  12.0574170
  91.3522702  25.5894315  21.8966382  90.4345263  25.8109262  21.7388071
  91.7682846  25.6640625  21.0378090  92.1357750  26.9885730  17.0269063
  92.8829569  27.5007128  16.7176185  92.4049339  26.6669783  17.8873456
  90.4084400  29.4844271  14.0096017  89.4995619  29.2003304  14.1068487
  90.4379484  29.9043350  13.1499324  95.6403667  33.0950861  17.7787185
  95.1865995  32.2541770  17.8352375  95.0097634  33.7312259  18.1161965
  94.5836587  24.0242847  19.0087852  93.8459344  23.5120233  19.3398095
  94.8363361  23.5843228  18.1971129  94.0836607  34.9327357  18.7137003
  94.3759581  35.4932414  17.9949368  94.5935227  35.2255918  19.4690162
  94.6848214  16.8019099  19.6029621  94.9907091  15.9416462  19.3155536
  95.4100819  17.3936719  19.4028615  80.9772570  27.2049785  17.9911219
  80.7796970  26.6119146  17.2662286  80.4219234  26.9001995  18.7087158
  88.9569294  27.0972892  20.1105812  89.0117904  26.1446728  20.0348289
  88.1460496  27.2532331  20.5947111  90.1060488  31.0253015  11.3484096
  89.6679918  30.3088874  10.8889733  90.8470929  31.2529130  10.7869187
  86.8961654  25.7149951  17.8696191  86.0829520  26.0144122  18.2761383
  87.3920648  25.3205640  18.5870673  89.0470232  35.7107708  19.8030456
  89.0046411  35.9368555  18.8738988  89.9632931  35.4771083  19.9516257
  92.4935866  26.1791776  26.7011085  92.8485253  26.4063249  27.5605551
  93.1407997  26.5110153  26.0788340  98.2233603  29.3010212  17.4060414
  98.0851501  29.4911808  16.4781603  97.8669821  30.0629595  17.8628465
  86.3875729  23.2868307  23.4857426  87.0275108  23.1457066  22.7880389
  85.5553259  23.0002820  23.1096028  98.2502982  31.3686739  22.4171686
  98.6839489  31.2762028  23.2654740  98.9634563  31.3444239  21.7791702
  87.1636033  32.5870737  19.5992419  87.9576631  32.0921058  19.3974994
  86.4527725  32.0588601  19.2360124  91.9830877  34.9688833  23.9504786
  92.0367899  35.5379769  24.7182502  91.1145658  35.1390718  23.5858823
  83.4718796  26.7313819  15.6752171  82.5416384  26.6698275  15.8922133
  83.5676268  26.2089772  14.8788813  83.3904345  23.2568632  18.2630413
  83.6511162  24.1713965  18.1539573  84.2121518  22.7893075  18.4127026
  84.8629271  24.6706389  25.4329237  85.5352324  24.4623751  24.7841886
  84.0359057  24.4728475  24.9934470  99.1118532  31.4110439  24.9504571
  99.3054422  32.3156250  25.1963846  99.0119150  30.9517859  25.7843156
  90.7654843  21.2968330  27.4494898  90.1182758  21.9958280  27.3559375
  91.5355858  21.7304474  27.8171147  94.1733640  31.5617182  30.5245452
  94.0219147  31.3327734  29.6075535  94.1638320  32.5187784  30.5376797
  90.9418977  29.1349095  25.5091718  91.8711037  29.2860255  25.3360685
  90.5210007  29.2233116  24.6540365  89.7407309  33.1599759  23.2790256
  89.6018394  32.7918544  24.1516194  88.9521905  33.6747399  23.1074214
  90.3355461  38.2608856  14.6215792  90.5107216  37.7896899  15.4361415
  89.6488249  38.8874622  14.8497053  91.2912524  32.5381362  20.6679093
  90.9562356  32.4982132  21.5636743  90.7916469  31.8726078  20.1949504
  85.2656768  27.9448992  26.1931675  85.1276566  27.2129231  26.7943214
  86.1761691  27.8557892  25.9115862  94.2271715  29.8837396  10.9416153
  93.6100886  29.1584225  10.8449206  93.7588204  30.6446757  10.5983227
  87.8939068  27.6568951  25.6815354  88.6038687  27.0162144  25.6401973
  87.8508377  27.9081846  26.6041535  95.8825847  34.5936305  28.6021934
  95.8238393  33.9095525  27.9352517  96.2845365  35.3355295  28.1502559
  86.6068002  24.6434169  27.5010994  86.0705359  24.1924908  28.1532590
  86.0184711  24.7780078  26.7581458  84.9016546  41.4098219  21.3955652
  85.1413144  42.0416743  22.0734671  84.0585742  41.0586259  21.6821012
  86.0170261  24.1022821  10.0637457  85.1399728  23.9811621   9.6999704
  86.4928014  23.3108899   9.8116346  95.8843254  32.5575889  26.8335913
  94.9970033  32.2201810  26.9562312  96.4541805  31.8258920  27.0704679
  77.5372401  28.8899980  20.1578965  78.2243441  28.5761710  19.5699980
  77.3820530  29.7941345  19.8846216  82.3407124  23.7790177  24.5863988
  82.2565312  23.1715847  23.8514398  81.5189830  24.2699195  24.5873485
  89.4144408  37.2177341  23.7997156  89.3414579  38.0232313  24.3116461
  88.9721801  37.4169307  22.9745178  89.2034187  36.4549111  17.3099978
  88.4201709  36.9970791  17.4038202  89.9026933  36.9723091  17.7094219
  92.5130838  22.2643741  19.9534183  93.0099537  21.5113703  19.6335254
  91.7417819  22.3008057  19.3877393 100.3660595  27.9684106  21.5952475
 100.3550471  28.8508821  21.2246408  99.4977974  27.6155657  21.4007012
  91.8743091  37.1164175  25.9555315  92.5871063  37.7511640  25.8831217
  91.3833120  37.2128041  25.1395317  93.5960618  31.0215428  17.5272607
  92.6616897  31.1416890  17.3577311  93.7737287  30.1187895  17.2632617
  89.0965806  24.4061124  19.6805868  88.7263594  23.8532164  20.3686774
  89.5924899  23.8019257  19.1280868  96.9833170  26.8632747  18.0622641
  97.4493622  27.6960739  17.9882944  97.4340670  26.3977729  18.7667899
  86.9255005  34.8658619  26.7760886  87.6264464  35.4995101  26.9290280
  86.4550120  35.2073350  26.0156525  95.0509401  33.2076568  15.0608793
  95.3269245  33.0933163  15.9702667  94.1813899  32.8094053  15.0220966
  94.9549832  19.2313334  22.1013542  94.0412912  19.4617561  22.2695749
  95.3842934  19.3151778  22.9527575  94.7256291  27.4203226  24.6013436
  94.0727741  27.6679133  23.9465889  95.1036671  26.6067364  24.2675914
  91.6863465  37.4562919  18.7041607  91.8685859  36.6384575  19.1669359
  92.5096451  37.6730611  18.2666497  92.0205630  36.3831104  15.9656655
  92.5493397  35.8723559  15.3526817  92.2833850  36.0673635  16.8302188
  90.7743864  28.1623037  31.0879473  90.0984501  28.0617166  31.7581849
  91.5971498  28.0062251  31.5515471  82.5222723  34.3994974  23.7091989
  83.1076160  33.6538661  23.8419893  82.3247561  34.7098930  24.5928652
  85.3761378  37.4346221  18.7254431  84.7071753  37.9192349  18.2418471
  85.2374248  37.6815441  19.6397809  77.1140378  26.9700574  22.4296432
  77.1524477  26.4364164  23.2233550  76.6080670  26.4435779  21.8107409
  89.5166647  39.4689964  25.3237089  90.0684955  39.6321586  26.0886175
  89.8572840  40.0594402  24.6517114  84.4931140  21.8165114  25.9258974
  84.5572466  22.6779945  25.5136372  84.4298260  21.2039116  25.1931333
  83.9683412  23.8888247  29.5732008  84.5955451  23.5065324  30.1869533
  83.1111331  23.6702449  29.9387701  94.3677521  34.2951222  31.1785744
  94.9117425  34.9081180  30.6840699  93.7864366  34.8530800  31.6952757
  80.7448955  25.6964676  15.5050363  81.0402396  24.7875354  15.4517417
  79.8436991  25.6752415  15.1831365  92.6535034  37.4171940  22.3100771
  92.5286173  36.6161680  21.8011717  93.3114125  37.9118133  21.8214741
  84.2743202  23.7720673  21.4877912  83.5529788  24.3856640  21.3485385
  85.0636458  24.3078437  21.4094558  94.7169942  35.2180960  23.9380322
  93.7700278  35.0986311  23.8658648  95.0652715  34.3303458  24.0206583
  87.0769516  21.1075099  27.7618563  87.6003918  21.3537396  28.5244873
  86.8581849  21.9395134  27.3421701  82.4736797  23.3778774  15.6289688
  82.1449503  22.4976153  15.4464794  82.8276167  23.3226442  16.5166077
  91.7216376  35.0133676  20.1384674  91.5741338  34.0850384  20.3192244
  92.5469869  35.0353767  19.6541749  85.5878620  23.6651743  15.9965166
  85.9274692  24.1937665  15.2743774  86.0350740  24.0032150  16.7723732
  95.3250497  35.8362235  21.2249547  96.2497045  35.6305096  21.0873998
  95.1565801  35.5878636  22.1338888  88.2822061  22.0488794  25.4468234
  87.9418881  21.2496607  25.8488914  87.5761067  22.3490505  24.8745067
  88.9338533  19.1338107  23.8995557  89.7564602  18.6598585  23.7774447
  89.1776596  19.9128590  24.3994243  87.5746767  22.1626365  14.1958459
  88.2955130  22.5407618  13.6922176  86.9512071  22.8815242  14.2993437
  91.7177890  22.8671514  15.1316791  91.9341504  23.7496152  14.8305619
  91.2371957  22.4757727  14.4022433  86.4577111  25.8257227  21.7087536
  86.3121692  26.1397530  22.6011817  85.9802315  26.4442128  21.1558434
  88.3173494  22.8159775  21.7568425  88.3035063  21.9200868  21.4200723
  89.0345922  22.8230439  22.3906711  90.1699625  23.2497115  23.8021553
  89.9117403  24.1714186  23.8005883  89.6384665  22.8527550  24.4922017
  95.1145814  36.3547902  16.5811638  95.2882691  35.7894325  15.8285490
  95.6074705  37.1548797  16.3991128  80.9322774  28.3662572  24.6475197
  80.3876242  29.1422380  24.7795471  81.8102123  28.7133376  24.4894318
  87.7210390  21.6974155  17.0255995  87.8426301  20.7690802  17.2246883
  87.4312433  21.7112841  16.1134311  90.5901581  19.3829066  20.1622715
  90.6123277  19.4468399  19.2074695  91.0069640  18.5433575  20.3563221
 100.9685205  29.1184325  18.2001938 101.4116351  28.3691651  17.8021061
 100.0911715  29.1094462  17.8175670  96.1020986  35.6714667  13.6808536
  96.7971891  36.2921360  13.8995851  96.4444136  34.8210018  13.9560914
  81.7188795  27.4932468  27.5405354  80.9770531  27.6415103  28.1269984
  81.3981540  27.7540733  26.6772103  98.0012409  33.1214372  15.2095867
  98.5263733  33.4601645  14.4845187  97.9134762  32.1861388  15.0259002
  89.6632458  37.0348446  27.3385744  89.9719584  36.7897593  28.2108443
  90.4607940  37.2395085  26.8504614  89.6853070  39.1886356  19.5691120
  89.2458060  38.6962734  20.2623977  90.4361187  38.6459323  19.3283195
  82.1645409  35.3797897  19.5715748  82.9903429  35.0801668  19.1914392
  81.8139461  34.6105519  20.0205537  87.1326942  34.7324365  21.6413422
  86.5106952  34.0695070  21.3415650  87.8031809  34.7585497  20.9587070
  80.3654014  33.2984223  20.5304682  79.5285922  32.8706397  20.3488683
  80.3377660  33.4916666  21.4675473  87.2051470  23.2106153  31.2345928
  87.2539625  24.0868276  30.8523698  87.7473984  22.6683546  30.6617571
  97.6906315  33.7547276  30.5147065  96.9001859  33.7371415  29.9751564
  97.4539670  34.2935570  31.2696102  97.8104190  30.6039742  27.8279794
  97.8602195  30.4389750  28.7695316  97.7018114  29.7367001  27.4377674
  86.6940449  33.2828288  15.1171882  86.8428569  33.9663753  14.4638555
  87.5006893  33.2633378  15.6321338  95.1007953  26.5870670  29.1439100
  96.0017816  26.4477135  28.8523098  95.1755927  26.7525125  30.0837278
  89.4350758  23.9637525  27.9892287  88.5654068  24.2571091  27.7174875
  89.6710239  24.5477970  28.7099550  99.3122387  33.0236684  28.0721815
  99.0207196  33.3866665  28.9085276  98.6994519  32.3103692  27.8935147
 100.5118070  30.5889564  20.5924385 101.3464961  31.0279368  20.7561946
 100.6477198  30.1128217  19.7732631  97.5609576  28.1469299  26.5401873
  98.0363697  28.3396945  25.7320724  96.6375141  28.2028484  26.2945257
  84.4493082  29.3093466  16.1232951  84.2039124  28.4055796  16.3213161
  84.6188997  29.3110616  15.1812429  92.1389792  20.1817142  25.5057707
  92.6571736  20.9178169  25.1804196  91.7844925  20.4881135  26.3404466
  83.7188730  25.0421823  13.6219113  83.0257975  25.1166178  12.9659149
  83.4740482  24.2782167  14.1440630  92.3902386  16.6017425  21.0258604
  92.6704140  15.9340614  21.6519030  93.1752993  16.7946520  20.5133267
  90.1935855  35.7776419  12.5883630  89.6209822  36.3966606  12.1354102
  90.7668648  36.3275780  13.1223552  96.2611245  25.0235059  24.7730179
  97.2128667  25.1233156  24.7942403  96.0914695  24.2313327  25.2828263
  94.2825624  22.1090642  24.9589580  93.6875556  22.3895655  24.2636068
  93.9975321  22.5984543  25.7306321  93.4133114  36.0613569  13.7192212
  94.3463788  35.9959130  13.9225088  93.3256327  36.8969836  13.2606745
  96.0421131  35.3779439  10.6796160  95.9634763  35.0439303  11.5731918
  96.8630798  35.8701207  10.6787632  98.7399322  28.2441178  23.8872478
  98.7075642  27.3057179  24.0732162  99.3499946  28.3225215  23.1538303
  90.5782653  27.1137231   9.9299682  91.5241758  26.9843439   9.9988100
  90.1996898  26.3751893  10.4069111  98.8893811  25.0352222  23.9330762
  98.3732859  24.2510678  23.7460690  99.7733759  24.7070938  24.0977281
  96.5504538  18.7793237  19.8926574  96.3529359  18.4708326  20.7769906
  97.1604243  19.5054876  20.0224504 104.5575872  29.3057185  23.0278515
 105.2879261  29.0442473  23.5886218 103.9482818  28.5685907  23.0680583
 102.6391169  27.4465048  23.6252966 101.9124333  27.3121013  23.0169458
 102.2238456  27.7541876  24.4309684  90.4621346  31.1654977  31.3900339
  91.3824355  31.3433576  31.5840386  90.4270929  30.2211023  31.2380039
  88.7625570  25.0387208   9.8654568  87.8557026  24.7420320   9.9417281
  89.0401551  24.7417026   8.9988854  79.6803511  26.3593571  20.3153614
  79.3606295  25.5058879  20.0227988  79.1336939  26.5742149  21.0711581
  83.4583418  29.0756012  24.0323120  83.6769428  30.0073120  24.0511154
  83.8709192  28.7163987  24.8177924  90.3787636  19.5824097  16.0198809
  89.5688364  19.2371182  16.3954055  91.0672053  19.2731641  16.6086420
  92.3078184  18.6602144  17.6423106  92.8609223  19.0797598  18.3013129
  92.5448271  17.7337892  17.6846062  88.3311284  24.6489218  33.4225869
  88.2308010  25.5983575  33.3537961  88.1132826  24.3207457  32.5501940
  87.5324355  21.8974143  10.0066547  88.3943519  22.2229041  10.2662364
  87.7174699  21.1105639   9.4939613  79.5491771  29.9796483  22.2846736
  78.8555242  29.5650435  21.7716690  80.2964762  30.0217019  21.6880154
  95.6856991  20.7702669  17.1501770  95.1055660  21.4287473  16.7679822
  95.4192924  19.9480014  16.7389187  94.1360558  20.1707727  19.3523090
  94.6360336  20.2824262  18.5437409  94.7796166  19.8668780  19.9923899
  88.1942554  28.0786357  32.2390931  87.7109635  28.8786717  32.4454820
  88.2803493  28.0894302  31.2858375  81.4628513  29.9114736  20.1612750
  81.4399201  30.0102424  19.2094634  81.7729150  30.7579887  20.4829917
  84.1215891  31.9690891  24.2759365  85.0759145  31.9374834  24.2089296
  83.9228415  31.5081515  25.0909591  84.7115273  30.5392007  26.8430163
  85.5308162  31.0336086  26.8665000  84.9852081  29.6223976  26.8147730
  94.4681869  22.9302760  16.2058118  93.5807724  23.2152410  15.9878313
  94.8835858  22.7696523  15.3585395  97.8196406  22.9549281  19.9212457
  98.5956796  23.4445733  20.1937074  97.0944540  23.3807335  20.3784327
 100.2568964  23.6676900  20.9786398 100.8513455  23.4272636  20.2679706
 100.3295548  22.9484031  21.6059934  82.4766120  37.5110511  21.2929563
  82.3420588  36.7510912  20.7267561  82.0598182  38.2351411  20.8258352
  93.6125083  32.6947434  10.3006138  94.3160933  32.8997437  10.9163794
  92.8887732  33.2624196  10.5655222  94.4422893  28.4457296  16.4208408
  94.3858095  28.9025847  15.5816041  94.9951236  27.6847980  16.2431251
  98.2527699  24.2347028  17.2458528  97.9964633  23.8343663  18.0766735
  97.6280567  24.9490822  17.1208667 102.5640037  26.9743101  19.7529819
 102.0039595  27.0436290  20.5261381 101.9583540  26.7984085  19.0329315
  85.6335246  38.4079828  21.5048005  85.5167630  39.3525260  21.4026696
  84.8127692  38.1053390  21.8933805  95.5211780  33.1329964  12.3504598
  96.3557384  32.7011162  12.1682073  95.3596123  32.9611977  13.2781493
  95.1757672  29.6362077  13.7160937  95.1206476  29.4706348  12.7749381
  94.5503728  30.3438110  13.8723127  79.9650187  24.8730141  27.5422360
  80.6109051  24.3629095  28.0309585  79.7567339  25.6098823  28.1165785
  92.4903580  31.9410989  33.0414500  93.3594739  32.1151641  32.6801135
  92.0110331  32.7605406  32.9190229  88.4853798  19.1370186  13.2946256
  88.4732468  20.0812026  13.4514527  89.3777220  18.9540331  13.0005717
  86.6589760  39.0608090  24.7203934  87.5617007  39.0931700  25.0370429
  86.4327130  38.1308541  24.7350270  88.4143362  37.8139076  21.3814012
  87.4638993  37.8140938  21.2678385  88.7175848  37.0671811  20.8650047
  92.3005917  15.7312963  17.5492193  91.5338313  15.1771449  17.6948875
  92.7116622  15.8034831  18.4106344  84.3047678  22.0197758  31.6397374
  85.1679140  21.6634563  31.8500698  83.7313089  21.6811653  32.3272778
 104.1496055  43.6499615  22.4459775 104.7874465  43.5306362  21.7423115
 104.0316898  44.5980459  22.5047727 100.9585762  43.6027043  22.3821300
 100.6204273  43.4868108  21.4941834 101.8275530  43.2018208  22.3622306
  96.8172577  45.4562519  18.3718190  96.2537442  45.3652456  17.6034478
  96.7024972  44.6362424  18.8520683 101.4405545  44.7561895  28.3407505
 101.4294185  44.3614693  27.4688009 101.6026184  44.0227967  28.9341276
  94.3637009  46.9513711  21.2102411  95.1558301  46.6104536  20.7948710
  94.6033659  47.0608686  22.1304564 102.3972136  49.1233487  13.6832655
 101.7460116  49.7087567  13.2966669 103.1916499  49.6539682  13.7427693
  96.3227763  46.2122624  14.0819790  97.0958639  45.6651611  13.9432666
  96.6753162  47.0766873  14.2934251  98.1612806  47.5399006  27.2886689
  97.8702672  48.4444637  27.1733355  98.7969790  47.5815534  28.0030759
  99.0869013  44.9175855  23.8788049  99.6832585  44.6931877  23.1645012
  99.1443984  44.1760600  24.4813497  98.6594041  42.3715290  11.7138240
  98.9119562  41.8496812  10.9521703  97.7218600  42.2081436  11.8164923
 103.7037324  41.3751069  19.5212983 104.4900413  40.9570492  19.1703400
 103.9676028  42.2797161  19.6894631 103.8747401  46.8123919  14.2201640
 103.2393234  46.8858545  14.9322544 103.5444808  47.4017518  13.5420719
 109.1045751  41.3126302  20.4245961 109.8370923  40.7425519  20.6583791
 108.3485107  40.9247902  20.8652467  98.3790330  44.2743396  13.9162615
  98.2626588  43.5988300  14.5843699  98.4892590  43.7875770  13.0994768
 100.7221871  43.7353543  17.6209304 100.3580078  43.2084164  18.3322225
 101.5788987  43.3452012  17.4475789 106.6271171  35.0247876  24.8840570
 106.2954496  35.8943287  24.6601785 106.0316785  34.7084160  25.5634600
 100.3627358  38.7643443  12.6170652 100.5301760  39.6323679  12.9841123
 100.1724527  38.9270725  11.6931942 103.1202691  47.2260422  24.2836483
 102.8203414  48.1285461  24.1752290 102.7753750  46.9592605  25.1357636
  96.5715172  43.6774219  20.3173187  95.6465669  43.5450433  20.5250879
  96.8199586  44.4568438  20.8143130 106.5199835  39.7442962  21.9633920
 105.6116712  39.6758371  21.6692681 106.4687430  40.2214907  22.7915746
 100.3416579  41.2201101  13.6017319 100.2216204  41.6658151  14.4402799
  99.6469167  41.5686418  13.0430857  93.9323983  43.3207492  21.1516976
  94.0616365  43.5741971  22.0656388  93.2521435  43.9135200  20.8321631
  98.1023471  53.9904742  17.2507450  98.0247500  54.9412567  17.3295931
  97.4985114  53.6450615  17.9082377 100.5940700  41.1632608  29.9068817
  99.8174035  41.7226528  29.8971682 101.2331264  41.6489391  30.4283687
 108.3861481  37.9459401  23.7411794 107.7435861  38.2391934  23.0951589
 107.8816410  37.8312321  24.5464991 106.0401645  41.6922574  14.4297653
 106.9519501  41.9249960  14.2545351 105.5311292  42.2759618  13.8672732
  98.8487073  43.9718061  29.4686784  99.5901757  44.5103105  29.1921608
  98.1424058  44.5984350  29.6258336 104.3242412  46.1147202  28.0658946
 104.7325768  45.6729612  27.3213578 103.6019674  45.5399829  28.3193139
 100.6773482  41.0519808  25.4392503 101.5234678  41.4759222  25.5827152
 100.6172120  40.3953433  26.1331066 104.6471227  46.6748392  21.8211235
 104.0180089  46.8394106  21.1187303 104.2596889  47.0890002  22.5922199
 108.5260459  47.6102830  19.1755598 107.8411497  47.9901731  18.6252632
 108.6104308  48.2198157  19.9087546 103.8272928  38.7124177  27.0973676
 103.5833860  39.4666237  26.5607952 104.1032858  39.0909524  27.9320923
 105.7811391  45.2562789  25.7750942 105.9928286  45.8994549  25.0985323
 105.7341139  44.4225106  25.3072872 103.3837620  37.8680610  22.6787514
 102.5222099  38.1661863  22.9704252 103.4100054  38.0851009  21.7468547
 100.1999189  46.4122800  19.0861320 100.6637534  46.6910503  18.2965942
  99.9355987  45.5106245  18.9034410  97.0923270  45.9594282  22.0241083
  97.6624627  46.3881550  21.3858568  97.6831382  45.6776866  22.7225269
  99.1368075  42.5345953  15.8950885  99.8392118  42.9866996  16.3624811
  98.8048703  41.8929771  16.5230778  97.5848437  41.1257709  30.2702094
  96.9547097  41.8073990  30.5037491  97.4784524  41.0140791  29.3255233
  92.8793409  40.7929505  21.1968018  92.0892463  41.0487034  20.7208129
  93.3704656  41.6077843  21.3020059 106.8957218  48.1334744  23.9473299
 107.7174662  47.7314932  23.6655981 106.8919621  48.0302979  24.8989415
  94.8308154  41.1574085  18.1551495  94.0339318  41.2692779  18.6734991
  94.6033747  41.4960737  17.2892386 100.6613822  47.6818788  26.1034010
 100.7258254  48.1439195  26.9392182  99.9524746  47.0516153  26.2316320
  91.1631112  41.0459996  23.6283009  91.4139150  41.9307006  23.8940585
  91.6990660  40.8664597  22.8558101 114.9863212  44.4773493  20.2958271
 114.2326920  43.9080891  20.1402275 115.1210753  44.4436157  21.2428905
 100.3761840  49.3486895  15.9712990 100.2407514  50.1938431  16.3997838
 100.9171652  49.5506173  15.2078924  96.8629179  35.4278475  32.6327345
  96.4696125  34.8744674  33.3074990  97.6795320  35.7389054  33.0233863
  93.8291237  46.8662333  16.5440915  94.3415758  47.6605584  16.6946480
  94.4813950  46.1688624  16.4774517  95.6386122  49.9828090  18.6263668
  95.8152750  50.9046054  18.4384652  96.4342955  49.6686509  19.0558048
  99.7797140  36.8436354  30.2247602 100.5206854  37.4443507  30.1452064
 100.0115063  36.1013992  29.6665644  94.9238478  42.0292721  28.5025832
  94.8091993  41.1277979  28.8032931  94.0682996  42.2756418  28.1510648
 102.0030316  49.9710462  30.1013332 101.5594170  49.1846840  29.7834237
 102.6647530  50.1589612  29.4357223  96.7617437  51.5006263  24.6274011
  97.3124862  51.3723327  23.8551005  95.9228913  51.8001152  24.2768904
 104.1011554  50.2513262  28.1294733 104.0830029  51.0722143  27.6375003
 105.0231474  50.1267337  28.3544875 100.5584608  47.7657391  28.9718242
 101.0912945  47.0045679  28.7417550 100.0298689  47.4731043  29.7142396
 103.7254303  32.8717457  24.5011884 103.3818573  33.7619099  24.4250994
 104.0933266  32.6819115  23.6381469  91.7940154  45.1950988  17.3200486
  92.6315376  45.6047996  17.1034193  91.9718421  44.2550430  17.2900680
 103.6904586  42.8626068  13.0084319 103.1751209  43.6330673  13.2472706
 103.4181894  42.1891204  13.6317380 101.2751697  37.7075769  18.0669557
 100.4193293  37.3182619  17.8875196 101.6878649  37.7867730  17.2069343
 102.8050844  35.2422112  22.4661117 102.3015639  35.2052247  21.6528922
 103.0981450  36.1514855  22.5257774  99.0493729  35.3260842  21.4727299
  99.9146726  35.1303651  21.1133188  99.1171238  35.0971194  22.3996655
 108.6638860  45.6158423  14.9437492 107.8868303  45.2769582  14.4992654
 109.3430341  45.6211046  14.2692457 103.4790889  40.7353160  14.8344100
 103.1741025  41.0499309  15.6854243 104.4321331  40.8134580  14.8771433
 101.9237321  46.8943384  16.4837054 101.3958682  46.1596143  16.1710291
 101.4224824  47.6718060  16.2377022 106.9030167  45.0892404  21.6004100
 106.2453841  45.7791666  21.6884229 107.7070566  45.4788836  21.9438087
  96.6556049  37.5563050  18.8443665  97.2299800  37.3338231  18.1116858
  97.2427031  37.6251744  19.5972267 105.7135626  43.4436777  19.6508042
 106.2267507  44.0766769  20.1529752 106.3636850  42.8437972  19.2851402
  96.9825636  39.5867511  12.8639551  96.1462948  39.9242197  13.1848825
  96.8430405  39.4516491  11.9266688  98.9578716  34.4304299  17.5718735
  98.3043129  34.1153316  16.9475350  98.9159190  33.8080039  18.2978558
 100.0689921  44.7123594   9.4872027  99.1616983  44.4812847   9.6863176
 100.5660953  43.9161213   9.6746008 102.9758000  53.4221101  12.4068713
 102.3019699  53.7252798  13.0153671 103.3623822  54.2250181  12.0574170
 102.1916457  40.9186232  21.8966382 101.2739018  41.1401179  21.7388071
 102.6076600  40.9932543  21.0378090 102.9751504  42.3177648  17.0269063
 103.7223323  42.8299045  16.7176185 103.2443094  41.9961701  17.8873456
 101.2478155  44.8136189  14.0096017 100.3389374  44.5295222  14.1068487
 101.2773238  45.2335267  13.1499324 106.4797422  48.4242778  17.7787185
 106.0259749  47.5833688  17.8352375 105.8491389  49.0604177  18.1161965
 105.4230342  39.3534764  19.0087852 104.6853098  38.8412150  19.3398095
 105.6757115  38.9135146  18.1971129 104.9230361  50.2619275  18.7137003
 105.2153336  50.8224332  17.9949368 105.4328982  50.5547836  19.4690162
 105.5241969  32.1311016  19.6029621 105.8300846  31.2708380  19.3155536
 106.2494574  32.7228636  19.4028615  91.8166325  42.5341703  17.9911219
  91.6190725  41.9411064  17.2662286  91.2612989  42.2293913  18.7087158
  99.7963049  42.4264809  20.1105812  99.8511658  41.4738646  20.0348289
  98.9854251  42.5824248  20.5947111 100.9454242  46.3544932  11.3484096
 100.5073672  45.6380791  10.8889733 101.6864683  46.5821047  10.7869187
  97.7355408  41.0441869  17.8696191  96.9223274  41.3436040  18.2761383
  98.2314403  40.6497558  18.5870673  99.8863986  51.0399626  19.8030456
  99.8440165  51.2660472  18.8738988 100.8026685  50.8063001  19.9516257
 103.3329620  41.5083694  26.7011085 103.6879008  41.7355167  27.5605551
 103.9801751  41.8402070  26.0788340 109.0627357  44.6302129  17.4060414
 108.9245256  44.8203725  16.4781603 108.7063576  45.3921512  17.8628465
  97.2269483  38.6160225  23.4857426  97.8668863  38.4748984  22.7880389
  96.3947014  38.3294738  23.1096028 109.0896737  46.6978656  22.4171686
 109.5233243  46.6053946  23.2654740 109.8028317  46.6736157  21.7791702
  98.0029787  47.9162655  19.5992419  98.7970386  47.4212975  19.3974994
  97.2921480  47.3880518  19.2360124 102.8224632  50.2980751  23.9504786
 102.8761654  50.8671687  24.7182502 101.9539413  50.4682636  23.5858823
  94.3112551  42.0605737  15.6752171  93.3810139  41.9990192  15.8922133
  94.4070023  41.5381690  14.8788813  94.2298100  38.5860550  18.2630413
  94.4904917  39.5005883  18.1539573  95.0515272  38.1184992  18.4127026
  95.7023025  39.9998307  25.4329237  96.3746078  39.7915669  24.7841886
  94.8752812  39.8020393  24.9934470 109.9512286  46.7402357  24.9504571
 110.1448176  47.6448168  25.1963846 109.8512904  46.2809776  25.7843156
 101.6048597  36.6260248  27.4494898 100.9576512  37.3250197  27.3559375
 102.3749612  37.0596392  27.8171147 105.0127395  46.8909100  30.5245452
 104.8612901  46.6619652  29.6075535 105.0032074  47.8479701  30.5376797
 101.7812731  44.4641013  25.5091718 102.7104791  44.6152172  25.3360685
 101.3603761  44.5525033  24.6540365 100.5801063  48.4891677  23.2790256
 100.4412149  48.1210461  24.1516194  99.7915659  49.0039316  23.1074214
 101.1749215  53.5900774  14.6215792 101.3500971  53.1188817  15.4361415
 100.4882003  54.2166540  14.8497053 102.1306278  47.8673280  20.6679093
 101.7956111  47.8274050  21.5636743 101.6310224  47.2017996  20.1949504
  96.1050522  43.2740910  26.1931675  95.9670320  42.5421149  26.7943214
  97.0155446  43.1849810  25.9115862 105.0665470  45.2129314  10.9416153
 104.4494641  44.4876142  10.8449206 104.5981958  45.9738674  10.5983227
  98.7332823  42.9860869  25.6815354  99.4432441  42.3454061  25.6401973
  98.6902131  43.2373764  26.6041535 106.7219602  49.9228222  28.6021934
 106.6632148  49.2387443  27.9352517 107.1239120  50.6647212  28.1502559
  97.4461757  39.9726087  27.5010994  96.9099114  39.5216825  28.1532590
  96.8578465  40.1071996  26.7581458  95.7410300  56.7390136  21.3955652
  95.9806899  57.3708660  22.0734671  94.8979497  56.3878176  21.6821012
  96.8564016  39.4314738  10.0637457  95.9793482  39.3103539   9.6999704
  97.3321769  38.6400817   9.8116346 106.7237009  47.8867806  26.8335913
 105.8363788  47.5493728  26.9562312 107.2935560  47.1550838  27.0704679
  88.3766156  44.2191898  20.1578965  89.0637196  43.9053628  19.5699980
  88.2214285  45.1233263  19.8846216  93.1800878  39.1082095  24.5863988
  93.0959067  38.5007764  23.8514398  92.3583585  39.5991113  24.5873485
 100.2538162  52.5469259  23.7997156 100.1808334  53.3524230  24.3116461
  99.8115555  52.7461225  22.9745178 100.0427942  51.7841029  17.3099978
  99.2595464  52.3262709  17.4038202 100.7420687  52.3015008  17.7094219
 103.3524592  37.5935658  19.9534183 103.8493292  36.8405621  19.6335254
 102.5811574  37.6299975  19.3877393 111.2054349  43.2976024  21.5952475
 111.1944226  44.1800739  21.2246408 110.3371729  42.9447575  21.4007012
 102.7136846  52.4456093  25.9555315 103.4264818  53.0803558  25.8831217
 102.2226874  52.5419959  25.1395317 104.4354373  46.3507345  17.5272607
 103.5010651  46.4708808  17.3577311 104.6131041  45.4479812  17.2632617
  99.9359561  39.7353041  19.6805868  99.5657348  39.1824082  20.3686774
 100.4318653  39.1311175  19.1280868 107.8226924  42.1924665  18.0622641
 108.2887376  43.0252656  17.9882944 108.2734425  41.7269646  18.7667899
  97.7648759  50.1950536  26.7760886  98.4658219  50.8287019  26.9290280
  97.2943874  50.5365268  26.0156525 105.8903155  48.5368486  15.0608793
 106.1662999  48.4225081  15.9702667 105.0207654  48.1385971  15.0220966
 105.7943587  34.5605252  22.1013542 104.8806667  34.7909479  22.2695749
 106.2236688  34.6443696  22.9527575 105.5650045  42.7495144  24.6013436
 104.9121496  42.9971051  23.9465889 105.9430425  41.9359282  24.2675914
 102.5257219  52.7854837  18.7041607 102.7079614  51.9676493  19.1669359
 103.3490205  53.0022529  18.2666497 102.8599385  51.7123022  15.9656655
 103.3887151  51.2015477  15.3526817 103.1227604  51.3965552  16.8302188
 101.6137618  43.4914955  31.0879473 100.9378255  43.3909084  31.7581849
 102.4365252  43.3354168  31.5515471  93.3616477  49.7286891  23.7091989
  93.9469914  48.9830579  23.8419893  93.1641316  50.0390848  24.5928652
  96.2155133  52.7638139  18.7254431  95.5465508  53.2484266  18.2418471
  96.0768002  53.0107359  19.6397809  87.9534132  42.2992491  22.4296432
  87.9918232  41.7656082  23.2233550  87.4474425  41.7727697  21.8107409
 100.3560401  54.7981882  25.3237089 100.9078709  54.9613504  26.0886175
 100.6966595  55.3886320  24.6517114  95.3324894  37.1457032  25.9258974
  95.3966221  38.0071863  25.5136372  95.2692015  36.5331034  25.1931333
  94.8077167  39.2180165  29.5732008  95.4349206  38.8357242  30.1869533
  93.9505086  38.9994366  29.9387701 105.2071276  49.6243140  31.1785744
 105.7511179  50.2373098  30.6840699 104.6258120  50.1822718  31.6952757
  91.5842710  41.0256594  15.5050363  91.8796151  40.1167272  15.4517417
  90.6830745  41.0044333  15.1831365 103.4928788  52.7463858  22.3100771
 103.3679928  51.9453598  21.8011717 104.1507880  53.2410051  21.8214741
  95.1136957  39.1012590  21.4877912  94.3923542  39.7148558  21.3485385
  95.9030212  39.6370355  21.4094558 105.5563697  50.5472878  23.9380322
 104.6094032  50.4278229  23.8658648 105.9046470  49.6595376  24.0206583
  97.9163270  36.4367017  27.7618563  98.4397672  36.6829313  28.5244873
  97.6975603  37.2687052  27.3421701  93.3130551  38.7070691  15.6289688
  92.9843257  37.8268070  15.4464794  93.6669922  38.6518360  16.5166077
 102.5610130  50.3425594  20.1384674 102.4135093  49.4142301  20.3192244
 103.3863624  50.3645685  19.6541749  96.4272374  38.9943661  15.9965166
  96.7668447  39.5229582  15.2743774  96.8744495  39.3324067  16.7723732
 106.1644252  51.1654153  21.2249547 107.0890799  50.9597014  21.0873998
 105.9959555  50.9170554  22.1338888  99.1215815  37.3780712  25.4468234
  98.7812636  36.5788525  25.8488914  98.4154822  37.6782423  24.8745067
  99.7732287  34.4630024  23.8995557 100.5958356  33.9890502  23.7774447
 100.0170351  35.2420508  24.3994243  98.4140522  37.4918283  14.1958459
  99.1348884  37.8699535  13.6922176  97.7905826  38.2107159  14.2993437
 102.5571644  38.1963432  15.1316791 102.7735259  39.0788070  14.8305619
 102.0765712  37.8049645  14.4022433  97.2970866  41.1549145  21.7087536
  97.1515447  41.4689448  22.6011817  96.8196069  41.7734045  21.1558434
  99.1567249  38.1451693  21.7568425  99.1428817  37.2492786  21.4200723
  99.8739677  38.1522357  22.3906711 101.0093379  38.5789033  23.8021553
 100.7511157  39.5006104  23.8005883 100.4778420  38.1819468  24.4922017
 105.9539568  51.6839820  16.5811638 106.1276446  51.1186243  15.8285490
 106.4468459  52.4840715  16.3991128  91.7716528  43.6954489  24.6475197
  91.2269996  44.4714297  24.7795471  92.6495878  44.0425294  24.4894318
  98.5604145  37.0266073  17.0255995  98.6820056  36.0982719  17.2246883
  98.2706187  37.0404759  16.1134311 101.4295335  34.7120984  20.1622715
 101.4517032  34.7760317  19.2074695 101.8463394  33.8725492  20.3563221
 111.8078959  44.4476243  18.2001938 112.2510105  43.6983568  17.8021061
 110.9305470  44.4386379  17.8175670 106.9414741  51.0006585  13.6808536
 107.6365645  51.6213277  13.8995851 107.2837891  50.1501936  13.9560914
  92.5582550  42.8224386  27.5405354  91.8164286  42.9707021  28.1269984
  92.2375294  43.0832651  26.6772103 108.8406164  48.4506290  15.2095867
 109.3657488  48.7893563  14.4845187 108.7528516  47.5153305  15.0259002
 100.5026213  52.3640364  27.3385744 100.8113339  52.1189511  28.2108443
 101.3001695  52.5687002  26.8504614 100.5246825  54.5178273  19.5691120
 100.0851815  54.0254652  20.2623977 101.2754942  53.9751241  19.3283195
  93.0039164  50.7089814  19.5715748  93.8297183  50.4093586  19.1914392
  92.6533216  49.9397437  20.0205537  97.9720697  50.0616282  21.6413422
  97.3500706  49.3986987  21.3415650  98.6425564  50.0877414  20.9587070
  91.2047769  48.6276141  20.5304682  90.3679677  48.1998315  20.3488683
  91.1771414  48.8208584  21.4675473  98.0445224  38.5398070  31.2345928
  98.0933380  39.4160193  30.8523698  98.5867738  37.9975464  30.6617571
 108.5300070  49.0839194  30.5147065 107.7395614  49.0663333  29.9751564
 108.2933424  49.6227487  31.2696102 108.6497945  45.9331660  27.8279794
 108.6995950  45.7681668  28.7695316 108.5411868  45.0658919  27.4377674
  97.5334204  48.6120206  15.1171882  97.6822324  49.2955670  14.4638555
  98.3400647  48.5925296  15.6321338 105.9401707  41.9162588  29.1439100
 106.8411570  41.7769053  28.8523098 106.0149682  42.0817043  30.0837278
 100.2744513  39.2929443  27.9892287  99.4047822  39.5863009  27.7174875
 100.5103993  39.8769888  28.7099550 110.1516142  48.3528602  28.0721815
 109.8600950  48.7158582  28.9085276 109.5388273  47.6395610  27.8935147
 111.3511824  45.9181481  20.5924385 112.1858715  46.3571285  20.7561946
 111.4870953  45.4420135  19.7732631 108.4003330  43.4761216  26.5401873
 108.8757452  43.6688863  25.7320724 107.4768895  43.5320402  26.2945257
  95.2886837  44.6385383  16.1232951  95.0432879  43.7347713  16.3213161
  95.4582751  44.6402534  15.1812429 102.9783546  35.5109060  25.5057707
 103.4965490  36.2470087  25.1804196 102.6238679  35.8173053  26.3404466
  94.5582484  40.3713741  13.6219113  93.8651729  40.4458096  12.9659149
  94.3134236  39.6074085  14.1440630 103.2296141  31.9309342  21.0258604
 103.5097894  31.2632531  21.6519030 104.0146748  32.1238438  20.5133267
 101.0329609  51.1068336  12.5883630 100.4603576  51.7258523  12.1354102
 101.6062403  51.6567698  13.1223552 107.1004999  40.3526976  24.7730179
 108.0522422  40.4525074  24.7942403 106.9308449  39.5605245  25.2828263
 105.1219378  37.4382560  24.9589580 104.5269311  37.7187572  24.2636068
 104.8369075  37.9276460  25.7306321 104.2526869  51.3905486  13.7192212
 105.1857542  51.3251048  13.9225088 104.1650082  52.2261753  13.2606745
 106.8814886  50.7071357  10.6796160 106.8028517  50.3731220  11.5731918
 107.7024552  51.1993125  10.6787632 109.5793077  43.5733096  23.8872478
 109.5469397  42.6349097  24.0732162 110.1893700  43.6517133  23.1538303
 101.4176408  42.4429149   9.9299682 102.3635512  42.3135357   9.9988100
 101.0390653  41.7043811  10.4069111 109.7287565  40.3644139  23.9330762
 109.2126614  39.5802596  23.7460690 110.6127514  40.0362856  24.0977281
 107.3898292  34.1085155  19.8926574 107.1923113  33.8000243  20.7769906
 107.9997998  34.8346794  20.0224504 115.3969627  44.6349103  23.0278515
 116.1273015  44.3734391  23.5886218 114.7876572  43.8977825  23.0680583
 113.4784924  42.7756965  23.6252966 112.7518087  42.6412930  23.0169458
 113.0632211  43.0833794  24.4309684 101.3015100  46.4946895  31.3900339
 102.2218110  46.6725494  31.5840386 101.2664683  45.5502941  31.2380039
  99.6019325  40.3679125   9.8654568  98.6950780  40.0712238   9.9417281
  99.8795306  40.0708943   8.9988854  90.5197265  41.6885489  20.3153614
  90.2000050  40.8350797  20.0227988  89.9730693  41.9034067  21.0711581
  94.2977173  44.4047930  24.0323120  94.5163183  45.3365038  24.0511154
  94.7102947  44.0455904  24.8177924 101.2181391  34.9116015  16.0198809
 100.4082119  34.5663100  16.3954055 101.9065807  34.6023559  16.6086420
 103.1471939  33.9894062  17.6423106 103.7002977  34.4089515  18.3013129
 103.3842025  33.0629810  17.6846062  99.1705038  39.9781136  33.4225869
  99.0701765  40.9275493  33.3537961  98.9526580  39.6499374  32.5501940
  98.3718109  37.2266061  10.0066547  99.2337273  37.5520959  10.2662364
  98.5568454  36.4397557   9.4939613  90.3885525  45.3088400  22.2846736
  89.6948997  44.8942353  21.7716690  91.1358516  45.3508937  21.6880154
 106.5250746  36.0994587  17.1501770 105.9449415  36.7579391  16.7679822
 106.2586679  35.2771932  16.7389187 104.9754312  35.4999645  19.3523090
 105.4754091  35.6116179  18.5437409 105.6189920  35.1960698  19.9923899
  99.0336308  43.4078274  32.2390931  98.5503390  44.2078635  32.4454820
  99.1197247  43.4186219  31.2858375  92.3022268  45.2406654  20.1612750
  92.2792956  45.3394341  19.2094634  92.6122904  46.0871805  20.4829917
  94.9609646  47.2982809  24.2759365  95.9152899  47.2666751  24.2089296
  94.7622169  46.8373433  25.0909591  95.5509028  45.8683925  26.8430163
  96.3701917  46.3628004  26.8665000  95.8245835  44.9515893  26.8147730
 105.3075624  38.2594677  16.2058118 104.4201479  38.5444328  15.9878313
 105.7229613  38.0988441  15.3585395 108.6590160  38.2841198  19.9212457
 109.4350550  38.7737651  20.1937074 107.9338294  38.7099253  20.3784327
 111.0962719  38.9968818  20.9786398 111.6907209  38.7564554  20.2679706
 111.1689302  38.2775948  21.6059934  93.3159874  52.8402429  21.2929563
  93.1814342  52.0802829  20.7267561  92.8991937  53.5643328  20.8258352
 104.4518837  48.0239352  10.3006138 105.1554688  48.2289355  10.9163794
 103.7281486  48.5916114  10.5655222 105.2816648  43.7749213  16.4208408
 105.2251849  44.2317765  15.5816041 105.8344990  43.0139898  16.2431251
 109.0921454  39.5638945  17.2458528 108.8358388  39.1635581  18.0766735
 108.4674322  40.2782739  17.1208667 113.4033791  42.3035019  19.7529819
 112.8433349  42.3728208  20.5261381 112.7977295  42.1276003  19.0329315
  96.4729000  53.7371746  21.5048005  96.3561384  54.6817178  21.4026696
  95.6521447  53.4345307  21.8933805 106.3605535  48.4621881  12.3504598
 107.1951139  48.0303080  12.1682073 106.1989878  48.2903895  13.2781493
 106.0151427  44.9653995  13.7160937 105.9600231  44.7998266  12.7749381
 105.3897482  45.6730028  13.8723127  90.8043942  40.2022059  27.5422360
  91.4502806  39.6921013  28.0309585  90.5961093  40.9390741  28.1165785
 103.3297334  47.2702907  33.0414500 104.1988494  47.4443559  32.6801135
 102.8504086  48.0897323  32.9190229  99.3247552  34.4662104  13.2946256
  99.3126222  35.4103944  13.4514527 100.2170974  34.2832249  13.0005717
  97.4983514  54.3900008  24.7203934  98.4010761  54.4223618  25.0370429
  97.2720884  53.4600458  24.7350270  99.2537116  53.1430994  21.3814012
  98.3032747  53.1432856  21.2678385  99.5569603  52.3963729  20.8650047
 103.1399672  31.0604880  17.5492193 102.3732068  30.5063367  17.6948875
 103.5510377  31.1326749  18.4106344  95.1441433  37.3489676  31.6397374
  96.0072895  36.9926481  31.8500698  94.5706844  37.0103571  32.3272778
 114.9889810  58.9791532  22.4459775 115.6268220  58.8598280  21.7423115
 114.8710653  59.9272376  22.5047727 111.7979516  58.9318961  22.3821300
 111.4598028  58.8160025  21.4941834 112.6669284  58.5310126  22.3622306
 107.6566332  60.7854437  18.3718190 107.0931197  60.6944374  17.6034478
 107.5418727  59.9654341  18.8520683 112.2799299  60.0853812  28.3407505
 112.2687940  59.6906611  27.4688009 112.4419939  59.3519885  28.9341276
 105.2030764  62.2805629  21.2102411 105.9952056  61.9396453  20.7948710
 105.4427414  62.3900604  22.1304564 113.2365891  64.4525405  13.6832655
 112.5853870  65.0379485  13.2966669 114.0310253  64.9831600  13.7427693
 107.1621518  61.5414542  14.0819790 107.9352394  60.9943529  13.9432666
 107.5146917  62.4058791  14.2934251 109.0006560  62.8690924  27.2886689
 108.7096426  63.7736555  27.1733355 109.6363545  62.9107452  28.0030759
 109.9262767  60.2467773  23.8788049 110.5226339  60.0223795  23.1645012
 109.9837739  59.5052518  24.4813497 109.4987796  57.7007208  11.7138240
 109.7513316  57.1788729  10.9521703 108.5612355  57.5373353  11.8164923
 114.5431078  56.7042986  19.5212983 115.3294168  56.2862409  19.1703400
 114.8069783  57.6089078  19.6894631 114.7141156  62.1415837  14.2201640
 114.0786989  62.2150463  14.9322544 114.3838562  62.7309435  13.5420719
 119.9439505  56.6418220  20.4245961 120.6764677  56.0717436  20.6583791
 119.1878861  56.2539820  20.8652467 109.2184084  59.6035314  13.9162615
 109.1020342  58.9280217  14.5843699 109.3286344  59.1167688  13.0994768
 111.5615625  59.0645461  17.6209304 111.1973832  58.5376082  18.3322225
 112.4182741  58.6743930  17.4475789 117.4664926  50.3539794  24.8840570
 117.1348251  51.2235205  24.6601785 116.8710539  50.0376078  25.5634600
 111.2021112  54.0935361  12.6170652 111.3695515  54.9615597  12.9841123
 111.0118281  54.2562642  11.6931942 113.9596445  62.5552340  24.2836483
 113.6597168  63.4577378  24.1752290 113.6147505  62.2884523  25.1357636
 107.4108927  59.0066136  20.3173187 106.4859423  58.8742351  20.5250879
 107.6593340  59.7860356  20.8143130 117.3593589  55.0734880  21.9633920
 116.4510467  55.0050288  21.6692681 117.3081185  55.5506825  22.7915746
 111.1810333  56.5493018  13.6017319 111.0609958  56.9950069  14.4402799
 110.4862921  56.8978336  13.0430857 104.7717738  58.6499410  21.1516976
 104.9010119  58.9033889  22.0656388 104.0915189  59.2427118  20.8321631
 108.9417225  69.3196660  17.2507450 108.8641255  70.2704485  17.3295931
 108.3378869  68.9742532  17.9082377 111.4334455  56.4924525  29.9068817
 110.6567789  57.0518446  29.8971682 112.0725018  56.9781308  30.4283687
 119.2255236  53.2751318  23.7411794 118.5829616  53.5683851  23.0951589
 118.7210164  53.1604239  24.5464991 116.8795399  57.0214491  14.4297653
 117.7913255  57.2541878  14.2545351 116.3705046  57.6051536  13.8672732
 109.6880827  59.3009979  29.4686784 110.4295512  59.8395023  29.1921608
 108.9817813  59.9276267  29.6258336 115.1636167  61.4439119  28.0658946
 115.5719523  61.0021530  27.3213578 114.4413428  60.8691747  28.3193139
 111.5167237  56.3811726  25.4392503 112.3628432  56.8051140  25.5827152
 111.4565875  55.7245350  26.1331066 115.4864982  62.0040310  21.8211235
 114.8573844  62.1686024  21.1187303 115.0990644  62.4181919  22.5922199
 119.3654213  62.9394748  19.1755598 118.6805252  63.3193649  18.6252632
 119.4498063  63.5490074  19.9087546 114.6666682  54.0416094  27.0973676
 114.4227614  54.7958155  26.5607952 114.9426613  54.4201442  27.9320923
 116.6205145  60.5854707  25.7750942 116.8322040  61.2286467  25.0985323
 116.5734893  59.7517023  25.3072872 114.2231374  53.1972527  22.6787514
 113.3615853  53.4953781  22.9704252 114.2493809  53.4142926  21.7468547
 111.0392943  61.7414718  19.0861320 111.5031289  62.0202421  18.2965942
 110.7749742  60.8398162  18.9034410 107.9317024  61.2886199  22.0241083
 108.5018382  61.7173468  21.3858568 108.5225136  61.0068784  22.7225269
 109.9761829  57.8637870  15.8950885 110.6785873  58.3158914  16.3624811
 109.6442458  57.2221689  16.5230778 108.4242191  56.4549627  30.2702094
 107.7940852  57.1365908  30.5037491 108.3178279  56.3432709  29.3255233
 103.7187163  56.1221423  21.1968018 102.9286217  56.3778951  20.7208129
 104.2098411  56.9369761  21.3020059 117.7350973  63.4626662  23.9473299
 118.5568417  63.0606849  23.6655981 117.7313376  63.3594896  24.8989415
 105.6701909  56.4866002  18.1551495 104.8733072  56.5984696  18.6734991
 105.4427501  56.8252654  17.2892386 111.5007576  63.0110705  26.1034010
 111.5652009  63.4731113  26.9392182 110.7918500  62.3808070  26.2316320
 102.0024866  56.3751913  23.6283009 102.2532905  57.2598923  23.8940585
 102.5384415  56.1956515  22.8558101 125.8256966  59.8065411  20.2958271
 125.0720674  59.2372809  20.1402275 125.9604507  59.7728075  21.2428905
 111.2155594  64.6778813  15.9712990 111.0801269  65.5230349  16.3997838
 111.7565407  64.8798091  15.2078924 107.7022934  50.7570393  32.6327345
 107.3089879  50.2036591  33.3074990 108.5189074  51.0680971  33.0233863
 104.6684991  62.1954251  16.5440915 105.1809512  62.9897501  16.6946480
 105.3207704  61.4980541  16.4774517 106.4779876  65.3120007  18.6263668
 106.6546505  66.2337972  18.4384652 107.2736710  64.9978426  19.0558048
 110.6190895  52.1728272  30.2247602 111.3600608  52.7735425  30.1452064
 110.8508818  51.4305910  29.6665644 105.7632233  57.3584639  28.5025832
 105.6485748  56.4569896  28.8032931 104.9076750  57.6048336  28.1510648
 112.8424070  65.3002379  30.1013332 112.3987925  64.5138758  29.7834237
 113.5041284  65.4881530  29.4357223 107.6011192  66.8298181  24.6274011
 108.1518617  66.7015244  23.8551005 106.7622668  67.1293070  24.2768904
 114.9405309  65.5805179  28.1294733 114.9223784  66.4014060  27.6375003
 115.8625229  65.4559255  28.3544875 111.3978363  63.0949309  28.9718242
 111.9306699  62.3337597  28.7417550 110.8692444  62.8022961  29.7142396
 114.5648058  48.2009375  24.5011884 114.2212327  49.0911016  24.4250994
 114.9327020  48.0111032  23.6381469 102.6333908  60.5242905  17.3200486
 103.4709130  60.9339914  17.1034193 102.8112176  59.5842347  17.2900680
 114.5298340  58.1917986  13.0084319 114.0144964  58.9622591  13.2472706
 114.2575649  57.5183122  13.6317380 112.1145451  53.0367687  18.0669557
 111.2587048  52.6474537  17.8875196 112.5272403  53.1159647  17.2069343
 113.6444598  50.5714030  22.4661117 113.1409394  50.5344165  21.6528922
 113.9375205  51.4806773  22.5257774 109.8887484  50.6552760  21.4727299
 110.7540481  50.4595568  21.1133188 109.9564993  50.4263111  22.3996655
 119.5032615  60.9450341  14.9437492 118.7262057  60.6061500  14.4992654
 120.1824095  60.9502964  14.2692457 114.3184644  56.0645078  14.8344100
 114.0134779  56.3791227  15.6854243 115.2715086  56.1426498  14.8771433
 112.7631075  62.2235301  16.4837054 112.2352437  61.4888061  16.1710291
 112.2618578  63.0009978  16.2377022 117.7423921  60.4184322  21.6004100
 117.0847596  61.1083583  21.6884229 118.5464321  60.8080754  21.9438087
 107.4949803  52.8854968  18.8443665 108.0693555  52.6630149  18.1116858
 108.0820785  52.9543662  19.5972267 116.5529380  58.7728694  19.6508042
 117.0661262  59.4058686  20.1529752 117.2030604  58.1729890  19.2851402
 107.8219390  54.9159429  12.8639551 106.9856702  55.2534115  13.1848825
 107.6824160  54.7808408  11.9266688 109.7972471  49.7596216  17.5718735
 109.1436883  49.4445234  16.9475350 109.7552945  49.1371957  18.2978558
 110.9083676  60.0415512   9.4872027 110.0010737  59.8104765   9.6863176
 111.4054708  59.2453131   9.6746008 113.8151754  68.7513019  12.4068713
 113.1413453  69.0544716  13.0153671 114.2017576  69.5542099  12.0574170
 113.0310211  56.2478150  21.8966382 112.1132772  56.4693097  21.7388071
 113.4470355  56.3224461  21.0378090 113.8145259  57.6469566  17.0269063
 114.5617078  58.1590963  16.7176185 114.0836848  57.3253618  17.8873456
 112.0871909  60.1428106  14.0096017 111.1783128  59.8587139  14.1068487
 112.1166993  60.5627185  13.1499324 117.3191176  63.7534696  17.7787185
 116.8653504  62.9125606  17.8352375 116.6885143  64.3896094  18.1161965
 116.2624096  54.6826682  19.0087852 115.5246853  54.1704068  19.3398095
 116.5150870  54.2427064  18.1971129 115.7624116  65.5911193  18.7137003
 116.0547090  66.1516250  17.9949368 116.2722736  65.8839754  19.4690162
 116.3635723  47.4602934  19.6029621 116.6694600  46.6000297  19.3155536
 117.0888328  48.0520554  19.4028615 102.6560079  57.8633621  17.9911219
 102.4584479  57.2702981  17.2662286 102.1006743  57.5585831  18.7087158
 110.6356803  57.7556727  20.1105812 110.6905413  56.8030563  20.0348289
 109.8248005  57.9116166  20.5947111 111.7847997  61.6836850  11.3484096
 111.3467427  60.9672709  10.8889733 112.5258438  61.9112965  10.7869187
 108.5749163  56.3733787  17.8696191 107.7617029  56.6727957  18.2761383
 109.0708157  55.9789476  18.5870673 110.7257741  66.3691544  19.8030456
 110.6833920  66.5952390  18.8738988 111.6420440  66.1354918  19.9516257
 114.1723375  56.8375611  26.7011085 114.5272762  57.0647084  27.5605551
 114.8195506  57.1693988  26.0788340 119.9021112  59.9594047  17.4060414
 119.7639010  60.1495643  16.4781603 119.5457330  60.7213430  17.8628465
 108.0663238  53.9452142  23.4857426 108.7062617  53.8040901  22.7880389
 107.2340768  53.6586656  23.1096028 119.9290491  62.0270574  22.4171686
 120.3626998  61.9345863  23.2654740 120.6422072  62.0028075  21.7791702
 108.8423542  63.2454573  19.5992419 109.6364140  62.7504893  19.3974994
 108.1315234  62.7172436  19.2360124 113.6618386  65.6272668  23.9504786
 113.7155408  66.1963605  24.7182502 112.7933167  65.7974553  23.5858823
 105.1506305  57.3897654  15.6752171 104.2203893  57.3282110  15.8922133
 105.2463777  56.8673607  14.8788813 105.0691854  53.9152467  18.2630413
 105.3298671  54.8297801  18.1539573 105.8909026  53.4476910  18.4127026
 106.5416779  55.3290224  25.4329237 107.2139833  55.1207587  24.7841886
 105.7146566  55.1312310  24.9934470 120.7906041  62.0694275  24.9504571
 120.9841931  62.9740085  25.1963846 120.6906659  61.6101694  25.7843156
 112.4442351  51.9552165  27.4494898 111.7970267  52.6542115  27.3559375
 113.2143367  52.3888309  27.8171147 115.8521149  62.2201018  30.5245452
 115.7006656  61.9911569  29.6075535 115.8425829  63.1771619  30.5376797
 112.6206486  59.7932930  25.5091718 113.5498546  59.9444090  25.3360685
 112.1997516  59.8816951  24.6540365 111.4194818  63.8183595  23.2790256
 111.2805903  63.4502379  24.1516194 110.6309414  64.3331234  23.1074214
 112.0142970  68.9192691  14.6215792 112.1894725  68.4480734  15.4361415
 111.3275758  69.5458457  14.8497053 112.9700033  63.1965197  20.6679093
 112.6349865  63.1565967  21.5636743 112.4703978  62.5309913  20.1949504
 106.9444277  58.6032827  26.1931675 106.8064075  57.8713066  26.7943214
 107.8549200  58.5141728  25.9115862 115.9059224  60.5421232  10.9416153
 115.2888395  59.8168060  10.8449206 115.4375713  61.3030592  10.5983227
 109.5726577  58.3152787  25.6815354 110.2826196  57.6745979  25.6401973
 109.5295886  58.5665682  26.6041535 117.5613356  65.2520140  28.6021934
 117.5025902  64.5679360  27.9352517 117.9632874  65.9939130  28.1502559
 108.2855511  55.3018005  27.5010994 107.7492868  54.8508743  28.1532590
 107.6972220  55.4363913  26.7581458 106.5804055  72.0682054  21.3955652
 106.8200653  72.7000578  22.0734671 105.7373251  71.7170094  21.6821012
 107.6957770  54.7606656  10.0637457 106.8187237  54.6395457   9.6999704
 108.1715523  53.9692734   9.8116346 117.5630763  63.2159724  26.8335913
 116.6757542  62.8785646  26.9562312 118.1329314  62.4842755  27.0704679
  99.2159910  59.5483816  20.1578965  99.9030950  59.2345546  19.5699980
  99.0608039  60.4525180  19.8846216 104.0194633  54.4374012  24.5863988
 103.9352821  53.8299682  23.8514398 103.1977339  54.9283031  24.5873485
 111.0931917  67.8761176  23.7997156 111.0202088  68.6816148  24.3116461
 110.6509310  68.0753142  22.9745178 110.8821696  67.1132946  17.3099978
 110.0989218  67.6554627  17.4038202 111.5814442  67.6306926  17.7094219
 114.1918346  52.9227576  19.9534183 114.6887046  52.1697538  19.6335254
 113.4205328  52.9591893  19.3877393 122.0448104  58.6267941  21.5952475
 122.0337980  59.5092657  21.2246408 121.1765483  58.2739492  21.4007012
 113.5530600  67.7748010  25.9555315 114.2658572  68.4095475  25.8831217
 113.0620629  67.8711876  25.1395317 115.2748127  61.6799263  17.5272607
 114.3404406  61.8000726  17.3577311 115.4524796  60.7771730  17.2632617
 110.7753315  55.0644959  19.6805868 110.4051103  54.5115999  20.3686774
 111.2712408  54.4603092  19.1280868 118.6620679  57.5216582  18.0622641
 119.1281131  58.3544574  17.9882944 119.1128179  57.0561564  18.7667899
 108.6042514  65.5242454  26.7760886 109.3051973  66.1578937  26.9290280
 108.1337629  65.8657185  26.0156525 116.7296910  63.8660404  15.0608793
 117.0056754  63.7516998  15.9702667 115.8601408  63.4677889  15.0220966
 116.6337341  49.8897169  22.1013542 115.7200421  50.1201396  22.2695749
 117.0630443  49.9735613  22.9527575 116.4043800  58.0787061  24.6013436
 115.7515250  58.3262969  23.9465889 116.7824180  57.2651200  24.2675914
 113.3650974  68.1146755  18.7041607 113.5473368  67.2968410  19.1669359
 114.1883960  68.3314447  18.2666497 113.6993139  67.0414940  15.9656655
 114.2280906  66.5307394  15.3526817 113.9621359  66.7257470  16.8302188
 112.4531373  58.8206872  31.0879473 111.7772010  58.7201002  31.7581849
 113.2759007  58.6646086  31.5515471 104.2010232  65.0578809  23.7091989
 104.7863669  64.3122497  23.8419893 104.0035070  65.3682766  24.5928652
 107.0548887  68.0930056  18.7254431 106.3859262  68.5776184  18.2418471
 106.9161757  68.3399277  19.6397809  98.7927887  57.6284409  22.4296432
  98.8311986  57.0948000  23.2233550  98.2868179  57.1019615  21.8107409
 111.1954156  70.1273800  25.3237089 111.7472464  70.2905421  26.0886175
 111.5360349  70.7178238  24.6517114 106.1718649  52.4748950  25.9258974
 106.2359975  53.3363781  25.5136372 106.1085769  51.8622951  25.1931333
 105.6470921  54.5472082  29.5732008 106.2742960  54.1649160  30.1869533
 104.7898840  54.3286284  29.9387701 116.0465030  64.9535057  31.1785744
 116.5904934  65.5665016  30.6840699 115.4651875  65.5114636  31.6952757
 102.4236464  56.3548511  15.5050363 102.7189905  55.4459190  15.4517417
 101.5224500  56.3336251  15.1831365 114.3322543  68.0755775  22.3100771
 114.2073682  67.2745515  21.8011717 114.9901634  68.5701969  21.8214741
 105.9530711  54.4304508  21.4877912 105.2317297  55.0440476  21.3485385
 106.7423967  54.9662273  21.4094558 116.3957451  65.8764795  23.9380322
 115.4487787  65.7570147  23.8658648 116.7440224  64.9887293  24.0206583
 108.7557025  51.7658934  27.7618563 109.2791427  52.0121231  28.5244873
 108.5369358  52.5978969  27.3421701 104.1524306  54.0362609  15.6289688
 103.8237012  53.1559988  15.4464794 104.5063676  53.9810278  16.5166077
 113.4003885  65.6717512  20.1384674 113.2528847  64.7434219  20.3192244
 114.2257378  65.6937602  19.6541749 107.2666129  54.3235579  15.9965166
 107.6062201  54.8521500  15.2743774 107.7138249  54.6615985  16.7723732
 117.0038006  66.4946070  21.2249547 117.9284554  66.2888932  21.0873998
 116.8353310  66.2462472  22.1338888 109.9609570  52.7072629  25.4468234
 109.6206390  51.9080443  25.8488914 109.2548576  53.0074340  24.8745067
 110.6126042  49.7921942  23.8995557 111.4352111  49.3182420  23.7774447
 110.8564105  50.5712426  24.3994243 109.2534276  52.8210200  14.1958459
 109.9742639  53.1991453  13.6922176 108.6299580  53.5399077  14.2993437
 113.3965399  53.5255349  15.1316791 113.6129013  54.4079987  14.8305619
 112.9159466  53.1341563  14.4022433 108.1364620  56.4841063  21.7087536
 107.9909201  56.7981366  22.6011817 107.6589824  57.1025963  21.1558434
 109.9961003  53.4743611  21.7568425 109.9822572  52.5784704  21.4200723
 110.7133431  53.4814274  22.3906711 111.8487134  53.9080951  23.8021553
 111.5904912  54.8298021  23.8005883 111.3172174  53.5111385  24.4922017
 116.7933323  67.0131738  16.5811638 116.9670200  66.4478160  15.8285490
 117.2862214  67.8132633  16.3991128 102.6110282  59.0246407  24.6475197
 102.0663751  59.8006215  24.7795471 103.4889632  59.3717211  24.4894318
 109.3997899  52.3557991  17.0255995 109.5213810  51.4274637  17.2246883
 109.1099942  52.3696677  16.1134311 112.2689090  50.0412901  20.1622715
 112.2910786  50.1052234  19.2074695 112.6857149  49.2017410  20.3563221
 122.6472714  59.7768161  18.2001938 123.0903860  59.0275486  17.8021061
 121.7699224  59.7678297  17.8175670 117.7808495  66.3298502  13.6808536
 118.4759400  66.9505195  13.8995851 118.1231645  65.4793853  13.9560914
 103.3976304  58.1516303  27.5405354 102.6558040  58.2998939  28.1269984
 103.0769049  58.4124569  26.6772103 119.6799918  63.7798208  15.2095867
 120.2051242  64.1185481  14.4845187 119.5922271  62.8445223  15.0259002
 111.3419967  67.6932281  27.3385744 111.6507093  67.4481428  28.2108443
 112.1395449  67.8978920  26.8504614 111.3640579  69.8470191  19.5691120
 110.9245569  69.3546570  20.2623977 112.1148696  69.3043159  19.3283195
 103.8432918  66.0381732  19.5715748 104.6690938  65.7385504  19.1914392
 103.4926970  65.2689354  20.0205537 108.8114451  65.3908200  21.6413422
 108.1894460  64.7278905  21.3415650 109.4819318  65.4169332  20.9587070
 102.0441523  63.9568058  20.5304682 101.2073431  63.5290233  20.3488683
 102.0165169  64.1500502  21.4675473 108.8838979  53.8689988  31.2345928
 108.9327134  54.7452111  30.8523698 109.4261493  53.3267381  30.6617571
 119.3693824  64.4131111  30.5147065 118.5789368  64.3955250  29.9751564
 119.1327179  64.9519405  31.2696102 119.4891699  61.2623578  27.8279794
 119.5389704  61.0973585  28.7695316 119.3805623  60.3950837  27.4377674
 108.3727958  63.9412123  15.1171882 108.5216078  64.6247588  14.4638555
 109.1794402  63.9217214  15.6321338 116.7795462  57.2454506  29.1439100
 117.6805325  57.1060971  28.8523098 116.8543436  57.4108961  30.0837278
 111.1138267  54.6221361  27.9892287 110.2441577  54.9154927  27.7174875
 111.3497747  55.2061806  28.7099550 120.9909896  63.6820519  28.0721815
 120.6994705  64.0450500  28.9085276 120.3782028  62.9687528  27.8935147
 122.1905579  61.2473399  20.5924385 123.0252470  61.6863203  20.7561946
 122.3264707  60.7712052  19.7732631 119.2397084  58.8053134  26.5401873
 119.7151206  58.9980780  25.7320724 118.3162650  58.8612320  26.2945257
 106.1280591  59.9677301  16.1232951 105.8826633  59.0639631  16.3213161
 106.2976506  59.9694452  15.1812429 113.8177301  50.8400978  25.5057707
 114.3359245  51.5762004  25.1804196 113.4632434  51.1464971  26.3404466
 105.3976239  55.7005659  13.6219113 104.7045484  55.7750014  12.9659149
 105.1527991  54.9366002  14.1440630 114.0689895  47.2601260  21.0258604
 114.3491649  46.5924449  21.6519030 114.8540502  47.4530356  20.5133267
 111.8723364  66.4360254  12.5883630 111.2997331  67.0550441  12.1354102
 112.4456157  66.9859616  13.1223552 117.9398753  55.6818894  24.7730179
 118.8916176  55.7816992  24.7942403 117.7702204  54.8897163  25.2828263
 115.9613133  52.7674477  24.9589580 115.3663065  53.0479490  24.2636068
 115.6762830  53.2568378  25.7306321 115.0920623  66.7197404  13.7192212
 116.0251297  66.6542966  13.9225088 115.0043836  67.5553671  13.2606745
 117.7208640  66.0363274  10.6796160 117.6422272  65.7023138  11.5731918
 118.5418307  66.5285042  10.6787632 120.4186831  58.9025014  23.8872478
 120.3863151  57.9641014  24.0732162 121.0287455  58.9809050  23.1538303
 112.2570162  57.7721067   9.9299682 113.2029267  57.6427275   9.9988100
 111.8784407  57.0335729  10.4069111 120.5681320  55.6936057  23.9330762
 120.0520368  54.9094514  23.7460690 121.4521268  55.3654774  24.0977281
 118.2292047  49.4377073  19.8926574 118.0316868  49.1292161  20.7769906
 118.8391752  50.1638712  20.0224504 126.2363381  59.9641021  23.0278515
 126.9666770  59.7026309  23.5886218 125.6270327  59.2269743  23.0680583
 124.3178678  58.1048883  23.6252966 123.5911842  57.9704848  23.0169458
 123.9025965  58.4125712  24.4309684 112.1408855  61.8238813  31.3900339
 113.0611864  62.0017412  31.5840386 112.1058438  60.8794858  31.2380039
 110.4413079  55.6971043   9.8654568 109.5344535  55.4004156   9.9417281
 110.7189060  55.4000861   8.9988854 101.3591020  57.0177406  20.3153614
 101.0393804  56.1642715  20.0227988 100.8124448  57.2325985  21.0711581
 105.1370927  59.7339847  24.0323120 105.3556937  60.6656955  24.0511154
 105.5496701  59.3747822  24.8177924 112.0575145  50.2407933  16.0198809
 111.2475873  49.8955018  16.3954055 112.7459562  49.9315477  16.6086420
 113.9865693  49.3185980  17.6423106 114.5396732  49.7381433  18.3013129
 114.2235780  48.3921728  17.6846062 110.0098793  55.3073053  33.4225869
 109.9095519  56.2567410  33.3537961 109.7920335  54.9791292  32.5501940
 109.2111864  52.5557978  10.0066547 110.0731028  52.8812877  10.2662364
 109.3962208  51.7689474   9.4939613 101.2279280  60.6380318  22.2846736
 100.5342751  60.2234271  21.7716690 101.9752271  60.6800854  21.6880154
 117.3644500  51.4286505  17.1501770 116.7843169  52.0871309  16.7679822
 117.0980433  50.6063849  16.7389187 115.8148067  50.8291562  19.3523090
 116.3147845  50.9408097  18.5437409 116.4583675  50.5252615  19.9923899
 109.8730063  58.7370192  32.2390931 109.3897144  59.5370552  32.4454820
 109.9591002  58.7478137  31.2858375 103.1416022  60.5698572  20.1612750
 103.1186710  60.6686259  19.2094634 103.4516659  61.4163723  20.4829917
 105.8003400  62.6274727  24.2759365 106.7546654  62.5958669  24.2089296
 105.6015924  62.1665351  25.0909591 106.3902782  61.1975843  26.8430163
 107.2095671  61.6919922  26.8665000 106.6639590  60.2807811  26.8147730
 116.1469378  53.5886595  16.2058118 115.2595233  53.8736246  15.9878313
 116.5623367  53.4280359  15.3585395 119.4983915  53.6133116  19.9212457
 120.2744305  54.1029569  20.1937074 118.7732049  54.0391170  20.3784327
 121.9356473  54.3260735  20.9786398 122.5300964  54.0856471  20.2679706
 122.0083057  53.6067866  21.6059934 104.1553629  68.1694346  21.2929563
 104.0208097  67.4094747  20.7267561 103.7385691  68.8935246  20.8258352
 115.2912592  63.3531270  10.3006138 115.9948442  63.5581272  10.9163794
 114.5675241  63.9208032  10.5655222 116.1210402  59.1041131  16.4208408
 116.0645604  59.5609683  15.5816041 116.6738745  58.3431816  16.2431251
 119.9315208  54.8930863  17.2458528 119.6752142  54.4927499  18.0766735
 119.3068076  55.6074657  17.1208667 124.2427546  57.6326936  19.7529819
 123.6827104  57.7020126  20.5261381 123.6371049  57.4567921  19.0329315
 107.3122755  69.0663663  21.5048005 107.1955139  70.0109096  21.4026696
 106.4915201  68.7637225  21.8933805 117.1999289  63.7913799  12.3504598
 118.0344893  63.3594997  12.1682073 117.0383632  63.6195813  13.2781493
 116.8545181  60.2945912  13.7160937 116.7993985  60.1290184  12.7749381
 116.2291237  61.0021945  13.8723127 101.6437696  55.5313977  27.5422360
 102.2896560  55.0212931  28.0309585 101.4354848  56.2682658  28.1165785
 114.1691089  62.5994824  33.0414500 115.0382248  62.7735476  32.6801135
 113.6897840  63.4189241  32.9190229 110.1641307  49.7954021  13.2946256
 110.1519977  50.7395861  13.4514527 111.0564729  49.6124167  13.0005717
 108.3377269  69.7191925  24.7203934 109.2404516  69.7515535  25.0370429
 108.1114639  68.7892376  24.7350270 110.0930871  68.4722912  21.3814012
 109.1426502  68.4724773  21.2678385 110.3963357  67.7255646  20.8650047
 113.9793426  46.3896798  17.5492193 113.2125822  45.8355285  17.6948875
 114.3904131  46.4618667  18.4106344 105.9835187  52.6781594  31.6397374
 106.8466649  52.3218399  31.8500698 105.4100598  52.3395489  32.3272778
 125.8283564  74.3083450  22.4459775 126.4661974  74.1890197  21.7423115
 125.7104407  75.2564294  22.5047727 122.6373271  74.2610878  22.3821300
 122.2991782  74.1451943  21.4941834 123.5063039  73.8602043  22.3622306
 118.4960086  76.1146355  18.3718190 117.9324951  76.0236292  17.6034478
 118.3812481  75.2946259  18.8520683 123.1193054  75.4145730  28.3407505
 123.1081694  75.0198528  27.4688009 123.2813693  74.6811803  28.9341276
 116.0424518  77.6097546  21.2102411 116.8345810  77.2688371  20.7948710
 116.2821168  77.7192521  22.1304564 124.0759645  79.7817322  13.6832655
 123.4247625  80.3671403  13.2966669 124.8704008  80.3123517  13.7427693
 118.0015272  76.8706459  14.0819790 118.7746148  76.3235447  13.9432666
 118.3540671  77.7350709  14.2934251 119.8400315  78.1982842  27.2886689
 119.5490181  79.1028473  27.1733355 120.4757299  78.2399369  28.0030759
 120.7656522  75.5759690  23.8788049 121.3620094  75.3515713  23.1645012
 120.8231493  74.8344436  24.4813497 120.3381550  73.0299126  11.7138240
 120.5907071  72.5080647  10.9521703 119.4006109  72.8665271  11.8164923
 125.3824833  72.0334904  19.5212983 126.1687922  71.6154327  19.1703400
 125.6463537  72.9380996  19.6894631 125.5534910  77.4707754  14.2201640
 124.9180743  77.5442381  14.9322544 125.2232317  78.0601353  13.5420719
 130.7833260  71.9710137  20.4245961 131.5158432  71.4009354  20.6583791
 130.0272616  71.5831738  20.8652467 120.0577839  74.9327232  13.9162615
 119.9414097  74.2572135  14.5843699 120.1680099  74.4459606  13.0994768
 122.4009380  74.3937379  17.6209304 122.0367587  73.8668000  18.3322225
 123.2576496  74.0035848  17.4475789 128.3058680  65.6831711  24.8840570
 127.9742005  66.5527122  24.6601785 127.7104294  65.3667995  25.5634600
 122.0414867  69.4227278  12.6170652 122.2089269  70.2907515  12.9841123
 121.8512036  69.5854560  11.6931942 124.7990200  77.8844257  24.2836483
 124.4990923  78.7869296  24.1752290 124.4541259  77.6176440  25.1357636
 118.2502681  74.3358054  20.3173187 117.3253178  74.2034268  20.5250879
 118.4987095  75.1152273  20.8143130 128.1987344  70.4026797  21.9633920
 127.2904221  70.3342206  21.6692681 128.1474939  70.8798742  22.7915746
 122.0204088  71.8784936  13.6017319 121.9003713  72.3241987  14.4402799
 121.3256676  72.2270254  13.0430857 115.6111492  73.9791328  21.1516976
 115.7403874  74.2325807  22.0656388 114.9308944  74.5719036  20.8321631
 119.7810980  84.6488578  17.2507450 119.7035009  85.5996403  17.3295931
 119.1772623  84.3034450  17.9082377 122.2728209  71.8216443  29.9068817
 121.4961543  72.3810363  29.8971682 122.9118772  72.3073226  30.4283687
 130.0648990  68.6043236  23.7411794 129.4223370  68.8975769  23.0951589
 129.5603919  68.4896156  24.5464991 127.7189154  72.3506409  14.4297653
 128.6307010  72.5833796  14.2545351 127.2098801  72.9343453  13.8672732
 120.5274582  74.6301896  29.4686784 121.2689266  75.1686940  29.1921608
 119.8211567  75.2568185  29.6258336 126.0029921  76.7731037  28.0658946
 126.4113277  76.3313447  27.3213578 125.2807183  76.1983664  28.3193139
 122.3560991  71.7103644  25.4392503 123.2022187  72.1343057  25.5827152
 122.2959629  71.0537268  26.1331066 126.3258736  77.3332227  21.8211235
 125.6967598  77.4977942  21.1187303 125.9384398  77.7473837  22.5922199
 130.2047968  78.2686665  19.1755598 129.5199006  78.6485567  18.6252632
 130.2891817  78.8781992  19.9087546 125.5060437  69.3708012  27.0973676
 125.2621369  70.1250073  26.5607952 125.7820367  69.7493360  27.9320923
 127.4598900  75.9146624  25.7750942 127.6715795  76.5578384  25.0985323
 127.4128648  75.0808941  25.3072872 125.0625128  68.5264445  22.6787514
 124.2009608  68.8245699  22.9704252 125.0887563  68.7434844  21.7468547
 121.8786698  77.0706636  19.0861320 122.3425043  77.3494339  18.2965942
 121.6143496  76.1690080  18.9034410 118.7710779  76.6178117  22.0241083
 119.3412136  77.0465386  21.3858568 119.3618891  76.3360702  22.7225269
 120.8155584  73.1929788  15.8950885 121.5179627  73.6450832  16.3624811
 120.4836212  72.5513607  16.5230778 119.2635945  71.7841545  30.2702094
 118.6334606  72.4657825  30.5037491 119.1572033  71.6724626  29.3255233
 114.5580918  71.4513341  21.1968018 113.7679972  71.7070869  20.7208129
 115.0492165  72.2661678  21.3020059 128.5744727  78.7918580  23.9473299
 129.3962171  78.3898767  23.6655981 128.5707130  78.6886814  24.8989415
 116.5095663  71.8157920  18.1551495 115.7126827  71.9276614  18.6734991
 116.2821255  72.1544572  17.2892386 122.3401331  78.3402623  26.1034010
 122.4045763  78.8023030  26.9392182 121.6312255  77.7099988  26.2316320
 112.8418621  71.7043831  23.6283009 113.0926659  72.5890841  23.8940585
 113.3778169  71.5248433  22.8558101 136.6650721  75.1357328  20.2958271
 135.9114429  74.5664726  20.1402275 136.7998262  75.1019993  21.2428905
 122.0549349  80.0070731  15.9712990 121.9195023  80.8522266  16.3997838
 122.5959161  80.2090008  15.2078924 118.5416688  66.0862310  32.6327345
 118.1483634  65.5328509  33.3074990 119.3582829  66.3972889  33.0233863
 115.5078746  77.5246169  16.5440915 116.0203267  78.3189419  16.6946480
 116.1601459  76.8272459  16.4774517 117.3173631  80.6411925  18.6263668
 117.4940259  81.5629890  18.4384652 118.1130464  80.3270344  19.0558048
 121.4584649  67.5020190  30.2247602 122.1994363  68.1027343  30.1452064
 121.6902572  66.7597827  29.6665644 116.6025987  72.6876557  28.5025832
 116.4879502  71.7861814  28.8032931 115.7470505  72.9340254  28.1510648
 123.6817825  80.6294297  30.1013332 123.2381679  79.8430676  29.7834237
 124.3435039  80.8173448  29.4357223 118.4404946  82.1590099  24.6274011
 118.9912371  82.0307162  23.8551005 117.6016422  82.4584988  24.2768904
 125.7799063  80.9097097  28.1294733 125.7617538  81.7305978  27.6375003
 126.7018983  80.7851172  28.3544875 122.2372117  78.4241227  28.9718242
 122.7700454  77.6629515  28.7417550 121.7086198  78.1314878  29.7142396
 125.4041812  63.5301292  24.5011884 125.0606082  64.4202934  24.4250994
 125.7720775  63.3402950  23.6381469 113.4727663  75.8534823  17.3200486
 114.3102885  76.2631831  17.1034193 113.6505930  74.9134265  17.2900680
 125.3692095  73.5209904  13.0084319 124.8538718  74.2914508  13.2472706
 125.0969403  72.8475040  13.6317380 122.9539206  68.3659604  18.0669557
 122.0980802  67.9766455  17.8875196 123.3666158  68.4451565  17.2069343
 124.4838353  65.9005948  22.4661117 123.9803148  65.8636083  21.6528922
 124.7768959  66.8098690  22.5257774 120.7281238  65.9844677  21.4727299
 121.5934235  65.7887486  21.1133188 120.7958747  65.7555029  22.3996655
 130.3426369  76.2742258  14.9437492 129.5655812  75.9353418  14.4992654
 131.0217850  76.2794881  14.2692457 125.1578398  71.3936996  14.8344100
 124.8528534  71.7083145  15.6854243 126.1108840  71.4718416  14.8771433
 123.6024830  77.5527219  16.4837054 123.0746191  76.8179979  16.1710291
 123.1012333  78.3301895  16.2377022 128.5817676  75.7476239  21.6004100
 127.9241350  76.4375501  21.6884229 129.3858075  76.1372671  21.9438087
 118.3343557  68.2146885  18.8443665 118.9087309  67.9922067  18.1116858
 118.9214540  68.2835580  19.5972267 127.3923135  74.1020612  19.6508042
 127.9055016  74.7350604  20.1529752 128.0424359  73.5021808  19.2851402
 118.6613145  70.2451346  12.8639551 117.8250457  70.5826033  13.1848825
 118.5217914  70.1100326  11.9266688 120.6366225  65.0888134  17.5718735
 119.9830638  64.7737151  16.9475350 120.5946699  64.4663875  18.2978558
 121.7477430  75.3707429   9.4872027 120.8404492  75.1396683   9.6863176
 122.2448462  74.5745048   9.6746008 124.6545509  84.0804936  12.4068713
 123.9807208  84.3836633  13.0153671 125.0411331  84.8834017  12.0574170
 123.8703966  71.5770068  21.8966382 122.9526527  71.7985015  21.7388071
 124.2864109  71.6516378  21.0378090 124.6539013  72.9761483  17.0269063
 125.4010832  73.4882881  16.7176185 124.9230603  72.6545536  17.8873456
 122.9265664  75.4720024  14.0096017 122.0176883  75.1879057  14.1068487
 122.9560747  75.8919103  13.1499324 128.1584931  79.0826614  17.7787185
 127.7047258  78.2417523  17.8352375 127.5278898  79.7188012  18.1161965
 127.1017850  70.0118600  19.0087852 126.3640607  69.4995986  19.3398095
 127.3544624  69.5718981  18.1971129 126.6017870  80.9203110  18.7137003
 126.8940845  81.4808167  17.9949368 127.1116491  81.2131671  19.4690162
 127.2029478  62.7894852  19.6029621 127.5088355  61.9292215  19.3155536
 127.9282083  63.3812472  19.4028615 113.4953834  73.1925538  17.9911219
 113.2978234  72.5994899  17.2662286 112.9400498  72.8877748  18.7087158
 121.4750558  73.0848645  20.1105812 121.5299167  72.1322481  20.0348289
 120.6641760  73.2408084  20.5947111 122.6241751  77.0128768  11.3484096
 122.1861181  76.2964627  10.8889733 123.3652192  77.2404883  10.7869187
 119.4142917  71.7025704  17.8696191 118.6010783  72.0019875  18.2761383
 119.9101912  71.3081393  18.5870673 121.5651495  81.6983461  19.8030456
 121.5227674  81.9244308  18.8738988 122.4814194  81.4646836  19.9516257
 125.0117129  72.1667529  26.7011085 125.3666517  72.3939002  27.5605551
 125.6589260  72.4985906  26.0788340 130.7414866  75.2885965  17.4060414
 130.6032765  75.4787561  16.4781603 130.3851085  76.0505348  17.8628465
 118.9056992  69.2744060  23.4857426 119.5456372  69.1332819  22.7880389
 118.0734523  68.9878573  23.1096028 130.7684246  77.3562492  22.4171686
 131.2020752  77.2637781  23.2654740 131.4815826  77.3319992  21.7791702
 119.6817296  78.5746490  19.5992419 120.4757895  78.0796811  19.3974994
 118.9708989  78.0464354  19.2360124 124.5012141  80.9564586  23.9504786
 124.5549163  81.5255522  24.7182502 123.6326922  81.1266471  23.5858823
 115.9900060  72.7189572  15.6752171 115.0597648  72.6574028  15.8922133
 116.0857532  72.1965525  14.8788813 115.9085609  69.2444385  18.2630413
 116.1692426  70.1589718  18.1539573 116.7302781  68.7768828  18.4127026
 117.3810534  70.6582142  25.4329237 118.0533587  70.4499504  24.7841886
 116.5540321  70.4604228  24.9934470 131.6299795  77.3986192  24.9504571
 131.8235685  78.3032003  25.1963846 131.5300413  76.9393612  25.7843156
 123.2836106  67.2844083  27.4494898 122.6364021  67.9834033  27.3559375
 124.0537121  67.7180227  27.8171147 126.6914904  77.5492935  30.5245452
 126.5400410  77.3203487  29.6075535 126.6819583  78.5063537  30.5376797
 123.4600240  75.1224848  25.5091718 124.3892300  75.2736008  25.3360685
 123.0391270  75.2108869  24.6540365 122.2588572  79.1475512  23.2790256
 122.1199658  78.7794297  24.1516194 121.4703168  79.6623152  23.1074214
 122.8536724  84.2484609  14.6215792 123.0288480  83.7772652  15.4361415
 122.1669512  84.8750375  14.8497053 123.8093787  78.5257115  20.6679093
 123.4743620  78.4857885  21.5636743 123.3097733  77.8601831  20.1949504
 117.7838031  73.9324745  26.1931675 117.6457829  73.2004984  26.7943214
 118.6942955  73.8433645  25.9115862 126.7452979  75.8713149  10.9416153
 126.1282150  75.1459978  10.8449206 126.2769467  76.6322510  10.5983227
 120.4120332  73.6444704  25.6815354 121.1219950  73.0037897  25.6401973
 120.3689640  73.8957599  26.6041535 128.4007111  80.5812058  28.6021934
 128.3419657  79.8971278  27.9352517 128.8026629  81.3231048  28.1502559
 119.1249266  70.6309922  27.5010994 118.5886623  70.1800661  28.1532590
 118.5365974  70.7655831  26.7581458 117.4197809  87.3973972  21.3955652
 117.6594408  88.0292496  22.0734671 116.5767006  87.0462012  21.6821012
 118.5351525  70.0898574  10.0637457 117.6580991  69.9687375   9.6999704
 119.0109278  69.2984652   9.8116346 128.4024518  78.5451642  26.8335913
 127.5151297  78.2077564  26.9562312 128.9723069  77.8134673  27.0704679
 110.0553665  74.8775733  20.1578965 110.7424705  74.5637463  19.5699980
 109.9001794  75.7817098  19.8846216 114.8588387  69.7665930  24.5863988
 114.7746576  69.1591600  23.8514398 114.0371094  70.2574948  24.5873485
 121.9325671  83.2053094  23.7997156 121.8595843  84.0108066  24.3116461
 121.4903064  83.4045060  22.9745178 121.7215451  82.4424864  17.3099978
 120.9382973  82.9846544  17.4038202 122.4208196  82.9598844  17.7094219
 125.0312101  68.2519494  19.9534183 125.5280801  67.4989456  19.6335254
 124.2599082  68.2883810  19.3877393 132.8841858  73.9559859  21.5952475
 132.8731735  74.8384575  21.2246408 132.0159238  73.6031410  21.4007012
 124.3924355  83.1039928  25.9555315 125.1052327  83.7387393  25.8831217
 123.9014383  83.2003794  25.1395317 126.1141882  77.0091181  17.5272607
 125.1798160  77.1292643  17.3577311 126.2918550  76.1063648  17.2632617
 121.6147070  70.3936877  19.6805868 121.2444857  69.8407917  20.3686774
 122.1106162  69.7895010  19.1280868 129.5014433  72.8508500  18.0622641
 129.9674885  73.6836492  17.9882944 129.9521934  72.3853482  18.7667899
 119.4436268  80.8534372  26.7760886 120.1445728  81.4870855  26.9290280
 118.9731383  81.1949103  26.0156525 127.5690664  79.1952321  15.0608793
 127.8450508  79.0808916  15.9702667 126.6995163  78.7969806  15.0220966
 127.4731096  65.2189087  22.1013542 126.5594176  65.4493314  22.2695749
 127.9024197  65.3027531  22.9527575 127.2437554  73.4078979  24.6013436
 126.5909005  73.6554886  23.9465889 127.6217934  72.5943117  24.2675914
 124.2044728  83.4438672  18.7041607 124.3867123  82.6260328  19.1669359
 125.0277714  83.6606364  18.2666497 124.5386894  82.3706857  15.9656655
 125.0674660  81.8599312  15.3526817 124.8015113  82.0549388  16.8302188
 123.2925127  74.1498790  31.0879473 122.6165764  74.0492919  31.7581849
 124.1152761  73.9938004  31.5515471 115.0403986  80.3870727  23.7091989
 115.6257423  79.6414415  23.8419893 114.8428825  80.6974683  24.5928652
 117.8942642  83.4221974  18.7254431 117.2253017  83.9068102  18.2418471
 117.7555511  83.6691194  19.6397809 109.6321641  72.9576327  22.4296432
 109.6705741  72.4239918  23.2233550 109.1261934  72.4311532  21.8107409
 122.0347910  85.4565718  25.3237089 122.5866218  85.6197339  26.0886175
 122.3754104  86.0470155  24.6517114 117.0112403  67.8040867  25.9258974
 117.0753730  68.6655698  25.5136372 116.9479524  67.1914869  25.1931333
 116.4864676  69.8764000  29.5732008 117.1136715  69.4941077  30.1869533
 115.6292595  69.6578202  29.9387701 126.8858784  80.2826975  31.1785744
 127.4298688  80.8956933  30.6840699 126.3045629  80.8406553  31.6952757
 113.2630219  71.6840429  15.5050363 113.5583660  70.7751107  15.4517417
 112.3618254  71.6628168  15.1831365 125.1716297  83.4047693  22.3100771
 125.0467437  82.6037433  21.8011717 125.8295389  83.8993886  21.8214741
 116.7924466  69.7596426  21.4877912 116.0711051  70.3732393  21.3485385
 117.5817721  70.2954190  21.4094558 127.2351206  81.2056713  23.9380322
 126.2881541  81.0862064  23.8658648 127.5833979  80.3179211  24.0206583
 119.5950779  67.0950852  27.7618563 120.1185181  67.3413149  28.5244873
 119.3763112  67.9270887  27.3421701 114.9918060  69.3654527  15.6289688
 114.6630766  68.4851906  15.4464794 115.3457431  69.3102195  16.5166077
 124.2397639  81.0009429  20.1384674 124.0922602  80.0726137  20.3192244
 125.0651133  81.0229520  19.6541749 118.1059883  69.6527496  15.9965166
 118.4455956  70.1813418  15.2743774 118.5532004  69.9907903  16.7723732
 127.8431761  81.8237988  21.2249547 128.7678308  81.6180849  21.0873998
 127.6747064  81.5754389  22.1338888 120.8003324  68.0364547  25.4468234
 120.4600145  67.2372360  25.8488914 120.0942331  68.3366258  24.8745067
 121.4519796  65.1213860  23.8995557 122.2745865  64.6474338  23.7774447
 121.6957860  65.9004343  24.3994243 120.0928031  68.1502118  14.1958459
 120.8136393  68.5283371  13.6922176 119.4693335  68.8690995  14.2993437
 124.2359153  68.8547267  15.1316791 124.4522768  69.7371905  14.8305619
 123.7553221  68.4633480  14.4022433 118.9758375  71.8132980  21.7087536
 118.8302956  72.1273283  22.6011817 118.4983578  72.4317881  21.1558434
 120.8354758  68.8035528  21.7568425 120.8216326  67.9076622  21.4200723
 121.5527186  68.8106192  22.3906711 122.6880888  69.2372868  23.8021553
 122.4298666  70.1589939  23.8005883 122.1565929  68.8403303  24.4922017
 127.6327077  82.3423656  16.5811638 127.8063955  81.7770078  15.8285490
 128.1255968  83.1424550  16.3991128 113.4504037  74.3538325  24.6475197
 112.9057505  75.1298133  24.7795471 114.3283387  74.7009129  24.4894318
 120.2391654  67.6849908  17.0255995 120.3607565  66.7566555  17.2246883
 119.9493696  67.6988594  16.1134311 123.1082844  65.3704819  20.1622715
 123.1304541  65.4344152  19.2074695 123.5250903  64.5309328  20.3563221
 133.4866468  75.1060078  18.2001938 133.9297614  74.3567404  17.8021061
 132.6092979  75.0970215  17.8175670 128.6202250  81.6590420  13.6808536
 129.3153154  82.2797113  13.8995851 128.9625400  80.8085771  13.9560914
 114.2370059  73.4808221  27.5405354 113.4951795  73.6290856  28.1269984
 113.9162803  73.7416486  26.6772103 130.5193673  79.1090125  15.2095867
 131.0444997  79.4477398  14.4845187 130.4316025  78.1737141  15.0259002
 122.1813721  83.0224199  27.3385744 122.4900848  82.7773346  28.2108443
 122.9789204  83.2270838  26.8504614 122.2034334  85.1762109  19.5691120
 121.7639324  84.6838487  20.2623977 122.9542450  84.6335076  19.3283195
 114.6826673  81.3673650  19.5715748 115.5084692  81.0677421  19.1914392
 114.3320725  80.5981272  20.0205537 119.6508206  80.7200118  21.6413422
 119.0288215  80.0570823  21.3415650 120.3213073  80.7461250  20.9587070
 112.8835278  79.2859976  20.5304682 112.0467186  78.8582150  20.3488683
 112.8558923  79.4792419  21.4675473 119.7232733  69.1981906  31.2345928
 119.7720889  70.0744029  30.8523698 120.2655247  68.6559299  30.6617571
 130.2087579  79.7423029  30.5147065 129.4183123  79.7247168  29.9751564
 129.9720933  80.2811323  31.2696102 130.3285454  76.5915495  27.8279794
 130.3783459  76.4265503  28.7695316 130.2199377  75.7242755  27.4377674
 119.2121713  79.2704041  15.1171882 119.3609833  79.9539506  14.4638555
 120.0188156  79.2509131  15.6321338 127.6189216  72.5746424  29.1439100
 128.5199079  72.4352888  28.8523098 127.6937191  72.7400878  30.0837278
 121.9532022  69.9513278  27.9892287 121.0835331  70.2446844  27.7174875
 122.1891502  70.5353723  28.7099550 131.8303651  79.0112437  28.0721815
 131.5388459  79.3742418  28.9085276 131.2175782  78.2979445  27.8935147
 133.0299333  76.5765317  20.5924385 133.8646224  77.0155121  20.7561946
 133.1658462  76.1003970  19.7732631 130.0790839  74.1345052  26.5401873
 130.5544961  74.3272698  25.7320724 129.1556404  74.1904237  26.2945257
 116.9674346  75.2969219  16.1232951 116.7220388  74.3931549  16.3213161
 117.1370260  75.2986369  15.1812429 124.6571055  66.1692895  25.5057707
 125.1752999  66.9053922  25.1804196 124.3026188  66.4756888  26.3404466
 116.2369993  71.0297576  13.6219113 115.5439238  71.1041931  12.9659149
 115.9921745  70.2657920  14.1440630 124.9083650  62.5893178  21.0258604
 125.1885403  61.9216367  21.6519030 125.6934257  62.7822273  20.5133267
 122.7117118  81.7652172  12.5883630 122.1391085  82.3842359  12.1354102
 123.2849912  82.3151533  13.1223552 128.7792508  71.0110812  24.7730179
 129.7309931  71.1108909  24.7942403 128.6095958  70.2189080  25.2828263
 126.8006887  68.0966395  24.9589580 126.2056820  68.3771408  24.2636068
 126.5156584  68.5860296  25.7306321 125.9314378  82.0489322  13.7192212
 126.8645051  81.9834883  13.9225088 125.8437591  82.8845589  13.2606745
 131.2580586  74.2316931  23.8872478 131.2256906  73.2932932  24.0732162
 131.8681209  74.3100968  23.1538303 123.0963917  73.1012984   9.9299682
 124.0423021  72.9719192   9.9988100 122.7178162  72.3627646  10.4069111
 131.4075074  71.0227975  23.9330762 130.8914123  70.2386431  23.7460690
 132.2915023  70.6946691  24.0977281 129.0685801  64.7668990  19.8926574
 128.8710622  64.4584079  20.7769906 129.6785507  65.4930629  20.0224504
 137.0757136  75.2932938  23.0278515 137.8060524  75.0318226  23.5886218
 136.4664081  74.5561660  23.0680583 135.1572433  73.4340801  23.6252966
 134.4305596  73.2996766  23.0169458 134.7419720  73.7417629  24.4309684
 122.9802609  77.1530730  31.3900339 123.9005619  77.3309330  31.5840386
 122.9452192  76.2086776  31.2380039 121.2806834  71.0262961   9.8654568
 120.3738289  70.7296073   9.9417281 121.5582815  70.7292779   8.9988854
 112.1984774  72.3469324  20.3153614 111.8787558  71.4934632  20.0227988
 111.6518202  72.5617902  21.0711581 115.9764682  75.0631765  24.0323120
 116.1950691  75.9948873  24.0511154 116.3890456  74.7039740  24.8177924
 122.8968899  65.5699850  16.0198809 122.0869628  65.2246935  16.3954055
 123.5853316  65.2607394  16.6086420 124.8259448  64.6477897  17.6423106
 125.3790486  65.0673351  18.3013129 125.0629534  63.7213645  17.6846062
 120.8492547  70.6364971  33.4225869 120.7489274  71.5859328  33.3537961
 120.6314089  70.3083210  32.5501940 120.0505618  67.8849896  10.0066547
 120.9124782  68.2104794  10.2662364 120.2355963  67.0981392   9.4939613
 112.0673034  75.9672236  22.2846736 111.3736506  75.5526188  21.7716690
 112.8146025  76.0092772  21.6880154 128.2038255  66.7578422  17.1501770
 127.6236924  67.4163226  16.7679822 127.9374188  65.9355767  16.7389187
 126.6541821  66.1583480  19.3523090 127.1541600  66.2700015  18.5437409
 127.2977429  65.8544533  19.9923899 120.7123817  74.0662110  32.2390931
 120.2290899  74.8662470  32.4454820 120.7984756  74.0770055  31.2858375
 113.9809777  75.8990489  20.1612750 113.9580465  75.9978177  19.2094634
 114.2910413  76.7455640  20.4829917 116.6397155  77.9566644  24.2759365
 117.5940408  77.9250587  24.2089296 116.4409678  77.4957268  25.0909591
 117.2296537  76.5267761  26.8430163 118.0489426  77.0211839  26.8665000
 117.5033344  75.6099729  26.8147730 126.9863133  68.9178513  16.2058118
 126.0988988  69.2028163  15.9878313 127.4017122  68.7572276  15.3585395
 130.3377669  68.9425034  19.9212457 131.1138059  69.4321486  20.1937074
 129.6125803  69.3683088  20.3784327 132.7750228  69.6552653  20.9786398
 133.3694718  69.4148389  20.2679706 132.8476811  68.9359784  21.6059934
 114.9947383  83.4986264  21.2929563 114.8601851  82.7386665  20.7267561
 114.5779446  84.2227164  20.8258352 126.1306346  78.6823187  10.3006138
 126.8342196  78.8873190  10.9163794 125.4068995  79.2499949  10.5655222
 126.9604157  74.4333049  16.4208408 126.9039358  74.8901600  15.5816041
 127.5132499  73.6723733  16.2431251 130.7708963  70.2222781  17.2458528
 130.5145897  69.8219416  18.0766735 130.1461831  70.9366575  17.1208667
 135.0821300  72.9618854  19.7529819 134.5220858  73.0312043  20.5261381
 134.4764804  72.7859838  19.0329315 118.1516509  84.3955581  21.5048005
 118.0348893  85.3401013  21.4026696 117.3308955  84.0929143  21.8933805
 128.0393044  79.1205717  12.3504598 128.8738648  78.6886915  12.1682073
 127.8777387  78.9487730  13.2781493 127.6938936  75.6237830  13.7160937
 127.6387740  75.4582101  12.7749381 127.0684991  76.3313863  13.8723127
 112.4831451  70.8605894  27.5422360 113.1290315  70.3504848  28.0309585
 112.2748602  71.5974576  28.1165785 125.0084843  77.9286742  33.0414500
 125.8776003  78.1027394  32.6801135 124.5291595  78.7481159  32.9190229
 121.0035061  65.1245939  13.2946256 120.9913731  66.0687779  13.4514527
 121.8958483  64.9416084  13.0005717 119.1771023  85.0483843  24.7203934
 120.0798270  85.0807453  25.0370429 118.9508393  84.1184294  24.7350270
 120.9324625  83.8014829  21.3814012 119.9820256  83.8016691  21.2678385
 121.2357112  83.0547564  20.8650047 124.8187181  61.7188716  17.5492193
 124.0519577  61.1647202  17.6948875 125.2297886  61.7910584  18.4106344
 116.8228942  68.0073511  31.6397374 117.6860403  67.6510316  31.8500698
 116.2494353  67.6687406  32.3272778 136.6677319  89.6375368  22.4459775
 137.3055729  89.5182115  21.7423115 136.5498162  90.5856212  22.5047727
 133.4767025  89.5902796  22.3821300 133.1385537  89.4743861  21.4941834
 134.3456793  89.1893961  22.3622306 129.3353841  91.4438272  18.3718190
 128.7718706  91.3528209  17.6034478 129.2206236  90.6238177  18.8520683
 133.9586808  90.7437648  28.3407505 133.9475449  90.3490446  27.4688009
 134.1207448  90.0103720  28.9341276 126.8818273  92.9389464  21.2102411
 127.6739565  92.5980289  20.7948710 127.1214923  93.0484439  22.1304564
 130.6794069  93.5274759  27.2886689 130.3883935  94.4320390  27.1733355
 131.3151054  93.5691287  28.0030759 131.6050276  90.9051608  23.8788049
 132.2013848  90.6807630  23.1645012 131.6625248  90.1636353  24.4813497
 136.2218587  87.3626822  19.5212983 137.0081677  86.9446245  19.1703400
 136.4857292  88.2672914  19.6894631 141.6227014  87.3002055  20.4245961
 142.3552186  86.7301272  20.6583791 140.8666370  86.9123655  20.8652467
 133.2403134  89.7229296  17.6209304 132.8761341  89.1959917  18.3322225
 134.0970250  89.3327765  17.4475789 139.1452435  81.0123629  24.8840570
 138.8135760  81.8819040  24.6601785 138.5498048  80.6959913  25.5634600
 135.6383954  93.2136175  24.2836483 135.3384677  94.1161214  24.1752290
 135.2935014  92.9468358  25.1357636 129.0896436  89.6649972  20.3173187
 128.1646932  89.5326186  20.5250879 129.3380849  90.4444191  20.8143130
 139.0381098  85.7318715  21.9633920 138.1297975  85.6634124  21.6692681
 138.9868694  86.2090660  22.7915746 126.4505247  89.3083245  21.1516976
 126.5797628  89.5617724  22.0656388 125.7702698  89.9010953  20.8321631
 133.1121964  87.1508361  29.9068817 132.3355298  87.7102281  29.8971682
 133.7512527  87.6365144  30.4283687 140.9042745  83.9335154  23.7411794
 140.2617125  84.2267687  23.0951589 140.3997673  83.8188074  24.5464991
 131.3668336  89.9593814  29.4686784 132.1083021  90.4978858  29.1921608
 130.6605322  90.5860103  29.6258336 136.8423676  92.1022955  28.0658946
 137.2507032  91.6605365  27.3213578 136.1200937  91.5275582  28.3193139
 133.1954746  87.0395561  25.4392503 134.0415941  87.4634975  25.5827152
 133.1353384  86.3829186  26.1331066 137.1652491  92.6624145  21.8211235
 136.5361353  92.8269859  21.1187303 136.7778153  93.0765755  22.5922199
 136.3454191  84.6999930  27.0973676 136.1015123  85.4541990  26.5607952
 136.6214122  85.0785277  27.9320923 138.2992654  91.2438542  25.7750942
 138.5109549  91.8870302  25.0985323 138.2522402  90.4100859  25.3072872
 135.9018883  83.8556363  22.6787514 135.0403362  84.1537616  22.9704252
 135.9281318  84.0726762  21.7468547 129.6104533  91.9470035  22.0241083
 130.1805891  92.3757303  21.3858568 130.2012645  91.6652620  22.7225269
 131.6549338  88.5221706  15.8950885 132.3573382  88.9742749  16.3624811
 131.3229967  87.8805524  16.5230778 130.1029700  87.1133462  30.2702094
 129.4728361  87.7949743  30.5037491 129.9965788  87.0016544  29.3255233
 125.3974672  86.7805258  21.1968018 124.6073726  87.0362787  20.7208129
 125.8885920  87.5953596  21.3020059 139.4138482  94.1210497  23.9473299
 140.2355926  93.7190685  23.6655981 139.4100885  94.0178732  24.8989415
 127.3489418  87.1449838  18.1551495 126.5520581  87.2568532  18.6734991
 127.1215010  87.4836490  17.2892386 133.1795085  93.6694541  26.1034010
 133.2439518  94.1314948  26.9392182 132.4706009  93.0391906  26.2316320
 123.6812375  87.0335749  23.6283009 123.9320414  87.9182759  23.8940585
 124.2171924  86.8540350  22.8558101 129.3810443  81.4154228  32.6327345
 128.9877388  80.8620427  33.3074990 130.1976583  81.7264807  33.0233863
 126.3472500  92.8538086  16.5440915 126.8597021  93.6481337  16.6946480
 126.9995213  92.1564377  16.4774517 132.2978404  82.8312107  30.2247602
 133.0388117  83.4319260  30.1452064 132.5296327  82.0889745  29.6665644
 127.4419742  88.0168474  28.5025832 127.3273257  87.1153732  28.8032931
 126.5864259  88.2632171  28.1510648 134.5211579  95.9586215  30.1013332
 134.0775434  95.1722593  29.7834237 135.1828793  96.1465365  29.4357223
 129.2798701  97.4882016  24.6274011 129.8306126  97.3599080  23.8551005
 128.4410177  97.7876905  24.2768904 136.6192818  96.2389015  28.1294733
 136.6011293  97.0597896  27.6375003 137.5412738  96.1143090  28.3544875
 133.0765872  93.7533144  28.9718242 133.6094208  92.9921432  28.7417550
 132.5479953  93.4606796  29.7142396 136.2435567  78.8593210  24.5011884
 135.8999836  79.7494852  24.4250994 136.6114529  78.6694868  23.6381469
 124.3121417  91.1826741  17.3200486 125.1496639  91.5923749  17.1034193
 124.4899685  90.2426183  17.2900680 133.7932960  83.6951522  18.0669557
 132.9374557  83.3058372  17.8875196 134.2059912  83.7743483  17.2069343
 135.3232107  81.2297865  22.4661117 134.8196903  81.1928000  21.6528922
 135.6162714  82.1390608  22.5257774 131.5674993  81.3136595  21.4727299
 132.4327990  81.1179404  21.1133188 131.6352502  81.0846947  22.3996655
 139.4211430  91.0768157  21.6004100 138.7635105  91.7667419  21.6884229
 140.2251830  91.4664589  21.9438087 129.1737312  83.5438803  18.8443665
 129.7481064  83.3213984  18.1116858 129.7608294  83.6127497  19.5972267
 138.2316889  89.4312530  19.6508042 138.7448771  90.0642522  20.1529752
 138.8818113  88.8313725  19.2851402 131.4759980  80.4180052  17.5718735
 130.8224392  80.1029069  16.9475350 131.4340454  79.7955792  18.2978558
 134.7097720  86.9061985  21.8966382 133.7920281  87.1276932  21.7388071
 135.1257864  86.9808296  21.0378090 137.9411605  85.3410517  19.0087852
 137.2034362  84.8287904  19.3398095 138.1938379  84.9010899  18.1971129
 138.0423232  78.1186769  19.6029621 138.3482109  77.2584133  19.3155536
 138.7675837  78.7104390  19.4028615 124.3347588  88.5217456  17.9911219
 124.1371988  87.9286817  17.2662286 123.7794252  88.2169666  18.7087158
 132.3144312  88.4140562  20.1105812 132.3692922  87.4614399  20.0348289
 131.5035514  88.5700001  20.5947111 130.2536672  87.0317622  17.8696191
 129.4404537  87.3311793  18.2761383 130.7495666  86.6373311  18.5870673
 135.8510884  87.4959447  26.7011085 136.2060271  87.7230920  27.5605551
 136.4983015  87.8277823  26.0788340 129.7450747  84.6035978  23.4857426
 130.3850126  84.4624737  22.7880389 128.9128277  84.3170491  23.1096028
 130.5211051  93.9038408  19.5992419 131.3151649  93.4088728  19.3974994
 129.8102743  93.3756271  19.2360124 135.3405895  96.2856504  23.9504786
 135.3942917  96.8547440  24.7182502 134.4720676  96.4558389  23.5858823
 126.8293814  88.0481490  15.6752171 125.8991402  87.9865945  15.8922133
 126.9251286  87.5257443  14.8788813 126.7479363  84.5736303  18.2630413
 127.0086180  85.4881636  18.1539573 127.5696535  84.1060745  18.4127026
 128.2204288  85.9874060  25.4329237 128.8927342  85.7791422  24.7841886
 127.3934075  85.7896146  24.9934470 142.4693550  92.7278110  24.9504571
 142.6629440  93.6323921  25.1963846 142.3694168  92.2685529  25.7843156
 134.1229860  82.6136001  27.4494898 133.4757776  83.3125950  27.3559375
 134.8930876  83.0472145  27.8171147 137.5308658  92.8784853  30.5245452
 137.3794165  92.6495405  29.6075535 137.5213338  93.8355454  30.5376797
 134.2993995  90.4516766  25.5091718 135.2286055  90.6027925  25.3360685
 133.8785025  90.5400786  24.6540365 133.0982327  94.4767430  23.2790256
 132.9593412  94.1086214  24.1516194 132.3096923  94.9915069  23.1074214
 134.6487542  93.8549033  20.6679093 134.3137374  93.8149803  21.5636743
 134.1491487  93.1893749  20.1949504 128.6231786  89.2616663  26.1931675
 128.4851584  88.5296902  26.7943214 129.5336709  89.1725563  25.9115862
 131.2514086  88.9736622  25.6815354 131.9613705  88.3329814  25.6401973
 131.2083395  89.2249517  26.6041535 139.2400865  95.9103975  28.6021934
 139.1813411  95.2263196  27.9352517 139.6420383  96.6522965  28.1502559
 129.9643020  85.9601840  27.5010994 129.4280377  85.5092578  28.1532590
 129.3759729  86.0947749  26.7581458 139.2418272  93.8743559  26.8335913
 138.3545051  93.5369481  26.9562312 139.8116823  93.1426591  27.0704679
 120.8947419  90.2067651  20.1578965 121.5818459  89.8929381  19.5699980
 120.7395548  91.1109016  19.8846216 125.6982142  85.0957848  24.5863988
 125.6140330  84.4883517  23.8514398 124.8764848  85.5866866  24.5873485
 132.7719426  98.5345012  23.7997156 132.6989597  99.3399983  24.3116461
 132.3296819  98.7336978  22.9745178 135.8705855  83.5811411  19.9534183
 136.3674555  82.8281374  19.6335254 135.0992837  83.6175728  19.3877393
 135.2318109  98.4331846  25.9555315 135.9446081  99.0679311  25.8831217
 134.7408138  98.5295712  25.1395317 132.4540824  85.7228794  19.6805868
 132.0838612  85.1699835  20.3686774 132.9499917  85.1186928  19.1280868
 130.2830023  96.1826289  26.7760886 130.9839482  96.8162772  26.9290280
 129.8125138  96.5241021  26.0156525 138.3124850  80.5481005  22.1013542
 137.3987930  80.7785232  22.2695749 138.7417952  80.6319449  22.9527575
 138.0831309  88.7370897  24.6013436 137.4302759  88.9846804  23.9465889
 138.4611689  87.9235035  24.2675914 134.1318882  89.4790708  31.0879473
 133.4559519  89.3784837  31.7581849 134.9546516  89.3229921  31.5515471
 125.8797741  95.7162644  23.7091989 126.4651178  94.9706332  23.8419893
 125.6822579  96.0266601  24.5928652 120.4715396  88.2868244  22.4296432
 120.5099495  87.7531835  23.2233550 119.9655688  87.7603450  21.8107409
 132.8741665 100.7857635  25.3237089 133.4259973 100.9489257  26.0886175
 133.2147858 101.3762073  24.6517114 127.8506158  83.1332785  25.9258974
 127.9147484  83.9947616  25.5136372 127.7873278  82.5206787  25.1931333
 127.3258430  85.2055918  29.5732008 127.9530469  84.8232995  30.1869533
 126.4686349  84.9870119  29.9387701 137.7252539  95.6118893  31.1785744
 138.2692443  96.2248851  30.6840699 137.1439384  96.1698471  31.6952757
 124.1023973  87.0132347  15.5050363 124.3977414  86.1043025  15.4517417
 123.2012009  86.9920086  15.1831365 127.6318220  85.0888343  21.4877912
 126.9104806  85.7024311  21.3485385 128.4211476  85.6246108  21.4094558
 138.0744960  96.5348631  23.9380322 137.1275296  96.4153982  23.8658648
 138.4227733  95.6471129  24.0206583 130.4344534  82.4242770  27.7618563
 130.9578935  82.6705066  28.5244873 130.2156867  83.2562805  27.3421701
 125.8311815  84.6946444  15.6289688 125.5024521  83.8143823  15.4464794
 126.1851185  84.6394113  16.5166077 128.9453638  84.9819414  15.9965166
 129.2849710  85.5105335  15.2743774 129.3925758  85.3199820  16.7723732
 131.6397079  83.3656465  25.4468234 131.2993899  82.5664278  25.8488914
 130.9336085  83.6658176  24.8745067 132.2913551  80.4505777  23.8995557
 133.1139620  79.9766255  23.7774447 132.5351614  81.2296261  24.3994243
 130.9321785  83.4794036  14.1958459 131.6530148  83.8575288  13.6922176
 130.3087089  84.1982913  14.2993437 129.8152129  87.1424898  21.7087536
 129.6696710  87.4565201  22.6011817 129.3377333  87.7609798  21.1558434
 131.6748512  84.1327446  21.7568425 131.6610081  83.2368539  21.4200723
 132.3920940  84.1398110  22.3906711 133.5274643  84.5664786  23.8021553
 133.2692421  85.4881857  23.8005883 132.9959683  84.1695221  24.4922017
 124.2897791  89.6830242  24.6475197 123.7451260  90.4590050  24.7795471
 125.1677141  90.0301047  24.4894318 131.0785408  83.0141826  17.0255995
 131.2001319  82.0858472  17.2246883 130.7887450  83.0280512  16.1134311
 133.9476599  80.6996737  20.1622715 133.9698295  80.7636070  19.2074695
 134.3644658  79.8601245  20.3563221 125.0763813  88.8100139  27.5405354
 124.3345549  88.9582774  28.1269984 124.7556558  89.0708404  26.6772103
 133.0207476  98.3516117  27.3385744 133.3294602  98.1065264  28.2108443
 133.8182958  98.5562755  26.8504614 125.5220427  96.6965567  19.5715748
 126.3478447  96.3969339  19.1914392 125.1714479  95.9273190  20.0205537
 130.4901960  96.0492036  21.6413422 129.8681969  95.3862741  21.3415650
 131.1606827  96.0753167  20.9587070 123.7229032  94.6151894  20.5304682
 122.8860940  94.1874068  20.3488683 123.6952677  94.8084337  21.4675473
 130.5626488  84.5273824  31.2345928 130.6114643  85.4035946  30.8523698
 131.1049002  83.9851217  30.6617571 141.0481333  95.0714947  30.5147065
 140.2576877  95.0539086  29.9751564 140.8114688  95.6103240  31.2696102
 141.1679208  91.9207413  27.8279794 141.2177213  91.7557421  28.7695316
 141.0593132  91.0534672  27.4377674 138.4582971  87.9038341  29.1439100
 139.3592834  87.7644806  28.8523098 138.5330945  88.0692796  30.0837278
 132.7925776  85.2805196  27.9892287 131.9229086  85.5738762  27.7174875
 133.0285256  85.8645641  28.7099550 142.6697405  94.3404355  28.0721815
 142.3782214  94.7034335  28.9085276 142.0569537  93.6271363  27.8935147
 140.9184593  89.4636969  26.5401873 141.3938715  89.6564616  25.7320724
 139.9950159  89.5196155  26.2945257 135.4964810  81.4984813  25.5057707
 136.0146754  82.2345840  25.1804196 135.1419943  81.8048806  26.3404466
 127.0763748  86.3589494  13.6219113 126.3832993  86.4333849  12.9659149
 126.8315500  85.5949838  14.1440630 135.7477404  77.9185095  21.0258604
 136.0279158  77.2508284  21.6519030 136.5328011  78.1114191  20.5133267
 139.6186262  86.3402729  24.7730179 140.5703685  86.4400827  24.7942403
 139.4489713  85.5480998  25.2828263 137.6400642  83.4258313  24.9589580
 137.0450574  83.7063325  24.2636068 137.3550339  83.9152214  25.7306321
 142.0974340  89.5608849  23.8872478 142.0650660  88.6224850  24.0732162
 142.7074964  89.6392886  23.1538303 142.2468829  86.3519893  23.9330762
 141.7307877  85.5678349  23.7460690 143.1308777  86.0238609  24.0977281
 139.9079556  80.0960908  19.8926574 139.7104377  79.7875996  20.7769906
 140.5179261  80.8222547  20.0224504 145.9966187  88.7632718  23.6252966
 145.2699351  88.6288683  23.0169458 145.5813474  89.0709547  24.4309684
 133.8196364  92.4822648  31.3900339 134.7399373  92.6601247  31.5840386
 133.7845947  91.5378694  31.2380039 123.0378529  87.6761242  20.3153614
 122.7181313  86.8226550  20.0227988 122.4911957  87.8909820  21.0711581
 126.8158436  90.3923683  24.0323120 127.0344446  91.3240791  24.0511154
 127.2284210  90.0331657  24.8177924 133.7362654  80.8991768  16.0198809
 132.9263382  80.5538853  16.3954055 134.4247071  80.5899312  16.6086420
 135.6653202  79.9769815  17.6423106 136.2184241  80.3965268  18.3013129
 135.9023289  79.0505563  17.6846062 131.6886302  85.9656889  33.4225869
 131.5883028  86.9151246  33.3537961 131.4707844  85.6375127  32.5501940
 122.9066789  91.2964153  22.2846736 122.2130260  90.8818106  21.7716690
 123.6539780  91.3384690  21.6880154 139.0432009  82.0870340  17.1501770
 138.4630678  82.7455144  16.7679822 138.7767942  81.2647685  16.7389187
 137.4935576  81.4875398  19.3523090 137.9935354  81.5991932  18.5437409
 138.1371184  81.1836451  19.9923899 131.5517572  89.3954027  32.2390931
 131.0684653  90.1954388  32.4454820 131.6378511  89.4061972  31.2858375
 124.8203531  91.2282407  20.1612750 124.7974219  91.3270094  19.2094634
 125.1304168  92.0747558  20.4829917 127.4790909  93.2858562  24.2759365
 128.4334163  93.2542504  24.2089296 127.2803433  92.8249186  25.0909591
 128.0690291  91.8559678  26.8430163 128.8883180  92.3503757  26.8665000
 128.3427099  90.9391646  26.8147730 141.1771424  84.2716951  19.9212457
 141.9531814  84.7613404  20.1937074 140.4519558  84.6975006  20.3784327
 143.6143982  84.9844571  20.9786398 144.2088473  84.7440307  20.2679706
 143.6870566  84.2651701  21.6059934 125.8341138  98.8278182  21.2929563
 125.6995606  98.0678583  20.7267561 125.4173200  99.5519081  20.8258352
 128.9910264  99.7247499  21.5048005 128.8742648 100.6692931  21.4026696
 128.1702710  99.4221060  21.8933805 123.3225205  86.1897812  27.5422360
 123.9684069  85.6796766  28.0309585 123.1142357  86.9266494  28.1165785
 135.8478598  93.2578660  33.0414500 136.7169757  93.4319312  32.6801135
 135.3685349  94.0773076  32.9190229 131.8428816  80.4537857  13.2946256
 131.8307486  81.3979697  13.4514527 132.7352238  80.2708002  13.0005717
 130.0164778 100.3775761  24.7203934 130.9192025 100.4099371  25.0370429
 129.7902148  99.4476211  24.7350270 135.6580935  77.0480633  17.5492193
 134.8913331  76.4939120  17.6948875 136.0691640  77.1202502  18.4106344
 127.6622696  83.3365429  31.6397374 128.5254158  82.9802234  31.8500698
 127.0888107  82.9979324  32.3272778 143.9515718 102.4800278  29.9068817
 143.1749052 103.0394199  29.8971682 144.5906281 102.9657061  30.4283687
 140.9423454 102.4425380  30.2702094 140.3122115 103.1241661  30.5037491
 140.8359542 102.3308462  29.3255233 140.2204197  96.7446146  32.6327345
 139.8271143  96.1912344  33.3074990 141.0370338  97.0556724  33.0233863
 143.1372158  98.1604025  30.2247602 143.8781872  98.7611178  30.1452064
 143.3690081  97.4181663  29.6665644 138.2813496 103.3460392  28.5025832
 138.1667011 102.4445649  28.8032931 137.4258014 103.5924089  28.1510648
 144.9623615  97.9427918  27.4494898 144.3151530  98.6417868  27.3559375
 145.7324630  98.3764062  27.8171147 140.8036775 101.2893758  27.5010994
 140.2674132 100.8384496  28.1532590 140.2153483 101.4239667  26.7581458
 144.9712636 104.8082625  31.0879473 144.2953273 104.7076755  31.7581849
 145.7940270 104.6521839  31.5515471 138.6899912  98.4624703  25.9258974
 138.7541239  99.3239534  25.5136372 138.6267033  97.8498704  25.1931333
 138.1652185 100.5347835  29.5732008 138.7924224 100.1524913  30.1869533
 137.3080104 100.3162037  29.9387701 141.2738288  97.7534687  27.7618563
 141.7972690  97.9996984  28.5244873 141.0550621  98.5854722  27.3421701
 135.9157568 104.1392056  27.5405354 135.1739304 104.2874692  28.1269984
 135.5950312 104.4000322  26.6772103 141.4020242  99.8565741  31.2345928
 141.4508398 100.7327864  30.8523698 141.9442756  99.3143134  30.6617571
 143.6319531 100.6097114  27.9892287 142.7622840 100.9030680  27.7174875
 143.8679011 101.1937559  28.7099550 142.5280056 101.2948806  33.4225869
 142.4276783 102.2443163  33.3537961 142.3101598 100.9667045  32.5501940
 142.3911326 104.7245945  32.2390931 141.9078408 105.5246305  32.4454820
 142.4772265 104.7353890  31.2858375 134.1618960 101.5189730  27.5422360
 134.8077824 101.0088684  28.0309585 133.9536111 102.2558411  28.1165785
 138.5016451  98.6657347  31.6397374 139.3647912  98.3094152  31.8500698
 137.9281862  98.3271242  32.3272778  91.1636563  11.6480667  16.8258639
  90.7200417  10.8617045  16.5079543  91.8253776  11.8359817  16.1602530
  93.2617801  11.9283467  14.8540040  93.2436276  12.7492348  14.3620309
  94.1837721  11.8037542  15.0790181  89.7190855   9.4427596  15.6963548
  90.2519192   8.6815884  15.4662856  89.1904936   9.1501248  16.4387703
  94.1733642   8.5679305  17.2490758  94.0219148   8.3389856  16.3320842
  94.1638321   9.5249906  17.2622103  95.8825848  11.5998427  15.3267240
  95.8238395  10.9157647  14.6597823  96.2845367  12.3417417  14.8747866
  95.8843256   9.5638011  13.5581220  94.9970034   9.2263933  13.6807619
  96.4541807   8.8321043  13.7949985  91.8743093  14.1226298  12.6800622
  92.5871065  14.7573762  12.6076523  91.3833121  14.2190164  11.8640624
  90.7743865   5.1685160  17.8124780  90.0984502   5.0679289  18.4827155
  91.5971499   5.0124373  18.2760777  89.5166648  16.4752087  12.0482396
  90.0684956  16.6383709  12.8131481  89.8572841  17.0656525  11.3762421
  94.3677522  11.3013345  17.9031050  94.9117426  11.9143303  17.4086005
  93.7864367  11.8592923  18.4198063  89.6632459  14.0410569  14.0631050
  89.9719586  13.7959715  14.9353750  90.4607941  14.2457207  13.5749921
  97.6906317  10.7609399  17.2392372  96.9001860  10.7433538  16.6996871
  97.4539671  11.2997692  17.9941408  97.8104192   7.6101865  14.5525100
  97.8602197   7.4451872  15.4940623  97.7018115   6.7429124  14.1622981
  99.3122389  10.0298807  14.7967122  99.0207197  10.3928787  15.6330583
  98.6994520   9.3165815  14.6180454  90.4621347   8.1717100  18.1145646
  91.3824356   8.3495699  18.3085692  90.4270930   7.2273145  17.9625345
  92.4903581   8.9473111  19.7659807  93.3594741   9.1213764  19.4046442
  92.0110332   9.7667528  19.6435536 100.9585763  20.6089165   9.1066606
 100.6204274  20.4930230   8.2187141 101.8275531  20.2080331   9.0867612
 101.4405546  21.7624017  15.0652812 101.4294187  21.3676815  14.1933315
 101.6026185  21.0290090  15.6586583  94.3637011  23.9575833   7.9347718
  95.1558302  23.6166658   7.5194017  94.6033661  24.0670809   8.8549871
  98.1612807  24.5461129  14.0131996  97.8702673  25.4506760  13.8978662
  98.7969791  24.5877657  14.7276065  99.0869014  21.9237978  10.6033355
  99.6832586  21.6994000   9.8890318  99.1443985  21.1822723  11.2058803
 103.1202692  24.2322545  11.0081789 102.8203415  25.1347583  10.8997597
 102.7753752  23.9654728  11.8602942  96.5715174  20.6836341   7.0418494
  95.6465670  20.5512555   7.2496186  96.8199587  21.4630561   7.5388436
  93.9323985  20.3269615   7.8762283  94.0616366  20.5804094   8.7901695
  93.2521436  20.9197323   7.5566938  98.1023472  30.9966865   3.9752757
  98.0247502  31.9474690   4.0541238  97.4985116  30.6512737   4.6327683
 100.5940702  18.1694730  16.6314124  99.8174036  18.7288650  16.6216989
 101.2331265  18.6551513  17.1528994  98.8487074  20.9780184  16.1932091
  99.5901758  21.5165228  15.9166915  98.1424059  21.6046472  16.3503643
 104.3242414  23.1209324  14.7904252 104.7325770  22.6791735  14.0458885
 103.6019675  22.5461952  15.0438445 100.6773484  18.0581931  12.1637809
 101.5234679  18.4821344  12.3072458 100.6172121  17.4015555  12.8576372
 104.6471228  23.6810515   8.5456541 104.0180091  23.8456229   7.8432609
 104.2596890  24.0952124   9.3167505 103.8272929  15.7186299  13.8218983
 103.5833861  16.4728360  13.2853259 104.1032860  16.0971647  14.6566230
 105.7811392  22.2624912  12.4996249 105.9928287  22.9056672  11.8230630
 105.7341140  21.4287228  12.0318179 100.1999190  23.4184923   5.8106626
 100.6637536  23.6972626   5.0211249  99.9355988  22.5168367   5.6279717
  97.0923271  22.9656404   8.7486390  97.6624628  23.3943673   8.1103874
  97.6831383  22.6838989   9.4470575  97.5848438  18.1319832  16.9947401
  96.9547098  18.8136113  17.2282798  97.4784526  18.0202913  16.0500539
 106.8957220  25.1396867  10.6718606 107.7174663  24.7377054  10.3901288
 106.8919623  25.0365101  11.6234722 100.6613823  24.6880910  12.8279316
 100.7258256  25.1501318  13.6637488  99.9524747  24.0578275  12.9561626
  91.1631113  18.0522118  10.3528316  91.4139152  18.9369128  10.6185892
  91.6990662  17.8726720   9.5803408  96.8629180  12.4340598  19.3572652
  96.4696126  11.8806796  20.0320296  97.6795321  12.7451176  19.7479170
  95.6386123  26.9890212   5.3508975  95.8152751  27.9108177   5.1629959
  96.4342956  26.6748631   5.7803355  99.7797141  13.8498477  16.9492909
 100.5206855  14.4505630  16.8697371 100.0115064  13.1076115  16.3910951
  94.9238479  19.0354844  15.2271138  94.8091995  18.1340101  15.5278237
  94.0682997  19.2818541  14.8755955 102.0030317  26.9772584  16.8258639
 101.5594171  26.1908963  16.5079543 102.6647531  27.1651735  16.1602530
  96.7617438  28.5068386  11.3519317  97.3124864  28.3785449  10.5796311
  95.9228914  28.8063275  11.0014210 104.1011555  27.2575384  14.8540040
 104.0830031  28.0784265  14.3620309 105.0231475  27.1329459  15.0790181
 100.5584609  24.7719514  15.6963548 101.0912946  24.0107802  15.4662856
 100.0298691  24.4793166  16.4387703  99.8863988  28.0461749   6.5275763
  99.8440166  28.2722595   5.5984295 100.8026686  27.8125123   6.6761564
 103.3329621  18.5145816  13.4256392 103.6879009  18.7417289  14.2850857
 103.9801753  18.8464193  12.8033647  97.2269485  15.6222347  10.2102733
  97.8668864  15.4811106   9.5125696  96.3947015  15.3356861   9.8341335
  98.0029788  24.9224778   6.3237725  98.7970387  24.4275098   6.1220300
  97.2921481  24.3942641   5.9605431 102.8224633  27.3042873  10.6750093
 102.8761655  27.8733809  11.4427809 101.9539414  27.4744758  10.3104130
  95.7023026  17.0060429  12.1574544  96.3746080  16.7977792  11.5087193
  94.8752813  16.8082515  11.7179776 101.6048598  13.6322370  14.1740205
 100.9576513  14.3312320  14.0804681 102.3749614  14.0658514  14.5416453
 105.0127396  23.8971222  17.2490758 104.8612903  23.6681774  16.3320842
 105.0032076  24.8541824  17.2622103 101.7812733  21.4703135  12.2337025
 102.7104793  21.6214295  12.0605992 101.3603763  21.5587156  11.3785671
 100.5801064  25.4953800  10.0035562 100.4412150  25.1272584  10.8761500
  99.7915661  26.0101439   9.8319520 101.1749216  30.5962896   1.3461099
 101.3500972  30.1250939   2.1606722 100.4882004  31.2228662   1.5742360
 102.1306280  24.8735402   7.3924400 101.7956112  24.8336172   8.2882050
 101.6310225  24.2080118   6.9194810  96.1050524  20.2803032  12.9176981
  95.9670321  19.5483271  13.5188520  97.0155447  20.1911932  12.6361169
  98.7332824  19.9922992  12.4060661  99.4432443  19.3516184  12.3647279
  98.6902132  20.2435887  13.3286842 106.7219603  26.9290345  15.3267240
 106.6632149  26.2449565  14.6597823 107.1239121  27.6709335  14.8747866
  97.4461758  16.9788210  14.2256300  96.9099115  16.5278948  14.8777897
  96.8578467  17.1134118  13.4826765  95.7410302  33.7452259   8.1200959
  95.9806900  34.3770783   8.7979978  94.8979498  33.3940299   8.4066318
 106.7237010  24.8929929  13.5581220 105.8363789  24.5555851  13.6807619
 107.2935561  24.1612960  13.7949985  93.1800879  16.1144217  11.3109295
  93.0959068  15.5069887  10.5759705  92.3583586  16.6053236  11.3118791
 100.2538164  29.5531381  10.5242463 100.1808335  30.3586353  11.0361768
  99.8115557  29.7523347   9.6990484 100.0427943  28.7903151   4.0345285
  99.2595465  29.3324832   4.1283509 100.7420688  29.3077131   4.4339526
 102.7136847  29.4518215  12.6800622 103.4264819  30.0865680  12.6076523
 102.2226876  29.5482081  11.8640624  97.7648761  27.2012659  13.5006193
  98.4658220  27.8349142  13.6535587  97.2943876  27.5427390  12.7401832
 102.5257220  29.7916959   5.4286913 102.7079615  28.9738615   5.8914665
 103.3490206  30.0084652   4.9911803 101.6137620  20.4977077  17.8124780
 100.9378257  20.3971207  18.4827155 102.4365253  20.3416291  18.2760777
  93.3616479  26.7349014  10.4337295  93.9469915  25.9892702  10.5665199
  93.1641317  27.0452971  11.3173959  96.2155134  29.7700261   5.4499738
  95.5465509  30.2546389   4.9663778  96.0768004  30.0169482   6.3643116
 100.3560402  31.8044005  12.0482396 100.9078710  31.9675626  12.8131481
 100.6966596  32.3948443  11.3762421  95.3324896  14.1519155  12.6504281
  95.3966222  15.0133985  12.2381678  95.2692016  13.5393156  11.9176639
  94.8077168  16.2242287  16.2977315  95.4349207  15.8419364  16.9114839
  93.9505087  16.0056489  16.6633007 105.2071277  26.6305262  17.9031050
 105.7511181  27.2435221  17.4086005 104.6258122  27.1884841  18.4198063
 103.4928790  29.7525980   9.0346078 103.3679929  28.9515720   8.5257024
 104.1507881  30.2472174   8.5460048 105.5563698  27.5535000  10.6625628
 104.6094034  27.4340352  10.5903955 105.9046471  26.6657498  10.7451890
  97.9163271  13.4429139  14.4863870  98.4397673  13.6891436  15.2490179
  97.6975605  14.2749174  14.0667007 102.5610131  27.3487717   6.8629980
 102.4135094  26.4204424   7.0437550 103.3863625  27.3707807   6.3787056
 106.1644253  28.1716275   7.9494853 107.0890801  27.9659137   7.8119304
 105.9959557  27.9232676   8.8584195  99.1215817  14.3842834  12.1713541
  98.7812637  13.5850647  12.5734220  98.4154823  14.6844545  11.5990374
  97.2970867  18.1611267   8.4332842  97.1515448  18.4751571   9.3257124
  96.8196071  18.7796168   7.8803741 101.0093381  15.5851156  10.5266859
 100.7511159  16.5068226  10.5251190 100.4778421  15.1881590  11.2167323
  91.7716529  20.7016612  11.3720503  91.2269997  21.4776420  11.5040778
  92.6495879  21.0487416  11.2139625  92.5582551  19.8286508  14.2650660
  91.8164287  19.9769143  14.8515291  92.2375295  20.0894774  13.4017410
 100.5026214  29.3702486  14.0631050 100.8113340  29.1251633  14.9353750
 101.3001696  29.5749125  13.5749921 100.5246826  31.5240396   6.2936427
 100.0851816  31.0316775   6.9869284 101.2754943  30.9813364   6.0528502
  93.0039165  27.7151937   6.2961055  93.8297185  27.4155709   5.9159698
  92.6533217  26.9459559   6.7450844  97.9720698  27.0678405   8.3658729
  97.3500707  26.4049110   8.0660956  98.6425565  27.0939537   7.6832376
  91.2047770  25.6338263   7.2549989  90.3679678  25.2060438   7.0733990
  91.1771415  25.8270707   8.1920780  98.0445225  15.5460193  17.9591235
  98.0933381  16.4222316  17.5769004  98.5867740  15.0037586  17.3862878
 108.5300071  26.0901316  17.2392372 107.7395615  26.0725455  16.6996871
 108.2933426  26.6289610  17.9941408 108.6497946  22.9393783  14.5525100
 108.6995951  22.7743790  15.4940623 108.5411870  22.0721042  14.1622981
 105.9401709  18.9224711  15.8684407 106.8411571  18.7831176  15.5768405
 106.0149683  19.0879166  16.8082584 100.2744514  16.2991566  14.7137593
  99.4047823  16.5925132  14.4420182 100.5103994  16.8832011  15.4344857
 110.1516143  25.3590724  14.7967122 109.8600951  25.7220705  15.6330583
 109.5388274  24.6457733  14.6180454 101.3015101  23.5009018  18.1145646
 102.2218111  23.6787617  18.3085692 101.2664684  22.5565063  17.9625345
  94.2977174  21.4110052  10.7568427  94.5163184  22.3427160  10.7756461
  94.7102948  21.0518027  11.5423231  99.1705039  16.9843258  20.1471176
  99.0701766  17.9337615  20.0783267  98.9526581  16.6561497  19.2747246
  90.3885526  22.3150523   9.0092042  89.6948998  21.9004476   8.4961997
  91.1358517  22.3571059   8.4125461  99.0336309  20.4140397  18.9636238
  98.5503391  21.2140757  19.1700127  99.1197248  20.4248342  18.0103682
  94.9609647  24.3044932  11.0004671  95.9152900  24.2728874  10.9334603
  94.7622170  23.8435555  11.8154897  95.5509029  22.8746048  13.5675469
  96.3701918  23.3690126  13.5910306  95.8245837  21.9578016  13.5393037
  93.3159876  29.8464551   8.0174869  93.1814344  29.0864952   7.4512867
  92.8991938  30.5705451   7.5503658  96.4729001  30.7433868   8.2293312
  96.3561386  31.6879301   8.1272002  95.6521448  30.4407430   8.6179111
  90.8043943  17.2084182  14.2667666  91.4502807  16.6983136  14.7554891
  90.5961094  17.9452863  14.8411091 103.3297335  24.2765029  19.7659807
 104.1988495  24.4505681  19.4046442 102.8504087  25.0959446  19.6435536
  97.4983516  31.3962130  11.4449240  98.4010762  31.4285740  11.7615735
  97.2720886  30.4662581  11.4595576  99.2537118  30.1493117   8.1059319
  98.3032749  30.1494978   7.9923691  99.5569604  29.4025851   7.5895354
  95.1441434  14.3551799  18.3642680  96.0072896  13.9988604  18.5746005
  94.5706845  14.0165694  19.0518085 111.7979517  35.9381083   9.1066606
 111.4598029  35.8222148   8.2187141 112.6669286  35.5372248   9.0867612
 107.6566333  37.7916560   5.0963497 107.0931198  37.7006497   4.3279785
 107.5418728  36.9716464   5.5765990 112.2799300  37.0915935  15.0652812
 112.2687941  36.6968733  14.1933315 112.4419940  36.3582007  15.6586583
 105.2030765  39.2867751   7.9347718 105.9952057  38.9458576   7.5194017
 105.4427415  39.3962726   8.8549871 109.0006562  39.8753047  14.0131996
 108.7096428  40.7798678  13.8978662 109.6363546  39.9169574  14.7276065
 109.9262768  37.2529895  10.6033355 110.5226341  37.0285918   9.8890318
 109.9837740  36.5114641  11.2058803 113.9596447  39.5614462  11.0081789
 113.6597170  40.4639501  10.8997597 113.6147506  39.2946645  11.8602942
 107.4108928  36.0128259   7.0418494 106.4859425  35.8804473   7.2496186
 107.6593341  36.7922478   7.5388436 104.7717739  35.6561533   7.8762283
 104.9010120  35.9096012   8.7901695 104.0915190  36.2489241   7.5566938
 108.9417226  46.3258783   3.9752757 108.8641256  47.2766608   4.0541238
 108.3378870  45.9804655   4.6327683 111.4334456  33.4986648  16.6314124
 110.6567790  34.0580568  16.6216989 112.0725019  33.9843431  17.1528994
 109.6880829  36.3072101  16.1932091 110.4295513  36.8457145  15.9166915
 108.9817814  36.9338390  16.3503643 115.1636168  38.4501242  14.7904252
 115.5719524  38.0083652  14.0458885 114.4413430  37.8753869  15.0438445
 111.5167238  33.3873849  12.1637809 112.3628433  33.8113262  12.3072458
 111.4565876  32.7307473  12.8576372 115.4864983  39.0102432   8.5456541
 114.8573845  39.1748147   7.8432609 115.0990645  39.4244042   9.3167505
 114.6666684  31.0478217  13.8218983 114.4227615  31.8020277  13.2853259
 114.9426614  31.4263565  14.6566230 116.6205146  37.5916829  12.4996249
 116.8322042  38.2348589  11.8230630 116.5734895  36.7579146  12.0318179
 111.0392945  38.7476841   5.8106626 111.5031290  39.0264543   5.0211249
 110.7749743  37.8460285   5.6279717 107.9317026  38.2948322   8.7486390
 108.5018383  38.7235590   8.1103874 108.5225138  38.0130907   9.4470575
 108.4242192  33.4611750  16.9947401 107.7940853  34.1428030  17.2282798
 108.3178280  33.3494831  16.0500539 103.7187165  33.1283546   7.9213325
 102.9286219  33.3841074   7.4453436 104.2098412  33.9431883   8.0265366
 117.7350974  40.4688785  10.6718606 118.5568418  40.0668972  10.3901288
 117.7313377  40.3657019  11.6234722 105.6701910  33.4928125   4.8796802
 104.8733073  33.6046819   5.3980297 105.4427502  33.8314777   4.0137692
 111.5007578  40.0172828  12.8279316 111.5652010  40.4793235  13.6637488
 110.7918502  39.3870193  12.9561626 102.0024868  33.3814036  10.3528316
 102.2532906  34.2661046  10.6185892 102.5384416  33.2018638   9.5803408
 107.7022935  27.7632515  19.3572652 107.3089881  27.2098714  20.0320296
 108.5189075  28.0743094  19.7479170 104.6684993  39.2016374   3.2686222
 105.1809513  39.9959624   3.4191787 105.3207706  38.5042664   3.2019823
 106.4779877  42.3182130   5.3508975 106.6546506  43.2400095   5.1629959
 107.2736711  42.0040549   5.7803355 110.6190896  29.1790394  16.9492909
 111.3600609  29.7797548  16.8697371 110.8508819  28.4368032  16.3910951
 105.7632234  34.3646762  15.2271138 105.6485749  33.4632019  15.5278237
 104.9076752  34.6110458  14.8755955 112.8424072  42.3064502  16.8258639
 112.3987926  41.5200881  16.5079543 113.5041285  42.4943653  16.1602530
 107.6011193  43.8360304  11.3519317 108.1518618  43.7077367  10.5796311
 106.7622669  44.1355193  11.0014210 114.9405310  42.5867302  14.8540040
 114.9223785  43.4076183  14.3620309 115.8625230  42.4621377  15.0790181
 111.3978364  40.1011431  15.6963548 111.9306701  39.3399720  15.4662856
 110.8692445  39.8085083  16.4387703 102.6333910  37.5305028   4.0445792
 103.4709132  37.9402036   3.8279500 102.8112177  36.5904470   4.0145986
 102.6560081  34.8695743   4.7156526 102.4584480  34.2765104   3.9907592
 102.1006745  34.5647953   5.4332465 110.7257742  43.3753666   6.5275763
 110.6833921  43.6014513   5.5984295 111.6420441  43.1417041   6.6761564
 114.1723376  33.8437734  13.4256392 114.5272764  34.0709207  14.2850857
 114.8195507  34.1756111  12.8033647 108.0663239  30.9514265  10.2102733
 108.7062618  30.8103024   9.5125696 107.2340770  30.6648778   9.8341335
 108.8423543  40.2516695   6.3237725 109.6364141  39.7567015   6.1220300
 108.1315235  39.7234558   5.9605431 113.6618387  42.6334791  10.6750093
 113.7155410  43.2025727  11.4427809 112.7933169  42.8036676  10.3104130
 105.0691855  30.9214590   4.9875720 105.3298673  31.8359923   4.8784880
 105.8909028  30.4539032   5.1372332 106.5416781  32.3352347  12.1574544
 107.2139834  32.1269709  11.5087193 105.7146567  32.1374433  11.7179776
 112.4442353  28.9614288  14.1740205 111.7970268  29.6604238  14.0804681
 113.2143368  29.3950432  14.5416453 115.8521151  39.2263140  17.2490758
 115.7006657  38.9973692  16.3320842 115.8425830  40.1833742  17.2622103
 112.6206487  36.7995053  12.2337025 113.5498547  36.9506213  12.0605992
 112.1997517  36.8879074  11.3785671 111.4194819  40.8245717  10.0035562
 111.2805905  40.4564502  10.8761500 110.6309415  41.3393357   9.8319520
 112.0142971  45.9254814   1.3461099 112.1894727  45.4542857   2.1606722
 111.3275759  46.5520580   1.5742360 112.9700034  40.2027320   7.3924400
 112.6349867  40.1628090   8.2882050 112.4703980  39.5372036   6.9194810
 106.9444278  35.6094950  12.9176981 106.8064076  34.8775189  13.5188520
 107.8549201  35.5203850  12.6361169 109.5726579  35.3214909  12.4060661
 110.2826197  34.6808102  12.3647279 109.5295887  35.5727804  13.3286842
 117.5613357  42.2582263  15.3267240 117.5025904  41.5741483  14.6597823
 117.9632876  43.0001253  14.8747866 108.2855513  32.3080127  14.2256300
 107.7492870  31.8570866  14.8777897 107.6972221  32.4426036  13.4826765
 106.5804056  49.0744177   8.1200959 106.8200654  49.7062701   8.7979978
 105.7373253  48.7232217   8.4066318 117.5630765  40.2221847  13.5581220
 116.6757543  39.8847768  13.6807619 118.1329316  39.4904878  13.7949985
  99.2159912  36.5545938   6.8824271  99.9030952  36.2407668   6.2945287
  99.0608040  37.4587303   6.6091523 104.0194634  31.4436135  11.3109295
 103.9352823  30.8361804  10.5759705 103.1977340  31.9345153  11.3118791
 111.0931918  44.8823299  10.5242463 111.0202089  45.6878270  11.0361768
 110.6509311  45.0815265   9.6990484 110.8821698  44.1195069   4.0345285
 110.0989220  44.6616749   4.1283509 111.5814443  44.6369049   4.4339526
 113.5530602  44.7810133  12.6800622 114.2658574  45.4157598  12.6076523
 113.0620630  44.8773999  11.8640624 108.6042515  42.5304576  13.5006193
 109.3051975  43.1641059  13.6535587 108.1337630  42.8719308  12.7401832
 113.3650975  45.1208877   5.4286913 113.5473369  44.3030533   5.8914665
 114.1883961  45.3376569   4.9911803 112.4531374  35.8268995  17.8124780
 111.7772011  35.7263124  18.4827155 113.2759008  35.6708209  18.2760777
 104.2010233  42.0640932  10.4337295 104.7863670  41.3184619  10.5665199
 104.0035072  42.3744888  11.3173959 107.0548888  45.0992179   5.4499738
 106.3859264  45.5838307   4.9663778 106.9161758  45.3461399   6.3643116
  98.7927888  34.6346532   9.1541738  98.8311987  34.1010122   9.9478856
  98.2868181  34.1081737   8.5352716 111.1954157  47.1335922  12.0482396
 111.7472465  47.2967544  12.8131481 111.5360350  47.7240360  11.3762421
 106.1718650  29.4811072  12.6504281 106.2359977  30.3425903  12.2381678
 106.1085770  28.8685074  11.9176639 105.6470923  31.5534205  16.2977315
 106.2742962  31.1711282  16.9114839 104.7898842  31.3348407  16.6633007
 116.0465031  41.9597180  17.9031050 116.5904935  42.5727138  17.4086005
 115.4651876  42.5176758  18.4198063 102.4236465  33.3610634   2.2295670
 102.7189907  32.4521312   2.1762723 101.5224501  33.3398373   1.9076672
 114.3322544  45.0817898   9.0346078 114.2073684  44.2807638   8.5257024
 114.9901635  45.5764091   8.5460048 105.9530712  31.4366630   8.2123218
 105.2317298  32.0502598   8.0730692 106.7423968  31.9724395   8.1339864
 116.3957453  42.8826918  10.6625628 115.4487788  42.7632269  10.5903955
 116.7440226  41.9949416  10.7451890 108.7557026  28.7721057  14.4863870
 109.2791428  29.0183354  15.2490179 108.5369359  29.6041092  14.0667007
 113.4003886  42.6779634   6.8629980 113.2528848  41.7496342   7.0437550
 114.2257379  42.6999725   6.3787056 117.0038008  43.5008193   7.9494853
 117.9284555  43.2951054   7.8119304 116.8353311  43.2524594   8.8584195
 109.9609571  29.7134752  12.1713541 109.6206391  28.9142565  12.5734220
 109.2548577  30.0136463  11.5990374 108.1364622  33.4903185   8.4332842
 107.9909202  33.8043488   9.3257124 107.6589825  34.1088085   7.8803741
 111.8487135  30.9143073  10.5266859 111.5904913  31.8360144  10.5251190
 111.3172176  30.5173508  11.2167323 102.6110284  36.0308530  11.3720503
 102.0663752  36.8068337  11.5040778 103.4889634  36.3779334  11.2139625
 103.3976306  35.1578426  14.2650660 102.6558042  35.3061061  14.8515291
 103.0769050  35.4186691  13.4017410 111.3419968  44.6994404  14.0631050
 111.6507095  44.4543551  14.9353750 112.1395450  44.9041042  13.5749921
 111.3640580  46.8532314   6.2936427 110.9245571  46.3608692   6.9869284
 112.1148697  46.3105281   6.0528502 103.8432919  43.0443855   6.2961055
 104.6690939  42.7447626   5.9159698 103.4926971  42.2751477   6.7450844
 108.8114452  42.3970323   8.3658729 108.1894462  41.7341028   8.0660956
 109.4819319  42.4231455   7.6832376 102.0441524  40.9630181   7.2549989
 101.2073433  40.5352355   7.0733990 102.0165170  41.1562624   8.1920780
 108.8838980  30.8752111  17.9591235 108.9327135  31.7514234  17.5769004
 109.4261494  30.3329504  17.3862878 119.3693826  41.4193234  17.2392372
 118.5789369  41.4017373  16.6996871 119.1327180  41.9581528  17.9941408
 119.4891701  38.2685700  14.5525100 119.5389706  38.1035708  15.4940623
 119.3805624  37.4012959  14.1622981 108.3727959  40.9474246   1.8417189
 108.5216080  41.6309710   1.1883862 109.1794403  40.9279336   2.3566645
 116.7795463  34.2516628  15.8684407 117.6805326  34.1123093  15.5768405
 116.8543438  34.4171083  16.8082584 111.1138268  31.6283483  14.7137593
 110.2441578  31.9217049  14.4420182 111.3497749  32.2123928  15.4344857
 120.9909898  40.6882642  14.7967122 120.6994706  41.0512622  15.6330583
 120.3782029  39.9749650  14.6180454 106.1280592  36.9739424   2.8478258
 105.8826634  36.0701754   3.0458468 106.2976507  36.9756574   1.9057736
 112.1408856  38.8300935  18.1145646 113.0611865  39.0079534  18.3085692
 112.1058439  37.8856981  17.9625345 101.3591021  34.0239529   7.0398921
 101.0393805  33.1704837   6.7473295 100.8124449  34.2388107   7.7956888
 105.1370928  36.7401970  10.7568427 105.3556938  37.6719078  10.7756461
 105.5496702  36.3809944  11.5423231 110.0098794  32.3135176  20.1471176
 109.9095521  33.2629533  20.0783267 109.7920336  31.9853415  19.2747246
 101.2279281  37.6442441   9.0092042 100.5342752  37.2296393   8.4961997
 101.9752272  37.6862977   8.4125461 109.8730064  35.7432315  18.9636238
 109.3897146  36.5432675  19.1700127 109.9591003  35.7540260  18.0103682
 103.1416023  37.5760694   6.8858057 103.1186712  37.6748382   5.9339940
 103.4516660  38.4225845   7.2075223 105.8003401  39.6336849  11.0004671
 106.7546655  39.6020792  10.9334603 105.6015925  39.1727473  11.8154897
 106.3902783  38.2037965  13.5675469 107.2095672  38.6982044  13.5910306
 106.6639591  37.2869934  13.5393037 104.1553630  45.1756469   8.0174869
 104.0208098  44.4156870   7.4512867 103.7385692  45.8997369   7.5503658
 107.3122756  46.0725786   8.2293312 107.1955140  47.0171218   8.1272002
 106.4915202  45.7699347   8.6179111 101.6437698  32.5376099  14.2667666
 102.2896561  32.0275053  14.7554891 101.4354849  33.2744781  14.8411091
 114.1691090  39.6056947  19.7659807 115.0382250  39.7797599  19.4046442
 113.6897841  40.4251364  19.6435536 108.3377270  46.7254048  11.4449240
 109.2404517  46.7577658  11.7615735 108.1114640  45.7954499  11.4595576
 110.0930872  45.4785034   8.1059319 109.1426503  45.4786896   7.9923691
 110.3963358  44.7317769   7.5895354 105.9835189  29.6843716  18.3642680
 106.8466650  29.3280521  18.5746005 105.4100599  29.3457611  19.0518085
 122.6373272  51.2673001   9.1066606 122.2991783  51.1514066   8.2187141
 123.5063040  50.8664166   9.0867612 118.4960088  53.1208477   5.0963497
 117.9324953  53.0298414   4.3279785 118.3812483  52.3008382   5.5765990
 123.1193055  52.4207853  15.0652812 123.1081696  52.0260651  14.1933315
 123.2813694  51.6873925  15.6586583 116.0424520  54.6159669   7.9347718
 116.8345811  54.2750493   7.5194017 116.2821170  54.7254644   8.8549871
 119.8400316  55.2044964  14.0131996 119.5490182  56.1090595  13.8978662
 120.4757300  55.2461492  14.7276065 120.7656523  52.5821813  10.6033355
 121.3620095  52.3577835   9.8890318 120.8231494  51.8406558  11.2058803
 124.7990201  54.8906380  11.0081789 124.4990924  55.7931419  10.8997597
 124.4541261  54.6238563  11.8602942 118.2502683  51.3420177   7.0418494
 117.3253179  51.2096391   7.2496186 118.4987096  52.1214396   7.5388436
 115.6111494  50.9853450   7.8762283 115.7403875  51.2387929   8.7901695
 114.9308945  51.5781158   7.5566938 119.7810981  61.6550700   3.9752757
 119.7035011  62.6058525   4.0541238 119.1772625  61.3096573   4.6327683
 122.2728211  48.8278566  16.6314124 121.4961545  49.3872486  16.6216989
 122.9118774  49.3135349  17.1528994 120.5274583  51.6364019  16.1932091
 121.2689267  52.1749063  15.9166915 119.8211568  52.2630308  16.3503643
 126.0029923  53.7793159  14.7904252 126.4113279  53.3375570  14.0458885
 125.2807184  53.2045787  15.0438445 122.3560993  48.7165766  12.1637809
 123.2022188  49.1405180  12.3072458 122.2959630  48.0599391  12.8576372
 126.3258737  54.3394350   8.5456541 125.6967600  54.5040064   7.8432609
 125.9384399  54.7535960   9.3167505 125.5060438  46.3770135  13.8218983
 125.2621370  47.1312195  13.2853259 125.7820369  46.7555482  14.6566230
 127.4598901  52.9208747  12.4996249 127.6715796  53.5640507  11.8230630
 127.4128649  52.0871064  12.0318179 121.8786699  54.0768758   5.8106626
 122.3425045  54.3556461   5.0211249 121.6143497  53.1752203   5.6279717
 118.7710780  53.6240240   8.7486390 119.3412137  54.0527508   8.1103874
 119.3618892  53.3422824   9.4470575 119.2635947  48.7903667  16.9947401
 118.6334607  49.4719948  17.2282798 119.1572035  48.6786749  16.0500539
 114.5580919  48.4575463   7.9213325 113.7679973  48.7132992   7.4453436
 115.0492167  49.2723801   8.0265366 128.5744729  55.7980702  10.6718606
 129.3962172  55.3960890  10.3901288 128.5707132  55.6948937  11.6234722
 116.5095665  48.8220042   4.8796802 115.7126828  48.9338737   5.3980297
 116.2821257  49.1606695   4.0137692 122.3401332  55.3464746  12.8279316
 122.4045765  55.8085153  13.6637488 121.6312256  54.7162111  12.9561626
 112.8418622  48.7105954  10.3528316 113.0926661  49.5952964  10.6185892
 113.3778171  48.5310555   9.5803408 118.5416689  43.0924433  19.3572652
 118.1483635  42.5390632  20.0320296 119.3582830  43.4035012  19.7479170
 115.5078747  54.5308291   3.2686222 116.0203268  55.3251541   3.4191787
 116.1601460  53.8334582   3.2019823 117.3173632  57.6474047   5.3508975
 117.4940260  58.5692012   5.1629959 118.1130465  57.3332467   5.7803355
 121.4584650  44.5082312  16.9492909 122.1994364  45.1089465  16.8697371
 121.6902573  43.7659950  16.3910951 116.6025988  49.6938679  15.2271138
 116.4879504  48.7923937  15.5278237 115.7470506  49.9402376  14.8755955
 123.6817826  57.6356420  16.8258639 123.2381680  56.8492798  16.5079543
 124.3435040  57.8235570  16.1602530 118.4404947  59.1652221  11.3519317
 118.9912373  59.0369285  10.5796311 117.6016423  59.4647110  11.0014210
 125.7799064  57.9159220  14.8540040 125.7617540  58.7368101  14.3620309
 126.7018984  57.7913295  15.0790181 122.2372118  55.4303349  15.6963548
 122.7700455  54.6691637  15.4662856 121.7086200  55.1377001  16.4387703
 113.4727664  52.8596946   4.0445792 114.3102886  53.2693954   3.8279500
 113.6505932  51.9196388   4.0145986 113.4953835  50.1987661   4.7156526
 113.2978235  49.6057022   3.9907592 112.9400499  49.8939871   5.4332465
 121.5651497  58.7045584   6.5275763 121.5227675  58.9306430   5.5984295
 122.4814195  58.4708959   6.6761564 125.0117130  49.1729652  13.4256392
 125.3666518  49.4001125  14.2850857 125.6589262  49.5048028  12.8033647
 118.9056993  46.2806183  10.2102733 119.5456373  46.1394942   9.5125696
 118.0734524  45.9940696   9.8341335 119.6817297  55.5808613   6.3237725
 120.4757896  55.0858933   6.1220300 118.9708990  55.0526476   5.9605431
 124.5012142  57.9626709  10.6750093 124.5549164  58.5317645  11.4427809
 123.6326923  58.1328594  10.3104130 115.9085610  46.2506508   4.9875720
 116.1692427  47.1651841   4.8784880 116.7302782  45.7830950   5.1372332
 117.3810535  47.6644265  12.1574544 118.0533589  47.4561627  11.5087193
 116.5540322  47.4666351  11.7179776 123.2836107  44.2906206  14.1740205
 122.6364022  44.9896155  14.0804681 124.0537123  44.7242350  14.5416453
 126.6914905  54.5555058  17.2490758 126.5400412  54.3265610  16.3320842
 126.6819585  55.5125659  17.2622103 123.4600242  52.1286971  12.2337025
 124.3892302  52.2798130  12.0605992 123.0391272  52.2170991  11.3785671
 122.2588573  56.1537635  10.0035562 122.1199659  55.7856419  10.8761500
 121.4703170  56.6685274   9.8319520 122.8536725  61.2546731   1.3461099
 123.0288481  60.7834775   2.1606722 122.1669513  61.8812498   1.5742360
 123.8093789  55.5319238   7.3924400 123.4743621  55.4920008   8.2882050
 123.3097734  54.8663954   6.9194810 117.7838032  50.9386868  12.9176981
 117.6457830  50.2067107  13.5188520 118.6942956  50.8495768  12.6361169
 120.4120333  50.6506827  12.4060661 121.1219952  50.0100019  12.3647279
 120.3689641  50.9019722  13.3286842 128.4007112  57.5874180  15.3267240
 128.3419658  56.9033401  14.6597823 128.8026630  58.3293170  14.8747866
 119.1249267  47.6372045  14.2256300 118.5886624  47.1862783  14.8777897
 118.5365976  47.7717954  13.4826765 117.4197811  64.4036094   8.1200959
 117.6594409  65.0354618   8.7979978 116.5767007  64.0524134   8.4066318
 128.4024519  55.5513764  13.5581220 127.5151298  55.2139686  13.6807619
 128.9723070  54.8196796  13.7949985 110.0553666  51.8837856   6.8824271
 110.7424706  51.5699586   6.2945287 109.9001795  52.7879221   6.6091523
 114.8588388  46.7728053  11.3109295 114.7746577  46.1653722  10.5759705
 114.0371095  47.2637071  11.3118791 121.9325673  60.2115217  10.5242463
 121.8595844  61.0170188  11.0361768 121.4903066  60.4107182   9.6990484
 121.7215452  59.4486987   4.0345285 120.9382974  59.9908667   4.1283509
 122.4208197  59.9660966   4.4339526 124.3924356  60.1102051  12.6800622
 125.1052328  60.7449516  12.6076523 123.9014385  60.2065917  11.8640624
 119.4436270  57.8596494  13.5006193 120.1445729  58.4932977  13.6535587
 118.9731385  58.2011226  12.7401832 124.2044729  60.4500795   5.4286913
 124.3867124  59.6322451   5.8914665 125.0277715  60.6668487   4.9911803
 123.2925129  51.1560913  17.8124780 122.6165766  51.0555042  18.4827155
 124.1152762  51.0000126  18.2760777 115.0403988  57.3932849  10.4337295
 115.6257424  56.6476537  10.5665199 114.8428826  57.7036806  11.3173959
 117.8942643  60.4284097   5.4499738 117.2253018  60.9130224   4.9663778
 117.7555513  60.6753317   6.3643116 109.6321642  49.9638449   9.1541738
 109.6705742  49.4302040   9.9478856 109.1261935  49.4373655   8.5352716
 122.0347911  62.4627840  12.0482396 122.5866219  62.6259462  12.8131481
 122.3754105  63.0532278  11.3762421 117.0112405  44.8102990  12.6504281
 117.0753731  45.6717821  12.2381678 116.9479525  44.1976992  11.9176639
 116.4864677  46.8826122  16.2977315 117.1136716  46.5003200  16.9114839
 115.6292596  46.6640324  16.6633007 126.8858786  57.2889098  17.9031050
 127.4298690  57.9019056  17.4086005 126.3045631  57.8468676  18.4198063
 113.2630220  48.6902552   2.2295670 113.5583661  47.7813230   2.1762723
 112.3618256  48.6690291   1.9076672 125.1716299  60.4109816   9.0346078
 125.0467438  59.6099555   8.5257024 125.8295390  60.9056009   8.5460048
 116.7924467  46.7658548   8.2123218 116.0711053  47.3794516   8.0730692
 117.5817723  47.3016313   8.1339864 127.2351207  58.2118836  10.6625628
 126.2881543  58.0924187  10.5903955 127.5833980  57.3241334  10.7451890
 119.5950780  44.1012975  14.4863870 120.1185182  44.3475271  15.2490179
 119.3763114  44.9333009  14.0667007 124.2397640  58.0071552   6.8629980
 124.0922603  57.0788259   7.0437550 125.0651134  58.0291643   6.3787056
 127.8431762  58.8300111   7.9494853 128.7678310  58.6242972   7.8119304
 127.6747066  58.5816512   8.8584195 120.8003326  45.0426670  12.1713541
 120.4600146  44.2434483  12.5734220 120.0942332  45.3428381  11.5990374
 118.9758376  48.8195103   8.4332842 118.8302957  49.1335406   9.3257124
 118.4983580  49.4380003   7.8803741 122.6880890  46.2434991  10.5266859
 122.4298668  47.1652062  10.5251190 122.1565930  45.8465426  11.2167323
 113.4504038  51.3600447  11.3720503 112.9057506  52.1360255  11.5040778
 114.3283388  51.7071252  11.2139625 114.2370060  50.4870343  14.2650660
 113.4951796  50.6352979  14.8515291 113.9162804  50.7478609  13.4017410
 122.1813723  60.0286322  14.0631050 122.4900849  59.7835468  14.9353750
 122.9789205  60.2332960  13.5749921 122.2034335  62.1824231   6.2936427
 121.7639325  61.6900610   6.9869284 122.9542452  61.6397199   6.0528502
 114.6826674  58.3735772   6.2961055 115.5084694  58.0739544   5.9159698
 114.3320726  57.6043395   6.7450844 119.6508207  57.7262240   8.3658729
 119.0288216  57.0632945   8.0660956 120.3213074  57.7523372   7.6832376
 112.8835279  56.2922099   7.2549989 112.0467187  55.8644273   7.0733990
 112.8558924  56.4854542   8.1920780 119.7232734  46.2044028  17.9591235
 119.7720890  47.0806151  17.5769004 120.2655249  45.6621421  17.3862878
 130.2087580  56.7485152  17.2392372 129.4183124  56.7309291  16.6996871
 129.9720935  57.2873445  17.9941408 130.3285455  53.5977618  14.5525100
 130.3783460  53.4327626  15.4940623 130.2199379  52.7304877  14.1622981
 119.2121714  56.2766164   1.8417189 119.3609834  56.9601628   1.1883862
 120.0188157  56.2571254   2.3566645 127.6189218  49.5808546  15.8684407
 128.5199080  49.4415011  15.5768405 127.6937192  49.7463001  16.8082584
 121.9532023  46.9575401  14.7137593 121.0835332  47.2508967  14.4420182
 122.1891503  47.5415846  15.4344857 131.8303652  56.0174560  14.7967122
 131.5388460  56.3804540  15.6330583 131.2175783  55.3041568  14.6180454
 116.9674347  52.3031341   2.8478258 116.7220389  51.3993671   3.0458468
 117.1370261  52.3048492   1.9057736 122.9802610  54.1592853  18.1145646
 123.9005620  54.3371452  18.3085692 122.9452193  53.2148898  17.9625345
 112.1984775  49.3531447   7.0398921 111.8787560  48.4996755   6.7473295
 111.6518204  49.5680025   7.7956888 115.9764683  52.0693888  10.7568427
 116.1950693  53.0010996  10.7756461 116.3890457  51.7101862  11.5423231
 120.8492548  47.6427094  20.1471176 120.7489275  48.5921450  20.0783267
 120.6314090  47.3145332  19.2747246 112.0673035  52.9734358   9.0092042
 111.3736507  52.5588311   8.4961997 112.8146026  53.0154895   8.4125461
 120.7123818  51.0724232  18.9636238 120.2290900  51.8724592  19.1700127
 120.7984757  51.0832177  18.0103682 113.9809778  52.9052612   6.8858057
 113.9580466  53.0040299   5.9339940 114.2910414  53.7517763   7.2075223
 116.6397156  54.9628767  11.0004671 117.5940409  54.9312709  10.9334603
 116.4409679  54.5019391  11.8154897 117.2296538  53.5329883  13.5675469
 118.0489427  54.0273962  13.5910306 117.5033346  52.6161851  13.5393037
 114.9947385  60.5048387   8.0174869 114.8601853  59.7448787   7.4512867
 114.5779447  61.2289286   7.5503658 118.1516510  61.4017704   8.2293312
 118.0348895  62.3463136   8.1272002 117.3308957  61.0991265   8.6179111
 112.4831452  47.8668017  14.2667666 113.1290316  47.3566971  14.7554891
 112.2748603  48.6036699  14.8411091 125.0084844  54.9348864  19.7659807
 125.8776004  55.1089517  19.4046442 124.5291596  55.7543281  19.6435536
 119.1771025  62.0545965  11.4449240 120.0798271  62.0869576  11.7615735
 118.9508395  61.1246416  11.4595576 120.9324627  60.8076952   8.1059319
 119.9820258  60.8078814   7.9923691 121.2357113  60.0609687   7.5895354
 116.8228943  45.0135634  18.3642680 117.6860405  44.6572439  18.5746005
 116.2494354  44.6749529  19.0518085 133.4767026  66.5964919   9.1066606
 133.1385538  66.4805983   8.2187141 134.3456795  66.1956084   9.0867612
 129.3353842  68.4500395   5.0963497 128.7718707  68.3590332   4.3279785
 129.2206237  67.6300299   5.5765990 133.9586809  67.7499770  15.0652812
 133.9475450  67.3552569  14.1933315 134.1207449  67.0165843  15.6586583
 126.8818274  69.9451587   7.9347718 127.6739566  69.6042411   7.5194017
 127.1214924  70.0546562   8.8549871 130.6794071  70.5336882  14.0131996
 130.3883937  71.4382513  13.8978662 131.3151055  70.5753410  14.7276065
 131.6050277  67.9113731  10.6033355 132.2013850  67.6869753   9.8890318
 131.6625249  67.1698476  11.2058803 135.6383956  70.2198298  11.0081789
 135.3384679  71.1223336  10.8997597 135.2935015  69.9530481  11.8602942
 129.0896437  66.6712094   7.0418494 128.1646934  66.5388308   7.2496186
 129.3380850  67.4506314   7.5388436 126.4505248  66.3145368   7.8762283
 126.5797629  66.5679847   8.7901695 125.7702699  66.9073076   7.5566938
 133.1121965  64.1570483  16.6314124 132.3355299  64.7164403  16.6216989
 133.7512528  64.6427266  17.1528994 131.3668337  66.9655937  16.1932091
 132.1083022  67.5040981  15.9166915 130.6605323  67.5922225  16.3503643
 136.8423677  69.1085077  14.7904252 137.2507033  68.6667488  14.0458885
 136.1200939  68.5337705  15.0438445 133.1954747  64.0457684  12.1637809
 134.0415942  64.4697097  12.3072458 133.1353385  63.3891308  12.8576372
 137.1652492  69.6686268   8.5456541 136.5361354  69.8331982   7.8432609
 136.7778154  70.0827877   9.3167505 136.3454193  61.7062052  13.8218983
 136.1015124  62.4604113  13.2853259 136.6214123  62.0847400  14.6566230
 138.2992655  68.2500665  12.4996249 138.5109551  68.8932425  11.8230630
 138.2522404  67.4162981  12.0318179 129.6104535  68.9532157   8.7486390
 130.1805892  69.3819426   8.1103874 130.2012647  68.6714742   9.4470575
 130.1029701  64.1195585  16.9947401 129.4728362  64.8011866  17.2282798
 129.9965789  64.0078666  16.0500539 125.3974674  63.7867381   7.9213325
 124.6073728  64.0424909   7.4453436 125.8885921  64.6015719   8.0265366
 139.4138483  71.1272620  10.6718606 140.2355927  70.7252807  10.3901288
 139.4100886  71.0240854  11.6234722 127.3489419  64.1511960   4.8796802
 126.5520582  64.2630654   5.3980297 127.1215011  64.4898612   4.0137692
 133.1795087  70.6756663  12.8279316 133.2439519  71.1377071  13.6637488
 132.4706011  70.0454028  12.9561626 123.6812377  64.0397871  10.3528316
 123.9320415  64.9244881  10.6185892 124.2171925  63.8602473   9.5803408
 129.3810444  58.4216351  19.3572652 128.9877390  57.8682549  20.0320296
 130.1976584  58.7326929  19.7479170 126.3472502  69.8600209   3.2686222
 126.8597022  70.6543459   3.4191787 126.9995215  69.1626499   3.2019823
 132.2978405  59.8374230  16.9492909 133.0388118  60.4381383  16.8697371
 132.5296328  59.0951868  16.3910951 127.4419743  65.0230597  15.2271138
 127.3273258  64.1215854  15.5278237 126.5864261  65.2694294  14.8755955
 134.5211581  72.9648337  16.8258639 134.0775435  72.1784716  16.5079543
 135.1828794  73.1527488  16.1602530 129.2798702  74.4944139  11.3519317
 129.8306127  74.3661202  10.5796311 128.4410178  74.7939028  11.0014210
 136.6192819  73.2451137  14.8540040 136.6011294  74.0660018  14.3620309
 137.5412739  73.1205213  15.0790181 133.0765873  70.7595267  15.6963548
 133.6094210  69.9983555  15.4662856 132.5479954  70.4668919  16.4387703
 124.3121418  68.1888863   4.0445792 125.1496641  68.5985872   3.8279500
 124.4899686  67.2488305   4.0145986 124.3347590  65.5279579   4.7156526
 124.1371989  64.9348939   3.9907592 123.7794254  65.2231789   5.4332465
 135.8510885  64.5021569  13.4256392 136.2060273  64.7293042  14.2850857
 136.4983016  64.8339946  12.8033647 129.7450748  61.6098100  10.2102733
 130.3850127  61.4686859   9.5125696 128.9128279  61.3232614   9.8341335
 130.5211052  70.9100531   6.3237725 131.3151650  70.4150851   6.1220300
 129.8102744  70.3818394   5.9605431 135.3405896  73.2918626  10.6750093
 135.3942919  73.8609563  11.4427809 134.4720678  73.4620511  10.3104130
 126.7479364  61.5798425   4.9875720 127.0086182  62.4943758   4.8784880
 127.5696537  61.1122868   5.1372332 128.2204290  62.9936182  12.1574544
 128.8927343  62.7853545  11.5087193 127.3934076  62.7958268  11.7179776
 134.1229862  59.6198123  14.1740205 133.4757777  60.3188073  14.0804681
 134.8930877  60.0534267  14.5416453 137.5308660  69.8846976  17.2490758
 137.3794166  69.6557527  16.3320842 137.5213339  70.8417577  17.2622103
 134.2993996  67.4578888  12.2337025 135.2286056  67.6090048  12.0605992
 133.8785026  67.5462909  11.3785671 133.0982328  71.4829553  10.0035562
 132.9593414  71.1148337  10.8761500 132.3096924  71.9977192   9.8319520
 134.6487543  70.8611155   7.3924400 134.3137376  70.8211925   8.2882050
 134.1491489  70.1955871   6.9194810 128.6231787  66.2678785  12.9176981
 128.4851585  65.5359024  13.5188520 129.5336710  66.1787685  12.6361169
 131.2514088  65.9798745  12.4060661 131.9613706  65.3391937  12.3647279
 131.2083396  66.2311640  13.3286842 139.2400866  72.9166098  15.3267240
 139.1813412  72.2325318  14.6597823 139.6420385  73.6585088  14.8747866
 129.9643022  62.9663963  14.2256300 129.4280379  62.5154701  14.8777897
 129.3759730  63.1009871  13.4826765 139.2418274  70.8805682  13.5581220
 138.3545052  70.5431604  13.6807619 139.8116825  70.1488713  13.7949985
 120.8947421  67.2129774   6.8824271 121.5818461  66.8991504   6.2945287
 120.7395549  68.1171138   6.6091523 125.6982143  62.1019970  11.3109295
 125.6140332  61.4945640  10.5759705 124.8764849  62.5928989  11.3118791
 132.7719427  75.5407134  10.5242463 132.6989598  76.3462106  11.0361768
 132.3296820  75.7399100   9.6990484 135.2318111  75.4393968  12.6800622
 135.9446083  76.0741433  12.6076523 134.7408139  75.5357834  11.8640624
 130.2830024  73.1888412  13.5006193 130.9839484  73.8224895  13.6535587
 129.8125139  73.5303143  12.7401832 134.1318883  66.4852830  17.8124780
 133.4559520  66.3846960  18.4827155 134.9546517  66.3292044  18.2760777
 125.8797742  72.7224767  10.4337295 126.4651179  71.9768455  10.5665199
 125.6822581  73.0328724  11.3173959 120.4715397  65.2930367   9.1541738
 120.5099496  64.7593958   9.9478856 119.9655690  64.7665573   8.5352716
 132.8741666  77.7919758  12.0482396 133.4259974  77.9551379  12.8131481
 133.2147859  78.3824196  11.3762421 127.8506159  60.1394908  12.6504281
 127.9147486  61.0009738  12.2381678 127.7873279  59.5268909  11.9176639
 127.3258432  62.2118040  16.2977315 127.9530470  61.8295117  16.9114839
 126.4686351  61.9932242  16.6633007 137.7252540  72.6181015  17.9031050
 138.2692444  73.2310974  17.4086005 137.1439385  73.1760594  18.4198063
 124.1023974  64.0194469   2.2295670 124.3977416  63.1105148   2.1762723
 123.2012010  63.9982209   1.9076672 127.6318221  62.0950466   8.2123218
 126.9104807  62.7086434   8.0730692 128.4211477  62.6308231   8.1339864
 138.0744962  73.5410753  10.6625628 137.1275297  73.4216105  10.5903955
 138.4227735  72.6533251  10.7451890 130.4344535  59.4304892  14.4863870
 130.9578937  59.6767189  15.2490179 130.2156868  60.2624927  14.0667007
 131.6397080  60.3718587  12.1713541 131.2993900  59.5726400  12.5734220
 130.9336086  60.6720298  11.5990374 129.8152131  64.1487020   8.4332842
 129.6696711  64.4627324   9.3257124 129.3377334  64.7671921   7.8803741
 133.5274644  61.5726909  10.5266859 133.2692422  62.4943979  10.5251190
 132.9959685  61.1757343  11.2167323 124.2897793  66.6892365  11.3720503
 123.7451261  67.4652173  11.5040778 125.1677143  67.0363169  11.2139625
 125.0763815  65.8162261  14.2650660 124.3345551  65.9644897  14.8515291
 124.7556559  66.0770527  13.4017410 133.0207477  75.3578239  14.0631050
 133.3294604  75.1127386  14.9353750 133.8182959  75.5624878  13.5749921
 125.5220428  73.7027690   6.2961055 126.3478448  73.4031462   5.9159698
 125.1714480  72.9335312   6.7450844 130.4901961  73.0554158   8.3658729
 129.8681971  72.3924863   8.0660956 131.1606828  73.0815290   7.6832376
 123.7229033  71.6214016   7.2549989 122.8860942  71.1936191   7.0733990
 123.6952679  71.8146460   8.1920780 130.5626489  61.5335946  17.9591235
 130.6114644  62.4098069  17.5769004 131.1049003  60.9913339  17.3862878
 141.0481335  72.0777069  17.2392372 140.2576878  72.0601208  16.6996871
 140.8114689  72.6165363  17.9941408 141.1679210  68.9269536  14.5525100
 141.2177215  68.7619543  15.4940623 141.0593133  68.0596795  14.1622981
 138.4582972  64.9100464  15.8684407 139.3592835  64.7706929  15.5768405
 138.5330947  65.0754919  16.8082584 132.7925777  62.2867319  14.7137593
 131.9229087  62.5800885  14.4420182 133.0285258  62.8707764  15.4344857
 142.6697406  71.3466477  14.7967122 142.3782215  71.7096458  15.6330583
 142.0569538  70.6333486  14.6180454 133.8196365  69.4884771  18.1145646
 134.7399374  69.6663370  18.3085692 133.7845948  68.5440816  17.9625345
 123.0378530  64.6823364   7.0398921 122.7181314  63.8288673   6.7473295
 122.4911958  64.8971943   7.7956888 126.8158437  67.3985805  10.7568427
 127.0344447  68.3302913  10.7756461 127.2284211  67.0393780  11.5423231
 131.6886303  62.9719011  20.1471176 131.5883030  63.9213368  20.0783267
 131.4707845  62.6437250  19.2747246 122.9066790  68.3026276   9.0092042
 122.2130261  67.8880229   8.4961997 123.6539781  68.3446812   8.4125461
 131.5517573  66.4016150  18.9636238 131.0684655  67.2016510  19.1700127
 131.6378512  66.4124095  18.0103682 124.8203532  68.2344530   6.8858057
 124.7974221  68.3332217   5.9339940 125.1304169  69.0809681   7.2075223
 127.4790910  70.2920685  11.0004671 128.4334164  70.2604627  10.9334603
 127.2803434  69.8311308  11.8154897 128.0690292  68.8621801  13.5675469
 128.8883181  69.3565879  13.5910306 128.3427100  67.9453769  13.5393037
 125.8341139  75.8340304   8.0174869 125.6995607  75.0740705   7.4512867
 125.4173201  76.5581204   7.5503658 128.9910265  76.7309621   8.2293312
 128.8742649  77.6755054   8.1272002 128.1702711  76.4283183   8.6179111
 123.3225207  63.1959935  14.2667666 123.9684070  62.6858889  14.7554891
 123.1142358  63.9328616  14.8411091 135.8478599  70.2640782  19.7659807
 136.7169759  70.4381434  19.4046442 135.3685350  71.0835199  19.6435536
 130.0164779  77.3837883  11.4449240 130.9192026  77.4161493  11.7615735
 129.7902149  76.4538334  11.4595576 127.6622698  60.3427552  18.3642680
 128.5254159  59.9864357  18.5746005 127.0888108  60.0041447  19.0518085
 143.9515720  79.4862401  16.6314124 143.1749054  80.0456321  16.6216989
 144.5906283  79.9719184  17.1528994 140.9423456  79.4487503  16.9947401
 140.3122116  80.1303783  17.2282798 140.8359544  79.3370584  16.0500539
 140.2204198  73.7508268  19.3572652 139.8271144  73.1974467  20.0320296
 141.0370339  74.0618847  19.7479170 143.1372159  75.1666147  16.9492909
 143.8781873  75.7673301  16.8697371 143.3690082  74.4243785  16.3910951
 138.2813497  80.3522515  15.2271138 138.1667013  79.4507772  15.5278237
 137.4258015  80.5986211  14.8755955 144.9623616  74.9490041  14.1740205
 144.3151531  75.6479991  14.0804681 145.7324632  75.3826185  14.5416453
 140.8036776  78.2955880  14.2256300 140.2674133  77.8446619  14.8777897
 140.2153485  78.4301789  13.4826765 144.9712638  81.8144748  17.8124780
 144.2953275  81.7138877  18.4827155 145.7940271  81.6583962  18.2760777
 138.6899914  75.4686825  12.6504281 138.7541240  76.3301656  12.2381678
 138.6267034  74.8560827  11.9176639 138.1652186  77.5409958  16.2977315
 138.7924225  77.1587035  16.9114839 137.3080105  77.3224160  16.6633007
 141.2738289  74.7596810  14.4863870 141.7972691  75.0059107  15.2490179
 141.0550623  75.5916845  14.0667007 135.9157569  81.1454179  14.2650660
 135.1739305  81.2936814  14.8515291 135.5950313  81.4062444  13.4017410
 141.4020243  76.8627864  17.9591235 141.4508399  77.7389987  17.5769004
 141.9442758  76.3205257  17.3862878 143.6319532  77.6159236  14.7137593
 142.7622841  77.9092802  14.4420182 143.8679012  78.1999681  15.4344857
 142.5280057  78.3010929  20.1471176 142.4276784  79.2505286  20.0783267
 142.3101599  77.9729168  19.2747246 142.3911327  81.7308068  18.9636238
 141.9078409  82.5308428  19.1700127 142.4772266  81.7416013  18.0103682
 134.1618961  78.5251852  14.2667666 134.8077825  78.0150806  14.7554891
 133.9536112  79.2620534  14.8411091 138.5016452  75.6719469  18.3642680
 139.3647914  75.3156274  18.5746005 137.9281863  75.3333364  19.0518085
   6.5925658  98.1295211 113.2241121   5.8389366  97.5602609 113.0685126
   6.7273199  98.0957876 114.1711756   0.6959183 100.3500375 115.3454536
   1.1295690 100.2575664 116.1937590   1.4090764 100.3257875 114.7074552
   1.5574733 100.3924075 117.8787421   1.7510623 101.2969886 118.1246696
   1.4575351  99.9331494 118.7126007   2.8116796  96.9497742 114.5235325
   2.8006672  97.8322457 114.1529258   1.9434175  96.5969293 114.3289862
   3.4141406  98.0997961 111.1284788   3.8572552  97.3505286 110.7303911
   2.5367916  98.0908098 110.7458520   0.4468610 102.1028008 108.1378717
   0.9719934 102.4415281 107.4128038   0.3590963 101.1675024 107.9541852
   2.9574270  99.5703200 113.5207236   3.7921162 100.0093004 113.6844796
   3.0933399  99.0941853 112.7015482   1.1855523  97.2254814 116.8155329
   1.1531843  96.2870815 117.0015013   1.7956147  97.3038851 116.0821154
   1.3350012  94.0165858 116.8613612   0.8189060  93.2324314 116.6743541
   2.2189960  93.6884574 117.0260131   7.0032073  98.2870821 115.9561366
   7.7335461  98.0256109 116.5169069   6.3939018  97.5499543 115.9963434
   5.0847370  96.4278684 116.5535817   4.3580534  96.2934648 115.9452308
   4.6694657  96.7355512 117.3592535   2.7025165  92.6490536 113.9069248
   3.2969656  92.4086272 113.1962557   2.7751749  91.9297666 114.5342785
   5.0096238  95.9556737 112.6812670   4.4495796  96.0249926 113.4544232
   4.4039741  95.7797721 111.9612166   6.5952256 112.6313251 115.3742625
   7.2330666 112.5119998 114.6705965   6.4773099 113.5794094 115.4330577
   4.8428337 118.1047123 106.6115506   4.1916317 118.6901203 106.2249520
   5.6372700 118.6353318 106.6710543   6.1493525 110.3564704 112.4495833
   6.9356614 109.9384128 112.0986250   6.4132229 111.2610797 112.6177482
   6.3203602 115.7937555 107.1484490   5.6849435 115.8672181 107.8605395
   5.9901008 116.3831154 106.4703569  11.5501952 110.2939938 113.3528812
  12.2827124 109.7239154 113.5866641  10.7941307 109.9061538 113.7935317
   0.8246531 113.2557032 106.8445465   0.7082789 112.5801935 107.5126549
   0.9348790 112.7689406 106.0277618   3.1678072 112.7167179 110.5492154
   2.8036279 112.1897800 111.2605076   4.0245187 112.3265648 110.3758640
   9.0727372 104.0061512 117.8123420   8.7410697 104.8756923 117.5884635
   8.4772986 103.6897796 118.4917451   2.8083558 107.7457079 105.5453503
   2.9757961 108.6137315 105.9123974   2.6180728 107.9084360 104.6214792
   8.9656035 108.7256598 114.8916770   8.0572913 108.6572006 114.5975531
   8.9143631 109.2028543 115.7198596   2.7872779 110.2014736 106.5300170
   2.6672405 110.6471787 107.3685650   2.0925368 110.5500054 105.9713708
  10.8317682 106.9273036 116.6694644  10.1892062 107.2205569 116.0234439
  10.3272610 106.8125957 117.4747841   8.4857846 110.6736209 107.3580504
   9.3975702 110.9063596 107.1828201   7.9767493 111.2573254 106.7955582
   7.0927428 115.6562028 114.7494085   6.4636290 115.8207742 114.0470153
   6.7053090 116.0703637 115.5205049  10.9716660 116.5916466 112.1038449
  10.2867698 116.9715367 111.5535482  11.0560509 117.2011792 112.8370397
   5.8293820 106.8494245 115.6070365   4.9678299 107.1475499 115.8987102
   5.8556255 107.0664644 114.6751397   2.6455390 115.3936436 112.0144170
   3.1093735 115.6724139 111.2248793   2.3812188 114.4919881 111.8317261
   1.5824276 111.5159588 108.8233735   2.2848319 111.9680632 109.2907662
   1.2504904 110.8743407 109.4513628  17.4319412 113.4587129 113.2241121
  16.6783121 112.8894527 113.0685126  17.5666954 113.4249793 114.1711756
   2.8218040 118.3300531 108.8995841   2.6863715 119.1752067 109.3280688
   3.3627853 118.5319809 108.1361774   6.1710504 101.8531093 117.4294734
   5.8274773 102.7432735 117.3533845   6.5389467 101.6632751 116.5664319
   6.1360787 111.8439704 105.9367169   5.6207410 112.6144309 106.1755557
   5.8638095 111.1704840 106.5600231   3.7207898 106.6889405 110.9952408
   2.8649494 106.2996255 110.8158046   4.1334849 106.7681366 110.1352193
   5.2507044 104.2235748 115.3943967   4.7471840 104.1865883 114.5811773
   5.5437651 105.1328491 115.4540624   1.4949930 104.3074478 114.4010149
   2.3602927 104.1117286 114.0416038   1.5627439 104.0784830 115.3279506
  11.1095061 114.5972059 107.8720343  10.3324504 114.2583218 107.4275505
  11.7886542 114.6024682 107.1975308   5.9247090 109.7166796 107.7626950
   5.6197225 110.0312945 108.6137094   6.8777532 109.7948216 107.8054283
   4.3693522 115.8757019 109.4119904   3.8414883 115.1409779 109.0993142
   3.8681024 116.6531696 109.1659873   9.3486368 114.0706040 114.5286951
   8.6910042 114.7605301 114.6167079  10.1526767 114.4602472 114.8720937
   8.1591827 112.4250413 112.5790892   8.6723708 113.0580404 113.0812602
   8.8093050 111.8251608 112.2134252   1.4034917 103.4117935 110.5001585
   0.7499329 103.0966952 109.8758200   1.3615391 102.7893675 111.2261408
   2.5146122 113.6937230 102.4154877   1.6073184 113.4626483 102.6146026
   3.0117154 112.8974849 102.6028859   5.4214201 122.4034737 105.3351564
   4.7475900 122.7066434 105.9436521   5.8080023 123.2063817 104.9857021
   4.6372657 109.8999868 114.8249233   3.7195219 110.1214815 114.6670921
   5.0532801 109.9746179 113.9660940   5.4207705 111.2991284 109.9551913
   6.1679524 111.8112681 109.6459035   5.6899295 110.9775337 110.8156307
   3.6934355 113.7949825 106.9378867   2.7845575 113.5108857 107.0351337
   3.7229439 114.2148903 106.0782174   8.9253623 117.4056414 110.7070035
   8.4715950 116.5647324 110.7635225   8.2947589 118.0417812 111.0444815
   7.8686542 108.3348400 111.9370702   7.1309299 107.8225786 112.2680945
   8.1213316 107.8948782 111.1253979   7.3686562 119.2432911 111.6419853
   7.6609536 119.8037968 110.9232219   7.8785183 119.5361472 112.3973012
   7.9698170 101.1124652 112.5312472   8.2757046 100.2522015 112.2438387
   8.6950774 101.7042272 112.3311466   2.2419249 111.4078445 113.0388663
   2.2967859 110.4552282 112.9631139   1.4310451 111.5637884 113.5229961
   3.3910443 115.3358568 104.2766946   2.9529873 114.6194427 103.8172583
   4.1320884 115.5634683 103.7152037  11.5083558 113.6115765 110.3343265
  11.3701456 113.8017361 109.4064454  11.1519777 114.3735148 110.7911316
  11.5352938 115.6792292 115.3454536  11.9689444 115.5867581 116.1937590
  12.2484518 115.6549793 114.7074552  12.3968487 115.7215993 117.8787421
  12.5904377 116.6261803 118.1246696  12.2969105 115.2623412 118.7126007
   3.6205416 122.5714409 107.5498643   3.7957172 122.1002452 108.3644265
   2.9338204 123.1980175 107.7779903   7.5121671 114.1942950 103.8699004
   6.8950841 113.4689778 103.7732056   7.0438159 114.9552310 103.5266078
   5.7980793 106.5749294 112.8817034   6.2949492 105.8219256 112.5618104
   5.0267774 106.6113611 112.3160243  13.6510550 112.2789659 114.5235325
  13.6400426 113.1614375 114.1529258  12.7827930 111.9261210 114.3289862
   6.8810573 115.3320981 110.4555457   5.9466852 115.4522444 110.2860161
   7.0587242 114.4293448 110.1915467   2.3815762 108.7166677 112.6088718
   2.0113549 108.1637717 113.2969624   2.8774854 108.1124810 112.0563718
  10.2683125 111.1738300 110.9905491  10.7343577 112.0066292 110.9165794
  10.7190625 110.7083282 111.6950750   8.3359356 117.5182122 107.9891643
   8.6119200 117.4038716 108.8985517   7.4663855 117.1199607 107.9503816
   8.2399788 103.5418887 115.0296393   7.3262867 103.7723114 115.1978600
   8.6692889 103.6257332 115.8810425   8.0106246 111.7308779 117.5296287
   7.3577696 111.9784687 116.8748739   8.3886626 110.9172918 117.1958764
   5.3055585 120.6936658 108.8939505   5.8343352 120.1829112 108.2809668
   5.5683805 120.3779188 109.7585038   2.2188488 103.4443660 116.8278407
   3.0414557 102.9704138 116.7057298   2.4626551 104.2234144 117.3277094
   5.0027845 107.1777067 108.0599641   5.2191460 108.0601705 107.7588470
   4.5221912 106.7863281 107.3305283   1.6023450 107.1265329 114.6851276
   1.5885018 106.2306422 114.3483574   2.3195878 107.1335992 115.3189562
   3.4549580 107.5602669 116.7304403   3.1967358 108.4819739 116.7288733
   2.9234621 107.1633103 117.4204867   8.3995769 120.6653456 109.5094488
   8.5732647 120.0999878 108.7568341   8.8924660 121.4654351 109.3273978
   1.0060345 106.0079709 109.9538846   1.1276257 105.0796355 110.1529733
   0.7162388 106.0218395 109.0417161   3.8751536 103.6934619 113.0905566
   3.8973233 103.7573952 112.1357545   4.2919595 102.8539128 113.2846072
  14.2535160 113.4289879 111.1284788  14.6966306 112.6797204 110.7303911
  13.3761670 113.4200015 110.7458520   9.3870941 119.9820220 106.6091387
  10.0821846 120.6026913 106.8278701   9.7294092 119.1315572 106.8843765
  11.2862365 117.4319926 108.1378717  11.8113689 117.7707199 107.4128038
  11.1984717 116.4966941 107.9541852  13.7968025 114.8995117 113.5207236
  14.6314916 115.3384921 113.6844796  13.9327154 114.4233770 112.7015482
  10.8459531 112.4574852 119.4684723  11.3213652 112.6502498 118.6603575
   9.9225096 112.5134038 119.2228107   5.4239747 104.4922696 118.4340557
   5.9421691 105.2283723 118.1087046   5.0694880 104.7986689 119.2687317
   5.6752341 100.9122978 113.9541454   5.9554095 100.2446167 114.5801881
   6.4602948 101.1052074 113.4416118   3.4785810 120.0881972 105.5166480
   2.9059777 120.7072159 105.0636952   4.0518604 120.6381334 106.0506402
   9.5461200 109.3340612 117.7013029  10.4978623 109.4338710 117.7225253
   9.3764650 108.5418881 118.2111113   7.5675579 106.4196195 117.8872430
   6.9725511 106.7001208 117.1918919   7.2825276 106.9090096 118.6589171
   6.6983070 120.3719122 106.6475063   7.6313743 120.3064684 106.8507938
   6.6106283 121.2075389 106.1889595   9.3271086 119.6884993 103.6079010
   9.2484718 119.3544856 104.5014768  10.1480753 120.1806760 103.6070482
  12.0249278 112.5546732 116.8155329  11.9925598 111.6162733 117.0015013
  12.6349901 112.6330769 116.0821154   3.8632608 111.4242785 102.8582533
   4.8091713 111.2948993 102.9270951   3.4846853 110.6857447 103.3351961
  12.1743766 109.3457775 116.8613612  11.6582815 108.5616232 116.6743541
  13.0583715 109.0176492 117.0260131   9.8354493 103.0898791 112.8209425
   9.6379314 102.7813879 113.7052757  10.4454199 103.8160430 112.9507354
  17.8425827 113.6162739 115.9561366  18.5729216 113.3548027 116.5169069
  17.2332773 112.8791461 115.9963434  15.9241125 111.7570601 116.5535817
  15.1974288 111.6226566 115.9452308  15.5088411 112.0647430 117.3592535
   2.0475526 109.3492761 102.7937418   1.1406981 109.0525874 102.8700132
   2.3251507 109.0522579 101.9271704   3.6637591 103.8929651 108.9481659
   2.8538320 103.5476736 109.3236905   4.3522008 103.5837195 109.5369271
   5.5928140 102.9707698 110.5705956   6.1459178 103.3903151 111.2295979
   5.8298226 102.0443446 110.6128912   0.8174310 106.2079696 102.9349397
   1.6793474 106.5334595 103.1945215   1.0024654 105.4211192 102.4222463
   8.9706947 105.0808223 110.0784620   8.3905616 105.7393027 109.6962673
   8.7042879 104.2585567 109.6672038   7.4210513 104.4813281 112.2805941
   7.9210291 104.5929815 111.4720259   8.0646121 104.1774333 112.9206749
   7.7531825 107.2408313 109.1340968   6.8657680 107.5257964 108.9161163
   8.1685814 107.0802077 108.2868245  11.1046361 107.2654834 112.8495308
  11.8806751 107.7551287 113.1219925  10.3794495 107.6912888 113.3067177
  13.5418919 107.9782453 113.9069248  14.1363410 107.7378189 113.1962557
  13.6145503 107.2589584 114.5342785   6.8975038 117.0052988 103.2288988
   7.6010888 117.2102990 103.8446644   6.1737687 117.5729750 103.4938072
   7.7272848 112.7562849 109.3491259   7.6708050 113.2131401 108.5098891
   8.2801191 111.9953534 109.1714101  11.5377654 108.5452581 110.1741378
  11.2814589 108.1449217 111.0049586  10.9130522 109.2596375 110.0491517
  15.8489992 111.2848654 112.6812670  15.2889550 111.3541844 113.4544232
  15.2433496 111.1089639 111.9612166   8.8061736 117.4435517 105.2787449
   9.6407340 117.0116716 105.0964923   8.6446078 117.2717531 106.2064343
   8.4607628 113.9467630 106.6443788   8.4056432 113.7811902 105.7032232
   7.8353683 114.6543663 106.8005978   1.7703753 103.4475739 106.2229106
   1.7582423 104.3917579 106.3797377   2.6627175 103.2645885 105.9288567
   5.5855873 100.0418516 110.4775043   4.8188268  99.4877003 110.6231725
   5.9966578 100.1140385 111.3389195  17.4346011 127.9605168 115.3742625
  18.0724421 127.8411916 114.6705965  17.3166854 128.9086012 115.4330577
  11.9443996 126.6820844 104.6421090  12.1969517 126.1602365 103.8804553
  11.0068555 126.5186989 104.7447774  16.9887279 125.6856622 112.4495833
  17.7750368 125.2676045 112.0986250  17.2525983 126.5902714 112.6177482
  17.1597356 131.1229472 107.1484490  16.5243189 131.1964099 107.8605395
  16.8294763 131.7123071 106.4703569  22.3895706 125.6231855 113.3528812
  23.1220878 125.0531072 113.5866641  21.6335062 125.2353456 113.7935317
  11.6640285 128.5848950 106.8445465  11.5476543 127.9093853 107.5126549
  11.7742545 128.0981324 106.0277618  14.0071826 128.0459097 110.5492154
  13.6430033 127.5189718 111.2605076  14.8638942 127.6557566 110.3758640
  19.9121127 119.3353429 117.8123420  19.5804451 120.2048840 117.5884635
  19.3166740 119.0189713 118.4917451  13.6477313 123.0748996 105.5453503
  13.8151715 123.9429233 105.9123974  13.4574482 123.2376278 104.6214792
  19.8049790 124.0548516 114.8916770  18.8966667 123.9863924 114.5975531
  19.7537386 124.5320460 115.7198596  13.6266534 125.5306654 106.5300170
  13.5066159 125.9763705 107.3685650  12.9319122 125.8791972 105.9713708
  21.6711436 122.2564954 116.6694644  21.0285817 122.5497487 116.0234439
  21.1666365 122.1417874 117.4747841  19.3251600 126.0028127 107.3580504
  20.2369456 126.2355514 107.1828201  18.8161247 126.5865171 106.7955582
  17.9321182 130.9853946 114.7494085  17.3030045 131.1499660 114.0470153
  17.5446844 131.3995555 115.5205049  21.8110414 131.9208383 112.1038449
  21.1261452 132.3007285 111.5535482  21.8954264 132.5303710 112.8370397
  16.6687575 122.1786163 115.6070365  15.8072054 122.4767417 115.8987102
  16.6950009 122.3956562 114.6751397  13.4849144 130.7228354 112.0144170
  13.9487490 131.0016057 111.2248793  13.2205942 129.8211798 111.8317261
  12.4218030 126.8451506 108.8233735  13.1242074 127.2972550 109.2907662
  12.0898659 126.2035325 109.4513628  28.2713167 128.7879046 113.2241121
  27.5176875 128.2186444 113.0685126  28.4060708 128.7541711 114.1711756
  17.0104258 117.1823011 117.4294734  16.6668528 118.0724652 117.3533845
  17.3783221 116.9924668 116.5664319  16.9754541 127.1731622 105.9367169
  16.4601165 127.9436226 106.1755557  16.7031850 126.4996758 106.5600231
  14.5601652 122.0181322 110.9952408  13.7043249 121.6288173 110.8158046
  14.9728604 122.0973283 110.1352193  16.0900799 119.5527666 115.3943967
  15.5865594 119.5157801 114.5811773  16.3831406 120.4620408 115.4540624
  12.3343685 119.6366395 114.4010149  13.1996681 119.4409204 114.0416038
  12.4021194 119.4076747 115.3279506  21.9488815 129.9263976 107.8720343
  21.1718258 129.5875136 107.4275505  22.6280296 129.9316599 107.1975308
  16.7640844 125.0458714 107.7626950  16.4590980 125.3604863 108.6137094
  17.7171286 125.1240134 107.8054283  20.1880122 129.3997958 114.5286951
  19.5303797 130.0897219 114.6167079  20.9920521 129.7894389 114.8720937
   9.9406004 121.8668603 111.7726516  10.5149756 121.6443785 111.0399709
  10.5276986 121.9357298 112.5255117  18.9985581 127.7542330 112.5790892
  19.5117463 128.3872322 113.0812602  19.6486805 127.1543526 112.2134252
  10.2675591 123.8973064 105.7922401   9.4312903 124.2347751 106.1131676
  10.1280361 123.7622044 104.8549538  12.2428672 118.7409852 110.5001585
  11.5893084 118.4258869 109.8758200  12.2009146 118.1185593 111.2261408
  13.3539876 129.0229147 102.4154877  12.4466938 128.7918401 102.6146026
  13.8510908 128.2266767 102.6028859  15.4766412 125.2291786 114.8249233
  14.5588973 125.4506733 114.6670921  15.8926555 125.3038096 113.9660940
  16.2601460 126.6283201 109.9551913  17.0073279 127.1404599 109.6459035
  16.5293049 126.3067254 110.8156307  14.5328110 129.1241742 106.9378867
  13.6239329 128.8400775 107.0351337  14.5623194 129.5440821 106.0782174
  18.7080297 123.6640318 111.9370702  17.9703054 123.1517704 112.2680945
  18.9607070 123.2240699 111.1253979  18.8091924 116.4416570 112.5312472
  19.1150801 115.5813933 112.2438387  19.5344529 117.0334190 112.3311466
  13.0813004 126.7370363 113.0388663  13.1361614 125.7844199 112.9631139
  12.2704206 126.8929802 113.5229961  14.2304198 130.6650486 104.2766946
  13.7923628 129.9486345 103.8172583  14.9714638 130.8926601 103.7152037
  11.0205364 125.3547423 110.7979042  10.2073229 125.6541593 111.2044234
  11.5164358 124.9603111 111.5153524  22.3477312 128.9407683 110.3343265
  22.2095211 129.1309279 109.4064454  21.9913531 129.7027066 110.7911316
  22.3746692 131.0084210 115.3454536  22.8083199 130.9159499 116.1937590
  23.0878273 130.9841710 114.7074552   7.5962506 126.3711290 108.6035022
   6.6660094 126.3095746 108.8204984   7.6919978 125.8487243 107.8071663
   7.5148055 122.8966103 111.1913263   7.7754872 123.8111436 111.0822424
   8.3365227 122.4290546 111.3409876  23.2362242 131.0507911 117.8787421
  23.4298132 131.9553721 118.1246696  23.1362860 130.5915330 118.7126007
  18.3515425 129.5234868 103.8699004  17.7344596 128.7981696 103.7732056
  17.8831914 130.2844228 103.5266078  10.1413971 123.7420292 102.9920308
   9.2643437 123.6209093 102.6282555  10.6171724 122.9506370 102.7399197
  16.6374547 121.9041212 112.8817034  17.1343247 121.1511174 112.5618104
  15.8661529 121.9405528 112.3160243  24.4904305 127.6081577 114.5235325
  24.4794181 128.4906293 114.1529258  23.6221684 127.2553128 114.3289862
  17.7204328 130.6612899 110.4555457  16.7860607 130.7814361 110.2860161
  17.8980996 129.7585366 110.1915467  13.2209516 124.0458595 112.6088718
  12.8507304 123.4929635 113.2969624  13.7168608 123.4416728 112.0563718
  21.1076879 126.5030218 110.9905491  21.5737332 127.3358210 110.9165794
  21.5584380 126.0375200 111.6950750  19.1753110 132.8474039 107.9891643
  19.4512954 132.7330634 108.8985517  18.3057609 132.4491524 107.9503816
  19.0793542 118.8710805 115.0296393  18.1656622 119.1015032 115.1978600
  19.5086644 118.9549249 115.8810425  18.8500001 127.0600697 117.5296287
  18.1971451 127.3076605 116.8748739  19.2280380 126.2464835 117.1958764
   6.5980507 123.0176245 108.5572539   6.2693213 122.1373624 108.3747645
   6.9519877 122.9623913 109.4448928   9.7122330 123.3049215 108.9248016
  10.0518402 123.8335136 108.2026625  10.1594450 123.6429621 109.7006583
  13.0582242 118.7735578 116.8278407  13.8808312 118.2996056 116.7057298
  13.3020306 119.5526061 117.3277094  11.6990477 121.8023836 107.1241309
  12.4198839 122.1805089 106.6205026  11.0755781 122.5212713 107.2276287
  15.8421600 122.5068985 108.0599641  16.0585214 123.3893623 107.7588470
  15.3615667 122.1155198 107.3305283  12.4417204 122.4557246 114.6851276
  12.4278773 121.5598340 114.3483574  13.1589632 122.4627910 115.3189562
  14.2943335 122.8894587 116.7304403  14.0361113 123.8111657 116.7288733
  13.7628375 122.4925021 117.4204867  11.8454100 121.3371627 109.9538846
  11.9670011 120.4088273 110.1529733  11.5556142 121.3510313 109.0417161
  14.7145290 119.0226537 113.0905566  14.7366987 119.0865870 112.1357545
  15.1313349 118.1831046 113.2846072  25.0928915 128.7581797 111.1284788
  25.5360061 128.0089122 110.7303911  24.2155425 128.7491933 110.7458520
  22.1256119 132.7611844 108.1378717  22.6507443 133.0999116 107.4128038
  22.0378472 131.8258859 107.9541852  24.6361779 130.2287035 113.5207236
  25.4708671 130.6676839 113.6844796  24.7720908 129.7525688 112.7015482
  21.6853285 127.7866770 119.4684723  22.1607407 127.9794416 118.6603575
  20.7618851 127.8425956 119.2228107   8.5736792 128.9490937 109.0515802
   8.3282834 128.0453267 109.2496012   8.7432706 128.9508087 108.1095280
  16.2633502 119.8214613 118.4340557  16.7815446 120.5575640 118.1087046
  15.9088635 120.1278607 119.2687317   7.8432439 124.6819294 106.5501963
   7.1501684 124.7563649 105.8941999   7.5984191 123.9179638 107.0723480
  16.5146096 116.2414896 113.9541454  16.7947850 115.5738085 114.5801881
  17.2996703 116.4343991 113.4416118  20.3854954 124.6632530 117.7013029
  21.3372377 124.7630627 117.7225253  20.2158405 123.8710798 118.2111113
  18.4069334 121.7488113 117.8872430  17.8119266 122.0293126 117.1918919
  18.1219030 122.2382014 118.6589171  22.8643032 127.8838649 116.8155329
  22.8319352 126.9454650 117.0015013  23.4743656 127.9622686 116.0821154
  14.7026363 126.7534702 102.8582533  15.6485468 126.6240911 102.9270951
  14.3240608 126.0149364 103.3351961  23.0137521 124.6749693 116.8613612
  22.4976569 123.8908150 116.6743541  23.8977469 124.3468410 117.0260131
  20.6748247 118.4190708 112.8209425  20.4773069 118.1105797 113.7052757
  21.2847953 119.1452347 112.9507354  28.6819582 128.9454656 115.9561366
  29.4122970 128.6839944 116.5169069  28.0726527 128.2083378 115.9963434
  26.7634879 127.0862519 116.5535817  26.0368043 126.9518484 115.9452308
  26.3482166 127.3939348 117.3592535  12.8869280 124.6784679 102.7937418
  11.9800735 124.3817792 102.8700132  13.1645261 124.3814497 101.9271704
  14.5031346 119.2221569 108.9481659  13.6932074 118.8768654 109.3236905
  15.1915763 118.9129112 109.5369271  16.4321894 118.2999615 110.5705956
  16.9852933 118.7195069 111.2295979  16.6691980 117.3735363 110.6128912
  11.6568065 121.5371614 102.9349397  12.5187229 121.8626512 103.1945215
  11.8418409 120.7503110 102.4222463  19.8100701 120.4100141 110.0784620
  19.2299370 121.0684945 109.6962673  19.5436634 119.5877485 109.6672038
  18.2604268 119.8105198 112.2805941  18.7604046 119.9221733 111.4720259
  18.9039875 119.5066251 112.9206749  18.5925579 122.5700231 109.1340968
  17.7051434 122.8549882 108.9161163  19.0079568 122.4093994 108.2868245
  21.9440115 122.5946752 112.8495308  22.7200505 123.0843204 113.1219925
  21.2188249 123.0204806 113.3067177  24.3812674 123.3074371 113.9069248
  24.9757165 123.0670107 113.1962557  24.4539258 122.5881502 114.5342785
  18.5666603 128.0854767 109.3491259  18.5101804 128.5423318 108.5098891
  19.1194945 127.3245451 109.1714101  22.3771409 123.8744499 110.1741378
  22.1208343 123.4741134 111.0049586  21.7524277 124.5888293 110.0491517
  26.6883747 126.6140572 112.6812670  26.1283305 126.6833761 113.4544232
  26.0827250 126.4381557 111.9612166  19.6455490 132.7727435 105.2787449
  20.4801094 132.3408633 105.0964923  19.4839833 132.6009448 106.2064343
  19.3001382 129.2759548 106.6443788  19.2450186 129.1103820 105.7032232
  18.6747438 129.9835581 106.8005978  12.6097508 118.7767657 106.2229106
  12.5976178 119.7209497 106.3797377  13.5020930 118.5937803 105.9288567
  16.4249627 115.3710434 110.4775043  15.6582023 114.8168920 110.6231725
  16.8360332 115.4432303 111.3389195  30.7514881 134.6645347 117.8123420
  30.4198206 135.5340758 117.5884635  30.1560495 134.3481631 118.4917451
  27.8498013 132.5114928 117.4294734  27.5062282 133.4016570 117.3533845
  28.2176976 132.3216586 116.5664319  26.9294553 134.8819583 115.3943967
  26.4259349 134.8449719 114.5811773  27.2225160 135.7912326 115.4540624
  23.0822426 134.0701770 110.5001585  22.4286838 133.7550787 109.8758200
  23.0402900 133.4477510 111.2261408  29.6485679 131.7708487 112.5312472
  29.9544555 130.9105851 112.2438387  30.3738283 132.3626108 112.3311466
  29.9187297 134.2002723 115.0296393  29.0050376 134.4306950 115.1978600
  30.3480398 134.2841167 115.8810425  23.8975997 134.1027495 116.8278407
  24.7202066 133.6287974 116.7057298  24.1414060 134.8817979 117.3277094
  25.5539045 134.3518455 113.0905566  25.5760742 134.4157788 112.1357545
  25.9707104 133.5122963 113.2846072  27.1027256 135.1506531 118.4340557
  27.6209200 135.8867558 118.1087046  26.7482389 135.4570524 119.2687317
  27.3539850 131.5706813 113.9541454  27.6341604 130.9030003 114.5801881
  28.1390457 131.7635909 113.4416118  31.5142002 133.7482626 112.8209425
  31.3166823 133.4397714 113.7052757  32.1241708 134.4744265 112.9507354
  25.3425100 134.5513486 108.9481659  24.5325829 134.2060571 109.3236905
  26.0309517 134.2421030 109.5369271  27.2715649 133.6291533 110.5705956
  27.8246687 134.0486986 111.2295979  27.5085735 132.7027281 110.6128912
  30.6494456 135.7392058 110.0784620  30.0693125 136.3976862 109.6962673
  30.3830388 134.9169403 109.6672038  29.0998022 135.1397116 112.2805941
  29.5997800 135.2513650 111.4720259  29.7433630 134.8358169 112.9206749
  35.2206428 138.6366289 113.9069248  35.8150919 138.3962025 113.1962557
  35.2933012 137.9173419 114.5342785  27.2643382 130.7002351 110.4775043
  26.4975777 130.1460838 110.6231725  27.6754087 130.7724220 111.3389195
   6.5925659  75.1357334  99.9486428   5.8389367  74.5664732  99.7930432
   6.7273200  75.1019998 100.8957063   0.6959184  77.3562497 102.0699843
   1.1295691  77.2637786 102.9182897   1.4090765  77.3319998 101.4319859
   1.5574734  77.3986198 104.6032728   1.7510624  78.3032008 104.8492003
   1.4575352  76.9393617 105.4371313   2.8116797  73.9559864 101.2480632
   2.8006673  74.8384580 100.8774565   1.9434176  73.6031415 101.0535169
   3.4141407  75.1060084  97.8530095   3.8572553  74.3567409  97.4549218
   2.5367917  75.0970220  97.4703827   0.4468611  79.1090131  94.8624024
   0.9719935  79.4477404  94.1373344   0.3590964  78.1737146  94.6787159
   1.7578589  79.0112442 107.7249972   1.4663398  79.3742423 108.5613433
   1.1450721  78.2979451 107.5463304   2.9574272  76.5765322 100.2452542
   3.7921163  77.0155126 100.4090103   3.0933400  76.1003975  99.4260788
   1.1855524  74.2316937 103.5400635   1.1531844  73.2932937 103.7260319
   1.7956148  74.3100973 102.8066460   1.3350013  71.0227980 103.5858919
   0.8189061  70.2386437 103.3988847   2.2189961  70.6946697 103.7505438
   7.0032074  75.2932944 102.6806672   7.7335463  75.0318232 103.2414376
   6.3939020  74.5561666 102.7208740   5.0847371  73.4340806 103.2781123
   4.3580535  73.2996771 102.6697615   4.6694658  73.7417635 104.0837841
   2.7025166  69.6552658 100.6314555   3.2969657  69.4148394  99.9207863
   2.7751750  68.9359789 101.2588091   5.0096239  72.9618859  99.4057976
   4.4495797  73.0312049 100.1789538   4.4039742  72.7859844  98.6857472
   6.5952257  89.6375373 102.0987932   7.2330667  89.5182120 101.3951272
   6.4773100  90.5856217 102.1575884   3.4041964  89.5902801 102.0349457
   3.0660475  89.4743866 101.1469991   4.2731732  89.1893966 102.0150463
   3.8861747  90.7437653 107.9935662   3.8750387  90.3490451 107.1216166
   4.0482386  90.0103726 108.5869434   4.8428338  95.1109245  93.3360812
   4.1916318  95.6963326  92.9494826   5.6372701  95.6415440  93.3955850
   1.5325215  90.9051613 103.5316206   2.1288787  90.6807636 102.8173169
   1.5900186  90.1636359 104.1341654   6.1493526  87.3626827  99.1741140
   6.9356615  86.9446250  98.8231557   6.4132230  88.2672919  99.3422788
   6.3203603  92.7999677  93.8729797   5.6849436  92.8734304  94.5850701
   5.9901010  93.3893276  93.1948876  11.5501953  87.3002060 100.0774118
  12.2827125  86.7301277 100.3111948  10.7941309  86.9123661 100.5180624
   0.8246532  90.2619155  93.5690772   0.7082790  89.5864058  94.2371856
   0.9348792  89.7751529  92.7522925   3.1678073  89.7229302  97.2737461
   2.8036280  89.1959923  97.9850382   4.0245189  89.3327771  97.1003946
   9.0727373  81.0123634 104.5368727   8.7410698  81.8819045 104.3129942
   8.4772987  80.6959918 105.2162757   2.8083560  84.7519201  92.2698809
   2.9757962  85.6199438  92.6369280   2.6180729  84.9146483  91.3460099
   5.5658893  93.2136180 103.9364640   5.2659616  94.1161219 103.8280447
   5.2209952  92.9468364 104.7885793   8.9656037  85.7318720 101.6162077
   8.0572914  85.6634129 101.3220838   8.9143633  86.2090665 102.4443903
   2.7872781  87.2076859  93.2545476   2.6672406  87.6533910  94.0930957
   2.0925369  87.5562177  92.6959014   3.0396902  87.1508366 109.5596974
   2.2630237  87.7102286 109.5499839   3.6787466  87.6365149 110.0811845
  10.8317683  83.9335159 103.3939951  10.1892063  84.2267692 102.7479746
  10.3272612  83.8188079 104.1993148   8.4857847  87.6798332  94.0825810
   9.3975703  87.9125719  93.9073508   7.9767494  88.2635376  93.5200889
   1.2943275  89.9593819 109.1214941   2.0357959  90.4978863 108.8449765
   0.5880260  90.5860108 109.2786493   6.7698614  92.1022960 107.7187103
   7.1781970  91.6605370 106.9741735   6.0475876  91.5275587 107.9721296
   3.1229684  87.0395567 105.0920660   3.9690880  87.4634980 105.2355309
   3.0628322  86.3829191 105.7859223   7.0927429  92.6624151 101.4739392
   6.4636292  92.8269865 100.7715460   6.7053091  93.0765760 102.2450356
  10.9716661  93.5978588  98.8283756  10.2867699  93.9777490  98.2780789
  11.0560510  94.2073915  99.5615703   6.2729130  84.6999935 106.7501833
   6.0290062  85.4541996 106.2136109   6.5489060  85.0785283 107.5849081
   8.2267593  91.2438547 105.4279099   8.4384488  91.8870307 104.7513480
   8.1797341  90.4100864 104.9601029   5.8293822  83.8556368 102.3315671
   4.9678301  84.1537622 102.6232409   5.8556256  84.0726767 101.3996704
   2.6455391  92.3998559  98.7389477   3.1093736  92.6786262  97.9494099
   2.3812189  91.4982003  98.5562568   1.5824277  88.5221711  95.5479042
   2.2848320  88.9742755  96.0152968   1.2504906  87.8805530  96.1758935
   9.3413421  94.1210503 103.6001456  10.1630864  93.7190690 103.3184138
   9.3375823  94.0178737 104.5517572   3.1070024  93.6694546 105.7562167
   3.1714456  94.1314953 106.5920339   2.3980948  93.0391911 105.8844477
  17.4319414  90.4649251  99.9486428  16.6783122  89.8956649  99.7930432
  17.5666955  90.4311916 100.8957063   2.8218042  95.3362654  95.6241147
   2.6863716  96.1814189  96.0525995   3.3627854  95.5381931  94.8607081
   2.2253342  82.8312113 109.8775759   2.9663056  83.4319266 109.7980221
   2.4571265  82.0889750 109.3193802   4.4486518  95.9586220 109.7541489
   4.0050372  95.1722599 109.4362394   5.1103732  96.1465371 109.0885380
   6.5467756  96.2389020 107.7822891   6.5286231  97.0597901 107.2903160
   7.4687676  96.1143095 108.0073032   3.0040810  93.7533150 108.6246399
   3.5369147  92.9921438 108.3945707   2.4754891  93.4606801 109.3670553
   6.1710505  78.8593215 104.1540041   5.8274775  79.7494857 104.0779151
   6.5389468  78.6694873 103.2909626   6.1360788  88.8501827  92.6612476
   5.6207411  89.6206431  92.9000863   5.8638096  88.1766963  93.2845537
   3.7207899  83.6951527  97.7197714   2.8649495  83.3058378  97.5403353
   4.1334851  83.7743488  96.8597500   5.2507046  81.2297871 102.1189274
   4.7471841  81.1928006 101.3057079   5.5437652  82.1390613 102.1785931
   1.4949931  81.3136600 101.1255456   2.3602928  81.1179409 100.7661345
   1.5627440  81.0846952 102.0524812  11.1095062  91.6034181  94.5965649
  10.3324505  91.2645341  94.1520811  11.7886543  91.6086804  93.9220614
   5.9247091  86.7228919  94.4872257   5.6197227  87.0375068  95.3382400
   6.8777533  86.8010339  94.5299590   4.3693523  92.8819142  96.1365211
   3.8414885  92.1471902  95.8238448   3.8681026  93.6593818  95.8905179
   9.3486369  91.0768162 101.2532257   8.6910043  91.7667424 101.3412386
  10.1526768  91.4664594 101.5966244   8.1591828  89.4312535  99.3036199
   8.6723710  90.0642527  99.8057909   8.8093052  88.8313731  98.9379559
   1.4034918  80.4180057  97.2246892   0.7499331  80.1029074  96.6003507
   1.3615392  79.7955798  97.9506715   2.5146123  90.6999352  89.1400184
   1.6073185  90.4688606  89.3391333   3.0117155  89.9036972  89.3274166
   5.4214202  99.4096859  92.0596870   4.7475901  99.7128556  92.6681828
   5.8080024 100.2125940  91.7102327   4.6372659  86.9061991 101.5494540
   3.7195220  87.1276938 101.3916228   5.0532802  86.9808301 100.6906247
   5.4207706  88.3053406  96.6797220   6.1679525  88.8174804  96.3704342
   5.6899296  87.9837459  97.5401613   3.6934357  90.8011947  93.6624174
   2.7845576  90.5170980  93.7596644   3.7229440  91.2211026  92.8027481
   8.9253624  94.4118537  97.4315342   8.4715951  93.5709447  97.4880532
   8.2947591  95.0479935  97.7690122   7.8686544  85.3410523  98.6616009
   7.1309300  84.8287909  98.9926252   8.1213317  84.9010904  97.8499286
   7.3686563  96.2495033  98.3665160   7.6609538  96.8100090  97.6477525
   7.8785184  96.5423594  99.1218319   7.9698171  78.1186775  99.2557778
   8.2757048  77.2584138  98.9683693   8.6950776  78.7104395  99.0556772
   2.2419251  88.4140568  99.7633969   2.2967860  87.4614404  99.6876446
   1.4310453  88.5700007 100.2475268   3.3910444  92.3420691  91.0012253
   2.9529874  91.6256550  90.5417890   4.1320885  92.5696806  90.4397344
   2.3320188  97.0275384  99.4558613   2.2896367  97.2536231  98.5267145
   3.2482887  96.7938759  99.6044414   5.7785822  87.4959452 106.3539242
   6.1335210  87.7230925 107.2133708   6.4257953  87.8277829 105.7316497
  11.5083559  90.6177888  97.0588571  11.3701458  90.8079484  96.1309760
  11.1519778  91.3797271  97.5156622  11.5352939  92.6854415 102.0699843
  11.9689445  92.5929704 102.9182897  12.2484519  92.6611915 101.4319859
   5.2680834  96.2856509 103.6032943   5.3217856  96.8547445 104.3710659
   4.3995615  96.4558394 103.2386980  12.3968488  92.7278115 104.6032728
  12.5904378  93.6323926 104.8492003  12.2969106  92.2685535 105.4371313
   4.0504799  82.6136006 107.1023055   3.4032714  83.3125956 107.0087532
   4.8205814  83.0472150 107.4699304   7.4583597  92.8784858 110.1773609
   7.3069103  92.6495410 109.2603692   7.4488276  93.8355460 110.1904954
   4.2268933  90.4516771 105.1619875   5.1560993  90.6027931 104.9888842
   3.8059963  90.5400792 104.3068522   3.0257265  94.4767435 102.9318413
   2.8868351  94.1086220 103.8044351   2.2371861  94.9915075 102.7602371
   3.6205417  99.5776532  94.2743949   3.7957173  99.1064575  95.0889572
   2.9338205 100.2042298  94.5025210   4.5762480  93.8549038 100.3207251
   4.2412313  93.8149808 101.2164900   4.0766426  93.1893754  99.8477661
   7.5121672  91.2005072  90.5944310   6.8950843  90.4751901  90.4977363
   7.0438160  91.9614433  90.2511385   1.1789025  88.9736627 105.3343511
   1.8888643  88.3329820 105.2930130   1.1358333  89.2249522 106.2569692
   9.1675804  95.9103981 108.2550091   9.1088350  95.2263201 107.5880674
   9.5695322  96.6522971 107.8030717   9.1693211  93.8743565 106.4864070
   8.2819990  93.5369487 106.6090469   9.7391762  93.1426596 106.7232836
   2.6994364  98.5345017 103.4525313   2.6264536  99.3399989 103.9644618
   2.2571757  98.7336983 102.6273335   2.4884144  97.7716787  96.9628135
   1.7051666  98.3138467  97.0566360   3.1876889  98.2890767  97.3622376
   5.7980794  83.5811417  99.6062340   6.2949494  82.8281379  99.2863411
   5.0267776  83.6175733  99.0405550  13.6510551  89.2851782 101.2480632
  13.6400428  90.1676498 100.8774565  12.7827931  88.9323333 101.0535169
   5.1593048  98.4331851 105.6083472   5.8721020  99.0679316 105.5359374
   4.6683076  98.5295717 104.7923474   6.8810575  92.3383104  97.1800764
   5.9466853  92.4584566  97.0105468   7.0587243  91.4355571  96.9160774
   2.3815763  85.7228800  99.3334025   2.0113550  85.1699840 100.0214931
   2.8774855  85.1186933  98.7809025  10.2683126  88.1800423  97.7150798
  10.7343578  89.0128415  97.6411101  10.7190627  87.7145405  98.4196056
   8.3359357  94.5244244  94.7136950   8.6119201  94.4100839  95.6230824
   7.4663856  94.1261729  94.6749123   8.2399789  80.5481010 101.7541699
   7.3262869  80.7785237 101.9223906   8.6692890  80.6319454 102.6055732
   8.0106247  88.7370902 104.2541593   7.3577698  88.9846809 103.5994046
   8.3886627  87.9235040 103.9204071   4.9713421  98.7730595  98.3569764
   5.1535816  97.9552251  98.8197516   5.7946407  98.9898287  97.9194654
   5.3055587  97.6998780  95.6184812   5.8343353  97.1891235  95.0054974
   5.5683806  97.3841311  96.4830345   4.0593820  89.4790713 110.7407630
   3.3834457  89.3784842 111.4110006   4.8821454  89.3229927 111.2043628
   2.8016603 100.7857641 104.9765246   3.3534911 100.9489262 105.7414332
   3.1422797 101.3762078 104.3045271   7.6527478  95.6118898 110.8313901
   8.1967382  96.2248856 110.3368856   7.0714322  96.1698476 111.3480914
   5.9384990  98.7339616 101.9628929   5.8136130  97.9329356 101.4539874
   6.5964082  99.2285809 101.4742899   8.0019899  96.5348636 103.5908479
   7.0550234  96.4153987 103.5186805   8.3502672  95.6471134 103.6734740
   5.0066332  96.3301352  99.7912831   4.8591295  95.4018060  99.9720401
   5.8319826  96.3521443  99.3069906   8.6100454  97.1529911 100.8777704
   9.5347002  96.9472772 100.7402155   8.4415757  96.9046312 101.7867045
   1.5672017  83.3656470 105.0996391   1.2268838  82.5664283 105.5017071
   0.8611024  83.6658181 104.5273224   2.2188489  80.4505783 103.5523714
   3.0414558  79.9766261 103.4302604   2.4626553  81.2296266 104.0522400
   5.0027846  84.1839190  94.7844948   5.2191461  85.0663828  94.4833776
   4.5221914  83.7925403  94.0550590   1.6023451  84.1327451 101.4096582
   1.5885020  83.2368545 101.0728880   2.3195879  84.1398115 102.0434868
   3.4549581  84.5664791 103.4549710   3.1967359  85.4881862 103.4534040
   2.9234622  84.1695226 104.1450174   8.3995770  97.6715579  96.2339795
   8.5732648  97.1062001  95.4813648   8.8924661  98.4716473  96.0519285
   1.0060347  83.0141831  96.6784152   1.1276258  82.0858478  96.8775040
   0.7162389  83.0280517  95.7662468   3.8751537  80.6996742  99.8150872
   3.8973234  80.7636075  98.8602852   4.2919596  79.8601251 100.0091378
  14.2535161  90.4352001  97.8530095  14.6966307  89.6859327  97.4549218
  13.3761672  90.4262138  97.4703827   9.3870943  96.9882343  93.3336693
  10.0821847  97.6089036  93.5524008   9.7294093  96.1377694  93.6089071
  11.2862366  94.4382048  94.8624024  11.8113690  94.7769321  94.1373344
  11.1984718  93.5029064  94.6787159   2.9482415  98.3516122 106.9913901
   3.2569541  98.1065269 107.8636600   3.7457897  98.5562761 106.5032771
   2.9703027 100.5054032  99.2219277   2.5308017 100.0130410  99.9152134
   3.7211144  99.9626999  98.9811353   0.4901426  84.5273829 110.8874085
   0.5389582  85.4035952 110.5051855   1.0323940  83.9851222 110.3145728
  10.9756272  95.0714952 110.1675222  10.1851816  95.0539091 109.6279721
  10.7389626  95.6103246 110.9224259  11.0954147  91.9207418 107.4807951
  11.1452152  91.7557426 108.4223473  10.9868070  91.0534678 107.0905831
   8.3857909  87.9038347 108.7967257   9.2867772  87.7644811 108.5051255
   8.4605884  88.0692801 109.7365435   2.7200715  85.2805201 107.6420444
   1.8504024  85.5738767 107.3703032   2.9560195  85.8645646 108.3627707
  12.5972344  94.3404360 107.7249972  12.3057152  94.7034341 108.5613433
  11.9844475  93.6271368 107.5463304  13.7968026  91.9057240 100.2452542
  14.6314917  92.3447044 100.4090103  13.9327155  91.4295893  99.4260788
  10.8459532  89.4636975 106.1930030  11.3213654  89.6564621 105.3848882
   9.9225097  89.5196160 105.9473414   5.4239749  81.4984818 105.1585864
   5.9421692  82.2345845 104.8332353   5.0694881  81.8048811 105.9932623
   5.6752343  77.9185101 100.6786761   5.9554096  77.2508290 101.3047187
   6.4602950  78.1114196 100.1661424   3.4785811  97.0944095  92.2411787
   2.9059778  97.7134282  91.7882259   4.0518605  97.6443456  92.7751709
   9.5461201  86.3402735 104.4258336  10.4978624  86.4400832 104.4470560
   9.3764651  85.5481003 104.9356420   7.5675580  83.4258318 104.6117737
   6.9725513  83.7063331 103.9164225   7.2825277  83.9152219 105.3834478
   6.6983071  97.3781245  93.3720369   7.6313744  97.3126806  93.5753245
   6.6106284  98.2137512  92.9134902   9.3271088  96.6947115  90.3324317
   9.2484719  96.3606979  91.2260075  10.1480754  97.1868883  90.3315789
  12.0249279  89.5608854 103.5400635  11.9925599  88.6224855 103.7260319
  12.6349902  89.6392891 102.8066460   3.8632610  88.4304907  89.5827839
   4.8091714  88.3011115  89.6516257   3.4846855  87.6919569  90.0597268
  12.1743767  86.3519898 103.5858919  11.6582816  85.5678354 103.3988847
  13.0583716  86.0238614 103.7505438   9.8354494  80.0960913  99.5454731
   9.6379315  79.7876002 100.4298063  10.4454200  80.8222552  99.6752661
  17.8425829  90.6224861 102.6806672  18.5729217  90.3610149 103.2414376
  17.2332774  89.8853583 102.7208740  15.9241126  88.7632724 103.2781123
  15.1974289  88.6288689 102.6697615  15.5088413  89.0709552 104.0837841
   3.7471302  92.4822654 111.0428496   4.6674312  92.6601253 111.2368543
   3.7120885  91.5378699 110.8908196   2.0475527  86.3554884  89.5182725
   1.1406982  86.0587996  89.5945438   2.3251508  86.0584702  88.6517011
   3.6637593  80.8991773  95.6726966   2.8538321  80.5538858  96.0482212
   4.3522009  80.5899317  96.2614578   5.5928141  79.9769820  97.2951263
   6.1459179  80.3965274  97.9541286   5.8298227  79.0505568  97.3374219
   1.6161240  85.9656894 113.0754027   1.5157967  86.9151251 113.0066118
   1.3982782  85.6375133 112.2030097   0.8174311  83.2141819  89.6594704
   1.6793475  83.5396717  89.9190521   1.0024656  82.4273315  89.1467770
   8.9706948  82.0870345  96.8029927   8.3905617  82.7455149  96.4207979
   8.7042881  81.2647690  96.3917344   7.4210514  81.4875403  99.0051247
   7.9210293  81.5991938  98.1965566   8.0646122  81.1836456  99.6452056
   1.4792510  89.3954033 111.8919088   0.9959592  90.1954393 112.0982977
   1.5653449  89.4061978 110.9386532   7.7531826  84.2470436  95.8586275
   6.8657681  84.5320086  95.6406470   8.1685815  84.0864199  95.0113552
  11.1046362  84.2716957  99.5740614  11.8806752  84.7613409  99.8465231
  10.3794496  84.6975011 100.0312484  13.5418921  84.9844576 100.6314555
  14.1363412  84.7440312  99.9207863  13.6145504  84.2651707 101.2588091
   6.8975039  94.0115110  89.9534295   7.6010890  94.2165113  90.5691951
   6.1737688  94.5791872  90.2183379   7.7272850  89.7624972  96.0736565
   7.6708051  90.2193523  95.2344198   8.2801192  89.0015656  95.8959408
  11.5377656  85.5514704  96.8986685  11.2814590  85.1511339  97.7294892
  10.9130524  86.2658498  96.7736824  15.8489993  88.2910777  99.4057976
  15.2889551  88.3603966 100.1789538  15.2433497  88.1151762  98.6857472
   8.8061737  94.4497640  92.0032755   9.6407341  94.0178838  91.8210230
   8.6446080  94.2779653  92.9309650   8.4607629  90.9529753  93.3689094
   8.4056433  90.7874024  92.4277539   7.8353684  91.6605786  93.5251284
   5.7753536  93.2578665 112.6942657   6.6444696  93.4319317 112.3329292
   5.2960288  94.0773082 112.5718387   1.7703754  80.4537862  92.9474413
   1.7582424  81.3979702  93.1042684   2.6627176  80.2708007  92.6533874
   1.6993318  99.1306752 101.0342170   0.7488949  99.1308614 100.9206542
   2.0025805  98.3839487 100.5178204   5.5855874  77.0480639  97.2020350
   4.8188270  76.4939125  97.3477032   5.9966579  77.1202507  98.0634501
  17.4346012 104.9667291 102.0987932  18.0724422 104.8474038 101.3951272
  17.3166855 105.9148135 102.1575884  14.2435718 104.9194719 102.0349457
  13.9054230 104.8035784 101.1469991  15.1125486 104.5185884 102.0150463
  10.1022534 106.7730195  98.0246348   9.5387399 106.6820132  97.2562635
   9.9874929 105.9530100  98.5048840  14.7255501 106.0729571 107.9935662
  14.7144142 105.6782369 107.1216166  14.8876141 105.3395643 108.5869434
   7.6486966 108.2681387 100.8630568   8.4408258 107.9272212 100.4476867
   7.8883616 108.3776362 101.7832721  15.6822093 110.4401163  93.3360812
  15.0310072 111.0255243  92.9494826  16.4766455 110.9707358  93.3955850
   9.6077720 107.5290300  93.7347947  10.3808596 106.9819287  93.5960823
   9.9603119 108.3934550  93.9462408  11.4462762 108.8566682 106.9414846
  11.1552628 109.7612313 106.8261512  12.0819747 108.8983210 107.6558916
  12.3718969 106.2343531 103.5316206  12.9682541 106.0099553 102.8173169
  12.4293941 105.4928276 104.1341654  11.9443998 103.6882966  91.3666397
  12.1969518 103.1664488  90.6049860  11.0068557 103.5249112  91.4693080
  16.9887280 102.6918745  99.1741140  17.7750370 102.2738168  98.8231557
  17.2525985 103.5964837  99.3422788  17.1597358 108.1291595  93.8729797
  16.5243191 108.2026221  94.5850701  16.8294764 108.7185194  93.1948876
  22.3895708 102.6293978 100.0774118  23.1220879 102.0593195 100.3111948
  21.6335063 102.2415578 100.5180624  11.6640286 105.5911072  93.5690772
  11.5476544 104.9155976  94.2371856  11.7742546 105.1043446  92.7522925
  14.0071827 105.0521219  97.2737461  13.6430034 104.5251840  97.9850382
  14.8638943 104.6619688  97.1003946  19.9121128  96.3415552 104.5368727
  19.5804453  97.2110963 104.3129942  19.3166741  96.0251836 105.2162757
  13.6477314 100.0811119  92.2698809  13.8151717 100.9491355  92.6369280
  13.4574483 100.2438401  91.3460099  16.4052647 108.5428098 103.9364640
  16.1053371 109.4453137 103.8280447  16.0603707 108.2760281 104.7885793
   9.8565129 104.9941895  99.9701344   8.9315625 104.8618109 100.1779036
  10.1049542 105.7736114 100.4671287  19.8049791 101.0610638 101.6162077
  18.8966669 100.9926047 101.3220838  19.7537387 101.5382583 102.4443903
  13.6266535 102.5368777  93.2545476  13.5066160 102.9825827  94.0930957
  12.9319123 102.8854094  92.6959014   7.2173940 104.6375168 100.8045133
   7.3466321 104.8909647 101.7184545   6.5371391 105.2302876 100.4849788
  11.3873427 115.3072418  96.9035607  11.3097457 116.2580243  96.9824088
  10.7835071 114.9618291  97.5610534  13.8790657 102.4800284 109.5596974
  13.1023991 103.0394204 109.5499839  14.5181220 102.9657067 110.0811845
  21.6711438  99.2627077 103.3939951  21.0285818  99.5559610 102.7479746
  21.1666366  99.1479997 104.1993148  19.3251601 103.0090250  94.0825810
  20.2369457 103.2417636  93.9073508  18.8161248 103.5927294  93.5200889
  12.1337029 105.2885737 109.1214941  12.8751714 105.8270781 108.8449765
  11.4274015 105.9152026 109.2786493  17.6092369 107.4314878 107.7187103
  18.0175725 106.9897288 106.9741735  16.8869630 106.8567505 107.9721296
  13.9623439 102.3687484 105.0920660  14.8084634 102.7926898 105.2355309
  13.9022077 101.7121109 105.7859223  17.9321184 107.9916068 101.4739392
  17.3030046 108.1561782 100.7715460  17.5446846 108.4057678 102.2450356
  21.8110415 108.9270506  98.8283756  21.1261454 109.3069407  98.2780789
  21.8954265 109.5365833  99.5615703  17.1122884 100.0291853 106.7501833
  16.8683816 100.7833913 106.2136109  17.3882815 100.4077200 107.5849081
  19.0661347 106.5730465 105.4279099  19.2778242 107.2162225 104.7513480
  19.0191095 105.7392782 104.9601029  16.6687576  99.1848286 102.3315671
  15.8072055  99.4829539 102.6232409  16.6950011  99.4018685 101.3996704
  13.4849145 107.7290476  98.7389477  13.9487491 108.0078179  97.9494099
  13.2205944 106.8273921  98.5562568  10.3773227 107.2761958 101.6769240
  10.9474584 107.7049226 101.0386725  10.9681338 106.9944543 102.3753426
  12.4218032 103.8513629  95.5479042  13.1242075 104.3034672  96.0152968
  12.0898660 103.2097448  96.1758935  10.8698393 102.4425385 109.9230251
  10.2397054 103.1241666 110.1565648  10.7634481 102.3308467 108.9783390
   6.1643365 102.1097181 100.8496176   5.3742419 102.3654710 100.3736286
   6.6554613 102.9245519 100.9548216  20.1807175 109.4502420 103.6001456
  21.0024619 109.0482608 103.3184138  20.1769578 109.3470655 104.5517572
   8.1158111 102.4741761  97.8079652   7.3189274 102.5860455  98.3263148
   7.8883703 102.8128413  96.9420543  13.9463778 108.9986464 105.7562167
  14.0108211 109.4606871 106.5920339  13.2374702 108.3683829 105.8844477
   4.4481068 102.3627672 103.2811166   4.6989107 103.2474682 103.5468742
   4.9840617 102.1832273 102.5086258  28.2713168 105.7941169  99.9486428
  27.5176876 105.2248567  99.7930432  28.4060709 105.7603833 100.8957063
  13.6611796 110.6654571  95.6241147  13.5257471 111.5106107  96.0525995
  14.2021609 110.8673849  94.8607081  10.1479136  96.7446151 112.2855502
   9.7546081  96.1912350 112.9603147  10.9645276  97.0556730 112.6762020
   7.1141194 108.1830009  96.1969072   7.6265714 108.9773260  96.3474637
   7.7663906 107.4856300  96.1302674   8.9236078 111.2995766  98.2791825
   9.1002707 112.2213730  98.0912809   9.7192912 110.9854185  98.7086205
  13.0647097  98.1604030 109.8775759  13.8056810  98.7611183 109.7980221
  13.2965020  97.4181668 109.3193802   8.2088435 103.3460397 108.1553989
   8.0941950 102.4445655 108.4561088   7.3532953 103.5924094 107.8038805
  15.2880273 111.2878138 109.7541489  14.8444127 110.5014516 109.4362394
  15.9497486 111.4757288 109.0885380  10.0467394 112.8173939 104.2802168
  10.5974819 112.6891003 103.5079162   9.2078870 113.1168828 103.9297061
  17.3861511 111.5680938 107.7822891  17.3679986 112.3889819 107.2903160
  18.3081431 111.4435013 108.0073032  13.8434565 109.0825067 108.6246399
  14.3762902 108.3213355 108.3945707  13.3148646 108.7898719 109.3670553
  17.0104260  94.1885133 104.1540041  16.6668529  95.0786775 104.0779151
  17.3783222  93.9986791 103.2909626   5.0790110 106.5118664  96.9728643
   5.9165332 106.9215672  96.7562351   5.2568378 105.5718106  96.9428837
  16.9754542 104.1793744  92.6612476  16.4601166 104.9498349  92.9000863
  16.7031851 103.5058880  93.2845537  14.5601653  99.0243445  97.7197714
  13.7043250  98.6350295  97.5403353  14.9728605  99.1035406  96.8597500
  16.0900800  96.5589788 102.1189274  15.5865596  96.5219923 101.3057079
  16.3831407  97.4682531 102.1785931  12.3343686  96.6428518 101.1255456
  13.1996683  96.4471327 100.7661345  12.4021195  96.4138870 102.0524812
  21.9488817 106.9326099  94.5965649  21.1718259 106.5937258  94.1520811
  22.6280298 106.9378722  93.9220614  16.7640846 102.0520836  94.4872257
  16.4590981 102.3666986  95.3382400  17.7171288 102.1302256  94.5299590
  15.2087277 108.2111060  96.1365211  14.6808639 107.4763819  95.8238448
  14.7074780 108.9885736  95.8905179  20.1880123 106.4060080 101.2532257
  19.5303798 107.0959342 101.3412386  20.9920523 106.7956512 101.5966244
   9.9406005  98.8730726  98.4971822  10.5149757  98.6505907  97.7645015
  10.5276987  98.9419420  99.2500424  18.9985582 104.7604453  99.3036199
  19.5117464 105.3934445  99.8057909  19.6486806 104.1605648  98.9379559
  10.2675592 100.9035187  92.5167708   9.4312904 101.2409874  92.8376982
  10.1280362 100.7684167  91.5794845  12.2428673  95.7471975  97.2246892
  11.5893085  95.4320992  96.6003507  12.2009147  95.1247715  97.9506715
  13.3539878 106.0291270  89.1400184  12.4466939 105.7980523  89.3391333
  13.8510910 105.2328889  89.3274166  16.2607957 114.7388777  92.0596870
  15.5869655 115.0420474  92.6681828  16.6473778 115.5417857  91.7102327
  15.4766413 102.2353908 101.5494540  14.5588974 102.4568855 101.3916228
  15.8926557 102.3100219 100.6906247  16.2601461 103.6345324  96.6797220
  17.0073280 104.1466721  96.3704342  16.5293050 103.3129377  97.5401613
  14.5328111 106.1303865  93.6624174  13.6239330 105.8462898  93.7596644
  14.5623195 106.5502943  92.8027481  19.7647378 109.7410454  97.4315342
  19.3109706 108.9001364  97.4880532  19.1341345 110.3771853  97.7690122
  18.7080298 100.6702440  98.6616009  17.9703055 100.1579827  98.9926252
  18.9607072 100.2302822  97.8499286  18.2080318 111.5786951  98.3665160
  18.5003292 112.1392008  97.6477525  18.7178938 111.8715512  99.1218319
  18.8091925  93.4478692  99.2557778  19.1150802  92.5876056  98.9683693
  19.5344530  94.0396313  99.0556772   5.1016281 103.8509379  97.6439376
   4.9040681 103.2578740  96.9190443   4.5462945 103.5461589  98.3615315
  13.0813005 103.7432485  99.7633969  13.1361615 102.7906322  99.6876446
  12.2704207 103.8991924 100.2475268  14.2304199 107.6712608  91.0012253
  13.7923629 106.9548467  90.5417890  14.9714640 107.8988723  90.4397344
  11.0205365 102.3609545  97.5224348  10.2073231 102.6603716  97.9289540
  11.5164359 101.9665234  98.2398831  13.1713943 112.3567302  99.4558613
  13.1290122 112.5828148  98.5267145  14.0876642 112.1230677  99.6044414
  16.6179577 102.8251370 106.3539242  16.9728964 103.0522843 107.2133708
  17.2651708 103.1569746 105.7316497  22.3477314 105.9469806  97.0588571
  22.2095212 106.1371401  96.1309760  21.9913532 106.7089188  97.5156622
  10.5119440  99.9327901 103.1385583  11.1518819  99.7916660 102.4408547
   9.6796970  99.6462414 102.7624185  22.3746693 108.0146333 102.0699843
  22.8083200 107.9221622 102.9182897  23.0878274 107.9903833 101.4319859
  11.2879744 109.2330331  99.2520576  12.0820342 108.7380651  99.0503151
  10.5771436 108.7048194  98.8888281  16.1074588 111.6148427 103.6032943
  16.1611610 112.1839363 104.3710659  15.2389370 111.7850312 103.2386980
   7.5962507 103.3773413  95.3280328   6.6660095 103.3157868  95.5450291
   7.6919979 102.8549366  94.5316970   7.5148056  99.9028226  97.9158570
   7.7754873 100.8173559  97.8067731   8.3365229  99.4352668  98.0655183
   8.9872982 101.3165983 105.0857395   9.6596035 101.1083345 104.4370043
   8.1602768 101.1188069 104.6462627  23.2362243 108.0570033 104.6032728
  23.4298133 108.9615844 104.8492003  23.1362861 107.5977452 105.4371313
  14.8898554  97.9427924 107.1023055  14.2426469  98.6417873 107.0087532
  15.6599569  98.3764068 107.4699304  18.2977351 108.2076776 110.1773609
  18.1462858 107.9787328 109.2603692  18.2882031 109.1647377 110.1904954
  15.0662688 105.7808689 105.1619875  15.9954748 105.9319848 104.9888842
  14.6453718 105.8692709 104.3068522  13.8651020 109.8059353 102.9318413
  13.7262105 109.4378137 103.8044351  13.0765616 110.3206993 102.7602371
  14.4599172 114.9068450  94.2743949  14.6350927 114.4356493  95.0889572
  13.7731960 115.5334216  94.5025210  15.4156235 109.1840956 100.3207251
  15.0806067 109.1441726 101.2164900  14.9160181 108.5185672  99.8477661
   9.3900479 104.5908586 105.8459832   9.2520277 103.8588825 106.4471371
  10.3005402 104.5017486 105.5644019  18.3515426 106.5296990  90.5944310
  17.7344597 105.8043818  90.4977363  17.8831915 107.2906350  90.2511385
  12.0182779 104.3028545 105.3343511  12.7282398 103.6621737 105.2930130
  11.9752088 104.5541440 106.2569692  20.0069558 111.2395898 108.2550091
  19.9482104 110.5555119 107.5880674  20.4089077 111.9814888 107.8030717
  10.7311713 101.2893763 107.1539151  10.1949070 100.8384501 107.8060747
  10.1428422 101.4239672 106.4109615   9.0260257 118.0557812 101.0483810
   9.2656855 118.6876336 101.7262828   8.1829453 117.7045852 101.3349169
  10.1413972 100.7482414  89.7165615   9.2643439 100.6271215  89.3527861
  10.6171725  99.9568493  89.4644503  20.0086965 109.2035482 106.4864070
  19.1213744 108.8661404 106.6090469  20.5785516 108.4718514 106.7232836
   1.6616113 105.5359574  99.8107122   2.3487152 105.2221304  99.2228137
   1.5064241 106.4400939  99.5374373   6.4650835 100.4249771 104.2392145
   6.3809023  99.8175440 103.5042555   5.6433541 100.9158789 104.2401642
  13.5388119 113.8636935 103.4525313  13.4658290 114.6691906 103.9644618
  13.0965512 114.0628901 102.6273335  13.3277898 113.1008705  96.9628135
  12.5445420 113.6430385  97.0566360  14.0270644 113.6182684  97.3622376
  16.6374549  98.9103334  99.6062340  17.1343248  98.1573297  99.2863411
  15.8661530  98.9467651  99.0405550  24.4904306 104.6143700 101.2480632
  24.4794182 105.4968415 100.8774565  23.6221685 104.2615251 101.0535169
  15.9986802 113.7623769 105.6083472  16.7114775 114.3971234 105.5359374
  15.5076831 113.8587635 104.7923474  17.7204329 107.6675021  97.1800764
  16.7860608 107.7876484  97.0105468  17.8980998 106.7647488  96.9160774
  13.2209517 101.0520717  99.3334025  12.8507305 100.4991758 100.0214931
  13.7168610 100.4478851  98.7809025  21.1076881 103.5092341  97.7150798
  21.5737333 104.3420332  97.6411101  21.5584381 103.0437322  98.4196056
  11.0498716 111.5118212 106.4289043  11.7508175 112.1454695 106.5818437
  10.5793831 111.8532944 105.6684682  19.1753112 109.8536162  94.7136950
  19.4512956 109.7392757  95.6230824  18.3057610 109.4553647  94.6749123
  19.0793543  95.8772928 101.7541699  18.1656623  96.1077155 101.9223906
  19.5086645  95.9611372 102.6055732  18.8500002 104.0662820 104.2541593
  18.1971452 104.3138727 103.5994046  19.2280382 103.2526958 103.9204071
  15.8107176 114.1022513  98.3569764  15.9929570 113.2844169  98.8197516
  16.6340162 114.3190205  97.9194654  16.1449341 113.0290698  95.6184812
  16.6737108 112.5183153  95.0054974  16.4077561 112.7133228  96.4830345
  14.8987575 104.8082631 110.7407630  14.2228212 104.7076760 111.4110006
  15.7215209 104.6521844 111.2043628   6.6466434 111.0454567 103.3620146
   7.2319871 110.2998255 103.4948050   6.4491272 111.3558524 104.2456810
   9.5005089 114.0805815  98.3782588   8.8315464 114.5651942  97.8946628
   9.3617959 114.3275035  99.2925967   1.2384089 103.6160168 102.0824589
   1.2768188 103.0823758 102.8761707   0.7324381 103.0895373 101.4635566
  13.6410358 116.1149558 104.9765246  14.1928666 116.2781180 105.7414332
  13.9816551 116.7053996 104.3045271   8.6174851  98.4624708 105.5787131
   8.6816177  99.3239539 105.1664529   8.5541971  97.8498710 104.8459490
   8.0927123 100.5347841 109.2260165   8.7199162 100.1524918 109.8397690
   7.2355042 100.3162042 109.5915858  18.4921232 110.9410816 110.8313901
  19.0361136 111.5540774 110.3368856  17.9108077 111.4990394 111.3480914
   4.8692666 102.3424270  95.1578520   5.1646107 101.4334948  95.1045574
   3.9680702 102.3212009  94.8359523  16.7778745 114.0631534 101.9628929
  16.6529884 113.2621274 101.4539874  17.4357836 114.5577727 101.4742899
   8.3986913 100.4180266 101.1406069   7.6773499 101.0316234 101.0013542
   9.1880169 100.9538031 101.0622715  18.8413653 111.8640554 103.5908479
  17.8943989 111.7445905 103.5186805  19.1896426 110.9763052 103.6734740
  11.2013227  97.7534693 107.4146721  11.7247629  97.9996989 108.1773030
  10.9825560  98.5854728 106.9949858   6.5980508 100.0238367  95.2817845
   6.2693214  99.1435746  95.0992951   6.9519879  99.9686036  96.1694235
  15.8460087 111.6593270  99.7912831  15.6985049 110.7309977  99.9720401
  16.6713580 111.6813361  99.3069906   9.7122331 100.3111337  95.6493323
  10.0518403 100.8397258  94.9271931  10.1594451 100.6491743  96.4251890
  19.4494209 112.4821829 100.8777704  20.3740756 112.2764690 100.7402155
  19.2809512 112.2338230 101.7867045  12.4065772  98.6948388 105.0996391
  12.0662592  97.8956201 105.5017071  11.7004778  98.9950099 104.5273224
  13.0582244  95.7797700 103.5523714  13.8808313  95.3058178 103.4302604
  13.3020307  96.5588184 104.0522400  11.6990478  98.8085959  93.8486616
  12.4198841  99.1867211  93.3450333  11.0755782  99.5274836  93.9521594
  15.8421601  99.5131108  94.7844948  16.0585215 100.3955746  94.4833776
  15.3615668  99.1217321  94.0550590  10.5820822 102.4716821 101.3615693
  10.4365403 102.7857124 102.2539974  10.1046026 103.0901721 100.8086591
  12.4417205  99.4619369 101.4096582  12.4278774  98.5660462 101.0728880
  13.1589633  99.4690033 102.0434868  14.2943336  99.8956709 103.4549710
  14.0361114 100.8173780 103.4534040  13.7628376  99.4987144 104.1450174
  19.2389525 113.0007496  96.2339795  19.4126402 112.4353919  95.4813648
  19.7318416 113.8008391  96.0519285   5.0566485 105.0122165 104.3003354
   4.5119953 105.7881973 104.4323628   5.9345834 105.3592970 104.1422475
  11.8454101  98.3433749  96.6784152  11.9670012  97.4150395  96.8775040
  11.5556144  98.3572435  95.7662468  14.7145292  96.0288660  99.8150872
  14.7366988  96.0927993  98.8602852  15.1313351  95.1893168 100.0091378
  25.0928916 105.7643919  97.8530095  25.5360062 105.0151244  97.4549218
  24.2155426 105.7554056  97.4703827  20.2264697 112.3174261  93.3336693
  20.9215602 112.9380953  93.5524008  20.5687847 111.4669612  93.6089071
   5.8432506 104.1392062 107.1933511   5.1014242 104.2874697 107.7798141
   5.5225251 104.4000327 106.3300260  22.1256120 109.7673966  94.8624024
  22.6507444 110.1061239  94.1373344  22.0378473 108.8320981  94.6787159
  13.7876169 113.6808040 106.9913901  14.0963295 113.4357187 107.8636600
  14.5851651 113.8854678 106.5032771  13.8096781 115.8345949  99.2219277
  13.3701771 115.3422328  99.9152134  14.5604898 115.2918917  98.9811353
   6.2889120 112.0257490  99.2243905   7.1147140 111.7261262  98.8442549
   5.9383172 111.2565113  99.6733694  11.2570653 111.3783959 101.2941579
  10.6350663 110.7154664 100.9943807  11.9275520 111.4045090 100.6115227
   4.4897725 109.9443817 100.1832839   3.6529633 109.5165991 100.0016840
   4.4621371 110.1376260 101.1203630  11.3295181  99.8565747 110.8874085
  11.3783336 100.7327869 110.5051855  11.8717695  99.3143140 110.3145728
  21.8150026 110.4006870 110.1675222  21.0245570 110.3831009 109.6279721
  21.5783381 110.9395163 110.9224259  21.9347901 107.2499336 107.4807951
  21.9845906 107.0849344 108.4223473  21.8261825 106.3826595 107.0905831
  10.8184160 109.9287882  94.7700040  10.9672281 110.6123346  94.1166712
  11.6250604 109.9092972  95.2849495  19.2251664 103.2330264 108.7967257
  20.1261527 103.0936729 108.5051255  19.2999638 103.3984719 109.7365435
  13.5594469 100.6097119 107.6420444  12.6897779 100.9030685 107.3703032
  13.7953950 101.1937564 108.3627707  23.4366098 109.6696278 107.7249972
  23.1450907 110.0326258 108.5613433  22.8238230 108.9563286 107.5463304
  24.6361781 107.2349157 100.2452542  25.4708672 107.6738962 100.4090103
  24.7720909 106.7587811  99.4260788  21.6853287 104.7928892 106.1930030
  22.1607408 104.9856539 105.3848882  20.7618852 104.8488078 105.9473414
   8.5736793 105.9553059  95.7761108   8.3282835 105.0515389  95.9741319
   8.7432708 105.9570210  94.8340586  16.2633503  96.8276736 105.1585864
  16.7815447  97.5637763 104.8332353  15.9088636  97.1340729 105.9932623
   7.8432441 101.6881417  93.2747270   7.1501686 101.7625772  92.6187306
   7.5984193 100.9241761  93.7968787  16.5146097  93.2477018 100.6786761
  16.7947851  92.5800207 101.3047187  17.2996704  93.4406114 100.1661424
  14.3179566 112.4236012  92.2411787  13.7453533 113.0426199  91.7882259
  14.8912359 112.9735374  92.7751709  20.3854956 101.6694652 104.4258336
  21.3372378 101.7692750 104.4470560  20.2158406 100.8772921 104.9356420
  18.4069335  98.7550236 104.6117737  17.8119267  99.0355248 103.9164225
  18.1219032  99.2444137 105.3834478  17.5376825 112.7073162  93.3720369
  18.4707499 112.6418724  93.5753245  17.4500038 113.5429429  92.9134902
  20.1664842 112.0239033  90.3324317  20.0878474 111.6898896  91.2260075
  20.9874509 112.5160801  90.3315789  22.8643033 104.8900772 103.5400635
  22.8319353 103.9516773 103.7260319  23.4743657 104.9684809 102.8066460
  14.7026364 103.7596825  89.5827839  15.6485469 103.6303033  89.6516257
  14.3240609 103.0211487  90.0597268  23.0137522 101.6811816 103.5858919
  22.4976570 100.8970272 103.3988847  23.8977470 101.3530532 103.7505438
  20.6748249  95.4252831  99.5454731  20.4773070  95.1167919 100.4298063
  21.2847954  96.1514470  99.6752661  28.6819583 105.9516779 102.6806672
  29.4122972 105.6902067 103.2414376  28.0726529 105.2145501 102.7208740
  26.7634880 104.0924642 103.2781123  26.0368044 103.9580606 102.6697615
  26.3482167 104.4001470 104.0837841  14.5865057 107.8114571 111.0428496
  15.5068066 107.9893170 111.2368543  14.5514640 106.8670617 110.8908196
  12.8869281 101.6846801  89.5182725  11.9800737 101.3879914  89.5945438
  13.1645262 101.3876620  88.6517011   3.8047222 103.0053165  99.9681771
   3.4850006 102.1518473  99.6756145   3.2580650 103.2201743 100.7239738
   7.5827129 105.7215606 103.6851278   7.8013139 106.6532714 103.7039311
   7.9952903 105.3623580 104.4706081  14.5031347  96.2283691  95.6726966
  13.6932075  95.8830776  96.0482212  15.1915764  95.9191235  96.2614578
  16.4321895  95.3061738  97.2951263  16.9852934  95.7257191  97.9541286
  16.6691982  94.3797486  97.3374219  12.4554995 101.2948812 113.0754027
  12.3551721 102.2443169 113.0066118  12.2376537 100.9667051 112.2030097
  11.6568066  98.5433737  89.6594704  12.5187230  98.8688635  89.9190521
  11.8418410  97.7565233  89.1467770   3.6735482 106.6256076 101.9374893
   2.9798953 106.2110029 101.4244847   4.4208473 106.6676613 101.3408312
  19.8100702  97.4162263  96.8029927  19.2299371  98.0747067  96.4207979
  19.5436635  96.5939608  96.3917344  18.2604269  96.8167321  99.0051247
  18.7604047  96.9283855  98.1965566  18.9039877  96.5128374  99.6452056
  12.3186265 104.7245950 111.8919088  11.8353346 105.5246311 112.0982977
  12.4047204 104.7353895 110.9386532   5.5872224 106.5574330  99.8140908
   5.5642912 106.6562017  98.8622791   5.8972861 107.4039481 100.1358074
   8.2459602 108.6150485 103.9287522   9.2002856 108.5834427 103.8617454
   8.0472126 108.1541109 104.7437748   8.8358984 107.1851601 106.4958320
   9.6551873 107.6795680 106.5193157   9.1095792 106.2683569 106.4675887
  18.5925580  99.5762354  95.8586275  17.7051435  99.8612004  95.6406470
  19.0079570  99.4156117  95.0113552  21.9440117  99.6008874  99.5740614
  22.7200507 100.0905327  99.8465231  21.2188251 100.0266929 100.0312484
  24.3812675 100.3136494 100.6314555  24.9757166 100.0732230  99.9207863
  24.4539259  99.5943624 101.2588091   6.6009831 114.1570105 100.9457720
   6.4664299 113.3970506 100.3795718   6.1841893 114.8811005 100.4786509
  17.7368794 109.3407028  89.9534295  18.4404644 109.5457031  90.5691951
  17.0131443 109.9083790  90.2183379  18.5666604 105.0916889  96.0736565
  18.5101806 105.5485441  95.2344198  19.1194947 104.3307574  95.8959408
  22.3771410 100.8806621  96.8986685  22.1208344 100.4803257  97.7294892
  21.7524278 101.5950415  96.7736824  26.6883748 103.6202695  99.4057976
  26.1283306 103.6895884 100.1789538  26.0827251 103.4443679  98.6857472
   9.7578957 115.0539422 101.1576162   9.6411341 115.9984854 101.0554853
   8.9371403 114.7512983 101.5461962  19.6455491 109.7789557  92.0032755
  20.4801095 109.3470756  91.8210230  19.4839834 109.6071571  92.9309650
  19.3001384 106.2821671  93.3689094  19.2450187 106.1165942  92.4277539
  18.6747439 106.9897704  93.5251284   4.0893898 101.5189735 107.1950517
   4.7352762 101.0088689 107.6837742   3.8811050 102.2558417 107.7693942
  16.6147291 108.5870583 112.6942657  17.4838450 108.7611235 112.3329292
  16.1354042 109.4064999 112.5718387  12.6097509  95.7829780  92.9474413
  12.5976179  96.7271620  93.1042684  13.5020931  95.5999925  92.6533874
  10.7833471 115.7067684 104.3732091  11.6860718 115.7391294 104.6898586
  10.5570841 114.7768135 104.3878427  12.5387073 114.4598670 101.0342170
  11.5882704 114.4600532 100.9206542  12.8419559 113.7131405 100.5178204
  16.4249628  92.3772556  97.2020350  15.6582024  91.8231043  97.3477032
  16.8360333  92.4494425  98.0634501   8.4291389  98.6657352 111.2925531
   9.2922851  98.3094157 111.5028855   7.8556800  98.3271247 111.9800935
  28.2739766 120.2959208 102.0987932  28.9118176 120.1765956 101.3951272
  28.1560609 121.2440052 102.1575884  25.0829473 120.2486637 102.0349457
  24.7447984 120.1327701 101.1469991  25.9519241 119.8477802 102.0150463
  20.9416288 122.1022113  98.0246348  20.3781154 122.0112050  97.2562635
  20.8268683 121.2822017  98.5048840  25.5649256 121.4021488 107.9935662
  25.5537896 121.0074287 107.1216166  25.7269895 120.6687561 108.5869434
  18.4880720 123.5973305 100.8630568  19.2802012 123.2564129 100.4476867
  18.7277370 123.7068280 101.7832721  26.5215847 125.7693081  93.3360812
  25.8703827 126.3547161  92.9494826  27.3160210 126.2999276  93.3955850
  20.4471474 122.8582218  93.7347947  21.2202350 122.3111205  93.5960823
  20.7996873 123.7226467  93.9462408  22.2856517 124.1858600 106.9414846
  21.9946383 125.0904231 106.8261512  22.9213501 124.2275128 107.6558916
  23.2112724 121.5635449 103.5316206  23.8076296 121.3391471 102.8173169
  23.2687695 120.8220194 104.1341654  22.7837752 119.0174884  91.3666397
  23.0363273 118.4956405  90.6049860  21.8462311 118.8541029  91.4693080
  27.8281035 118.0210662  99.1741140  28.6144124 117.6030086  98.8231557
  28.0919739 118.9256755  99.3422788  27.9991112 123.4583513  93.8729797
  27.3636945 123.5318139  94.5850701  27.6688519 124.0477111  93.1948876
  33.2289462 117.9585896 100.0774118  33.9614634 117.3885112 100.3111948
  32.4728818 117.5707496 100.5180624  22.5034041 120.9202990  93.5690772
  22.3870299 120.2447893  94.2371856  22.6136301 120.4335364  92.7522925
  24.8465582 120.3813137  97.2737461  24.4823789 119.8543758  97.9850382
  25.7032698 119.9911606  97.1003946  30.7514882 111.6707470 104.5368727
  30.4198207 112.5402881 104.3129942  30.1560496 111.3543754 105.2162757
  24.4871069 115.4103037  92.2698809  24.6545471 116.2783273  92.6369280
  24.2968238 115.5730318  91.3460099  27.2446402 123.8720016 103.9364640
  26.9447125 124.7745054 103.8280447  26.8997461 123.6052199 104.7885793
  20.6958883 120.3233812  99.9701344  19.7709380 120.1910027 100.1779036
  20.9443297 121.1028032 100.4671287  30.6443546 116.3902556 101.6162077
  29.7360423 116.3217964 101.3220838  30.5931141 116.8674501 102.4443903
  24.4660290 117.8660694  93.2545476  24.3459915 118.3117745  94.0930957
  23.7712878 118.2146012  92.6959014  18.0567694 119.9667086 100.8045133
  18.1860076 120.2201565 101.7184545  17.3765146 120.5594794 100.4849788
  22.2267182 130.6364336  96.9035607  22.1491211 131.5872161  96.9824088
  21.6228825 130.2910208  97.5610534  24.7184411 117.8092201 109.5596974
  23.9417746 118.3686122 109.5499839  25.3574975 118.2948984 110.0811845
  32.5105192 114.5918994 103.3939951  31.8679572 114.8851527 102.7479746
  32.0060121 114.4771915 104.1993148  30.1645356 118.3382167  94.0825810
  31.0763212 118.5709554  93.9073508  29.6555003 118.9219212  93.5200889
  22.9730784 120.6177655 109.1214941  23.7145468 121.1562699 108.8449765
  22.2667769 121.2443944 109.2786493  28.4486123 122.7606795 107.7187103
  28.8569479 122.3189206 106.9741735  27.7263385 122.1859423 107.9721296
  24.8017193 117.6979402 105.0920660  25.6478389 118.1218816 105.2355309
  24.7415831 117.0413026 105.7859223  28.7714938 123.3207986 101.4739392
  28.1423801 123.4853700 100.7715460  28.3840600 123.7349595 102.2450356
  32.6504170 124.2562424  98.8283756  31.9655208 124.6361325  98.2780789
  32.7348019 124.8657750  99.5615703  27.9516639 115.3583770 106.7501833
  27.7077571 116.1125831 106.2136109  28.2276569 115.7369118 107.5849081
  29.9055102 121.9022383 105.4279099  30.1171997 122.5454143 104.7513480
  29.8584850 121.0684699 104.9601029  27.5081331 114.5140203 102.3315671
  26.6465810 114.8121457 102.6232409  27.5343765 114.7310602 101.3996704
  24.3242900 123.0582394  98.7389477  24.7881245 123.3370097  97.9494099
  24.0599698 122.1565839  98.5562568  21.2166981 122.6053875 101.6769240
  21.7868338 123.0341144 101.0386725  21.8075093 122.3236460 102.3753426
  23.2611786 119.1805546  95.5479042  23.9635829 119.6326590  96.0152968
  22.9292414 118.5389365  96.1758935  21.7092148 117.7717303 109.9230251
  21.0790808 118.4533584 110.1565648  21.6028235 117.6600385 108.9783390
  17.0037120 117.4389099 100.8496176  16.2136174 117.6946628 100.3736286
  17.4948367 118.2537437 100.9548216  31.0200930 124.7794338 103.6001456
  31.8418373 124.3774525 103.3184138  31.0163332 124.6762572 104.5517572
  18.9551865 117.8033678  97.8079652  18.1583029 117.9152372  98.3263148
  18.7277458 118.1420330  96.9420543  24.7857533 124.3278381 105.7562167
  24.8501965 124.7898789 106.5920339  24.0768457 123.6975746 105.8844477
  15.2874823 117.6919589 103.2811166  15.5382861 118.5766599 103.5468742
  15.8234371 117.5124191 102.5086258  39.1106923 121.1233087  99.9486428
  38.3570631 120.5540485  99.7930432  39.2454464 121.0895751 100.8957063
  24.5005551 125.9946489  95.6241147  24.3651225 126.8398025  96.0525995
  25.0415363 126.1965767  94.8607081  20.9872890 112.0738069 112.2855502
  20.5939836 111.5204267 112.9603147  21.8039031 112.3848647 112.6762020
  17.9534948 123.5121927  96.1969072  18.4659469 124.3065177  96.3474637
  18.6057661 122.8148217  96.1302674  19.7629833 126.6287683  98.2791825
  19.9396461 127.5505648  98.0912809  20.5586666 126.3146102  98.7086205
  23.9040851 113.4895948 109.8775759  24.6450565 114.0903101 109.7980221
  24.1358774 112.7473586 109.3193802  19.0482189 118.6752315 108.1553989
  18.9335704 117.7737572 108.4561088  18.1926707 118.9216012 107.8038805
  26.1274027 126.6170055 109.7541489  25.6837881 125.8306434 109.4362394
  26.7891241 126.8049206 109.0885380  20.8861148 128.1465857 104.2802168
  21.4368573 128.0182920 103.5079162  20.0472624 128.4460746 103.9297061
  28.2255265 126.8972855 107.7822891  28.2073740 127.7181736 107.2903160
  29.1475185 126.7726931 108.0073032  24.6828319 124.4116985 108.6246399
  25.2156656 123.6505273 108.3945707  24.1542400 124.1190637 109.3670553
  27.8498014 109.5177051 104.1540041  27.5062284 110.4078693 104.0779151
  28.2176977 109.3278708 103.2909626  15.9183865 121.8410581  96.9728643
  16.7559087 122.2507590  96.7562351  16.0962132 120.9010023  96.9428837
  27.8148297 119.5085662  92.6612476  27.2994920 120.2790267  92.9000863
  27.5425605 118.8350798  93.2845537  25.3995408 114.3535363  97.7197714
  24.5437004 113.9642213  97.5403353  25.8122360 114.4327324  96.8597500
  26.9294555 111.8881706 102.1189274  26.4259350 111.8511841 101.3057079
  27.2225161 112.7974449 102.1785931  23.1737440 111.9720436 101.1255456
  24.0390437 111.7763244 100.7661345  23.2414949 111.7430787 102.0524812
  32.7882571 122.2618017  94.5965649  32.0112014 121.9229176  94.1520811
  33.4674052 122.2670640  93.9220614  27.6034600 117.3812754  94.4872257
  27.2984736 117.6958903  95.3382400  28.5565042 117.4594174  94.5299590
  26.0481032 123.5402977  96.1365211  25.5202394 122.8055737  95.8238448
  25.5468535 124.3177654  95.8905179  31.0273878 121.7351998 101.2532257
  30.3697552 122.4251259 101.3412386  31.8314277 122.1248430 101.5966244
  20.7799760 114.2022644  98.4971822  21.3543511 113.9797825  97.7645015
  21.3670742 114.2711338  99.2500424  29.8379337 120.0896371  99.3036199
  30.3511218 120.7226362  99.8057909  30.4880561 119.4897566  98.9379559
  21.1069347 116.2327105  92.5167708  20.2706659 116.5701791  92.8376982
  20.9674116 116.0976084  91.5794845  23.0822427 111.0763893  97.2246892
  22.4286840 110.7612910  96.6003507  23.0402901 110.4539633  97.9506715
  24.1933632 121.3583188  89.1400184  23.2860694 121.1272441  89.3391333
  24.6904664 120.5620807  89.3274166  27.1001711 130.0680695  92.0596870
  26.4263410 130.3712392  92.6681828  27.4867533 130.8709775  91.7102327
  26.3160168 117.5645826 101.5494540  25.3982729 117.7860773 101.3916228
  26.7320311 117.6392137 100.6906247  27.0995215 118.9637242  96.6797220
  27.8467034 119.4758639  96.3704342  27.3686805 118.6421294  97.5401613
  25.3721866 121.4595782  93.6624174  24.4633085 121.1754815  93.7596644
  25.4016949 121.8794861  92.8027481  30.6041133 125.0702372  97.4315342
  30.1503460 124.2293282  97.4880532  29.9735100 125.7063770  97.7690122
  29.5474053 115.9994358  98.6616009  28.8096809 115.4871744  98.9926252
  29.8000826 115.5594740  97.8499286  29.0474072 126.9078869  98.3665160
  29.3397047 127.4683926  97.6477525  29.5572693 127.2007430  99.1218319
  29.6485680 108.7770610  99.2557778  29.9544557 107.9167973  98.9683693
  30.3738285 109.3688230  99.0556772  15.9410036 119.1801297  97.6439376
  15.7434436 118.5870657  96.9190443  15.3856700 118.8753507  98.3615315
  23.9206760 119.0724403  99.7633969  23.9755369 118.1198239  99.6876446
  23.1097962 119.2283842 100.2475268  25.0697953 123.0004526  91.0012253
  24.6317383 122.2840385  90.5417890  25.8108394 123.2280641  90.4397344
  21.8599120 117.6901463  97.5224348  21.0466985 117.9895633  97.9289540
  22.3558114 117.2957152  98.2398831  24.0107697 127.6859220  99.4558613
  23.9683876 127.9120066  98.5267145  24.9270396 127.4522594  99.6044414
  27.4573331 118.1543287 106.3539242  27.8122719 118.3814760 107.2133708
  28.1045462 118.4861664 105.7316497  33.1871068 121.2761723  97.0588571
  33.0488967 121.4663319  96.1309760  32.8307287 122.0381106  97.5156622
  21.3513194 115.2619818 103.1385583  21.9912574 115.1208577 102.4408547
  20.5190725 114.9754332 102.7624185  33.2140448 123.3438250 102.0699843
  33.6476954 123.2513539 102.9182897  33.9272028 123.3195751 101.4319859
  22.1273498 124.5622249  99.2520576  22.9214097 124.0672569  99.0503151
  21.4165191 124.0340112  98.8888281  26.9468343 126.9440344 103.6032943
  27.0005365 127.5131281 104.3710659  26.0783124 127.1142229 103.2386980
  18.4356262 118.7065331  95.3280328  17.5053850 118.6449786  95.5450291
  18.5313734 118.1841283  94.5316970  18.3541811 115.2320143  97.9158570
  18.6148628 116.1465477  97.8067731  19.1758983 114.7644586  98.0655183
  19.8266736 116.6457901 105.0857395  20.4989789 116.4375263 104.4370043
  18.9996523 116.4479987 104.6462627  34.0755997 123.3861951 104.6032728
  34.2691887 124.2907761 104.8492003  33.9756615 122.9269370 105.4371313
  25.7292308 113.2719841 107.1023055  25.0820223 113.9709791 107.0087532
  26.4993323 113.7055985 107.4699304  29.1371106 123.5368694 110.1773609
  28.9856612 123.3079245 109.2603692  29.1275785 124.4939295 110.1904954
  25.9056442 121.1100606 105.1619875  26.8348502 121.2611766 104.9888842
  25.4847472 121.1984627 104.3068522  24.7044774 125.1351271 102.9318413
  24.5655860 124.7670055 103.8044351  23.9159370 125.6498910 102.7602371
  25.2992926 130.2360367  94.2743949  25.4744682 129.7648410  95.0889572
  24.6125714 130.8626133  94.5025210  26.2549989 124.5132873 100.3207251
  25.9199822 124.4733643 101.2164900  25.7553935 123.8477589  99.8477661
  20.2294233 119.9200503 105.8459832  20.0914031 119.1880742 106.4471371
  21.1399157 119.8309404 105.5644019  29.1909181 121.8588908  90.5944310
  28.5738352 121.1335736  90.4977363  28.7225669 122.6198268  90.2511385
  22.8576534 119.6320463 105.3343511  23.5676152 118.9913655 105.2930130
  22.8145842 119.8833358 106.2569692  30.8463313 126.5687816 108.2550091
  30.7875859 125.8847036 107.5880674  31.2482831 127.3106806 107.8030717
  21.5705468 116.6185681 107.1539151  21.0342825 116.1676419 107.8060747
  20.9822176 116.7531590 106.4109615  20.9807727 116.0774332  89.7165615
  20.1037193 115.9563133  89.3527861  21.4565480 115.2860410  89.4644503
  30.8480720 124.5327400 106.4864070  29.9607499 124.1953322 106.6090469
  31.4179271 123.8010431 106.7232836  12.5009867 120.8651492  99.8107122
  13.1880907 120.5513222  99.2228137  12.3457996 121.7692856  99.5374373
  17.3044589 115.7541688 104.2392145  17.2202778 115.1467358 103.5042555
  16.4827296 116.2450707 104.2401642  24.3781873 129.1928852 103.4525313
  24.3052045 129.9983824 103.9644618  23.9359266 129.3920818 102.6273335
  24.1671653 128.4300622  96.9628135  23.3839175 128.9722303  97.0566360
  24.8664398 128.9474602  97.3622376  27.4768303 114.2395252  99.6062340
  27.9737003 113.4865214  99.2863411  26.7055285 114.2759569  99.0405550
  35.3298060 119.9435617 101.2480632  35.3187937 120.8260333 100.8774565
  34.4615440 119.5907168 101.0535169  26.8380557 129.0915686 105.6083472
  27.5508529 129.7263151 105.5359374  26.3470585 129.1879552 104.7923474
  28.5598084 122.9966939  97.1800764  27.6254362 123.1168402  97.0105468
  28.7374752 122.0939406  96.9160774  24.0603272 116.3812635  99.3334025
  23.6901059 115.8283675 100.0214931  24.5562364 115.7770768  98.7809025
  31.9470635 118.8384258  97.7150798  32.4131087 119.6712250  97.6411101
  32.3978136 118.3729240  98.4196056  21.8892470 126.8410130 106.4289043
  22.5901930 127.4746613 106.5818437  21.4187585 127.1824861 105.6684682
  30.0146866 125.1828080  94.7136950  30.2906710 125.0684674  95.6230824
  29.1451365 124.7845565  94.6749123  29.9187298 111.2064845 101.7541699
  29.0050378 111.4369072 101.9223906  30.3480399 111.2903289 102.6055732
  29.6893756 119.3954737 104.2541593  29.0365207 119.6430645 103.5994046
  30.0674136 118.5818876 103.9204071  26.6500930 129.4314431  98.3569764
  26.8323325 128.6136086  98.8197516  27.4733916 129.6482123  97.9194654
  26.9843096 128.3582616  95.6184812  27.5130862 127.8475070  95.0054974
  27.2471315 128.0425146  96.4830345  25.7381329 120.1374548 110.7407630
  25.0621966 120.0368678 111.4110006  26.5608963 119.9813762 111.2043628
  17.4860188 126.3746485 103.3620146  18.0713625 125.6290173 103.4948050
  17.2885027 126.6850442 104.2456810  20.3398844 129.4097732  98.3782588
  19.6709219 129.8943860  97.8946628  20.2011713 129.6566953  99.2925967
  12.0777843 118.9452085 102.0824589  12.1161943 118.4115676 102.8761707
  11.5718136 118.4187291 101.4635566  24.4804112 131.4441476 104.9765246
  25.0322420 131.6073097 105.7414332  24.8210306 132.0345914 104.3045271
  19.4568605 113.7916626 105.5787131  19.5209932 114.6531457 105.1664529
  19.3935726 113.1790627 104.8459490  18.9320878 115.8639758 109.2260165
  19.5592917 115.4816836 109.8397690  18.0748797 115.6453960 109.5915858
  29.3314987 126.2702733 110.8313901  29.8754891 126.8832692 110.3368856
  28.7501831 126.8282312 111.3480914  15.7086421 117.6716187  95.1578520
  16.0039862 116.7626866  95.1045574  14.8074456 117.6503927  94.8359523
  27.6172499 129.3923451 101.9628929  27.4923639 128.5913191 101.4539874
  28.2751591 129.8869645 101.4742899  19.2380668 115.7472184 101.1406069
  18.5167253 116.3608152 101.0013542  20.0273923 116.2829949 101.0622715
  29.6807408 127.1932471 103.5908479  28.7337743 127.0737823 103.5186805
  30.0290181 126.3054970 103.6734740  22.0406981 113.0826610 107.4146721
  22.5641383 113.3288907 108.1773030  21.8219315 113.9146645 106.9949858
  17.4374262 115.3530285  95.2817845  17.1086968 114.4727664  95.0992951
  17.7913633 115.2977954  96.1694235  26.6853841 126.9885188  99.7912831
  26.5378804 126.0601895  99.9720401  27.5107335 127.0105278  99.3069906
  20.5516085 115.6403255  95.6493323  20.8912158 116.1689176  94.9271931
  20.9988206 115.9783661  96.4251890  30.2887963 127.8113746 100.8777704
  31.2134510 127.6056608 100.7402155  30.1203266 127.5630148 101.7867045
  23.2459526 114.0240306 105.0996391  22.9056347 113.2248119 105.5017071
  22.5398533 114.3242016 104.5273224  23.8975998 111.1089618 103.5523714
  24.7202067 110.6350096 103.4302604  24.1414062 111.8880102 104.0522400
  22.5384233 114.1377876  93.8486616  23.2592595 114.5159129  93.3450333
  21.9149537 114.8566753  93.9521594  26.6815355 114.8423025  94.7844948
  26.8978970 115.7247663  94.4833776  26.2009423 114.4509239  94.0550590
  21.4214577 117.8008739 101.3615693  21.2759158 118.1149042 102.2539974
  20.9439780 118.4193639 100.8086591  23.2810960 114.7911287 101.4096582
  23.2672529 113.8952380 101.0728880  23.9983388 114.7981950 102.0434868
  25.1337090 115.2248627 103.4549710  24.8754868 116.1465697 103.4534040
  24.6022131 114.8279061 104.1450174  30.0783279 128.3299414  96.2339795
  30.2520157 127.7645836  95.4813648  30.5712170 129.1300309  96.0519285
  15.8960239 120.3414083 104.3003354  15.3513707 121.1173891 104.4323628
  16.7739589 120.6884887 104.1422475  22.6847856 113.6725667  96.6784152
  22.8063767 112.7442313  96.8775040  22.3949898 113.6864353  95.7662468
  25.5539046 111.3580577  99.8150872  25.5760743 111.4219910  98.8602852
  25.9707105 110.5185086 100.0091378  35.9322670 121.0935837  97.8530095
  36.3753816 120.3443162  97.4549218  35.0549181 121.0845973  97.4703827
  31.0658452 127.6466178  93.3336693  31.7609356 128.2672871  93.5524008
  31.4081602 126.7961530  93.6089071  16.6826261 119.4683979 107.1933511
  15.9407997 119.6166615 107.7798141  16.3619005 119.7292245 106.3300260
  32.9649875 125.0965884  94.8624024  33.4901199 125.4353157  94.1373344
  32.8772227 124.1612899  94.6787159  24.6269924 129.0099957 106.9913901
  24.9357050 128.7649104 107.8636600  25.4245406 129.2146596 106.5032771
  24.6490536 131.1637867  99.2219277  24.2095526 130.6714246  99.9152134
  25.3998653 130.6210835  98.9811353  17.1282875 127.3549408  99.2243905
  17.9540894 127.0553180  98.8442549  16.7776927 126.5857030  99.6733694
  22.0964408 126.7075876 101.2941579  21.4744417 126.0446581 100.9943807
  22.7669275 126.7337008 100.6115227  15.3291480 125.2735734 100.1832839
  14.4923388 124.8457909 100.0016840  15.3015125 125.4668178 101.1203630
  22.1688935 115.1857664 110.8874085  22.2177091 116.0619787 110.5051855
  22.7111449 114.6435057 110.3145728  32.6543781 125.7298787 110.1675222
  31.8639325 125.7122926 109.6279721  32.4177135 126.2687081 110.9224259
  32.7741656 122.5791254 107.4807951  32.8239661 122.4141261 108.4223473
  32.6655579 121.7118513 107.0905831  21.6577915 125.2579800  94.7700040
  21.8066035 125.9415264  94.1166712  22.4644358 125.2384890  95.2849495
  30.0645418 118.5622182 108.7967257  30.9655281 118.4228647 108.5051255
  30.1393393 118.7276637 109.7365435  24.3988224 115.9389037 107.6420444
  23.5291533 116.2322603 107.3703032  24.6347704 116.5229482 108.3627707
  34.2759853 124.9988195 107.7249972  33.9844661 125.3618176 108.5613433
  33.6631984 124.2855204 107.5463304  35.4755535 122.5641075 100.2452542
  36.3102426 123.0030879 100.4090103  35.6114664 122.0879728  99.4260788
  32.5247041 120.1220810 106.1930030  33.0001163 120.3148456 105.3848882
  31.6012606 120.1779996 105.9473414  19.4130548 121.2844977  95.7761108
  19.1676590 120.3807307  95.9741319  19.5826462 121.2862128  94.8340586
  27.1027258 112.1568654 105.1585864  27.6209201 112.8929680 104.8332353
  26.7482390 112.4632647 105.9932623  18.6826195 117.0173335  93.2747270
  17.9895440 117.0917690  92.6187306  18.4377947 116.2533678  93.7968787
  27.3539852 108.5768936 100.6786761  27.6341605 107.9092125 101.3047187
  28.1390459 108.7698032 100.1661424  25.1573320 127.7527930  92.2411787
  24.5847287 128.3718117  91.7882259  25.7306114 128.3027292  92.7751709
  31.2248710 116.9986570 104.4258336  32.1766133 117.0984668 104.4470560
  31.0552160 116.2064839 104.9356420  29.2463089 114.0842153 104.6117737
  28.6513022 114.3647166 103.9164225  28.9612786 114.5736054 105.3834478
  28.3770580 128.0365080  93.3720369  29.3101253 127.9710642  93.5753245
  28.2893793 128.8721347  92.9134902  31.0058597 127.3530950  90.3324317
  30.9272228 127.0190814  91.2260075  31.8268263 127.8452718  90.3315789
  33.7036788 120.2192690 103.5400635  33.6713108 119.2808690 103.7260319
  34.3137411 120.2976726 102.8066460  25.5420119 119.0888743  89.5827839
  26.4879223 118.9594951  89.6516257  25.1634364 118.3503405  90.0597268
  33.8531276 117.0103733 103.5858919  33.3370325 116.2262190 103.3988847
  34.7371225 116.6822450 103.7505438  31.5142003 110.7544749  99.5454731
  31.3166824 110.4459837 100.4298063  32.1241709 111.4806388  99.6752661
  39.5213338 121.2808697 102.6806672  40.2516726 121.0193985 103.2414376
  38.9120283 120.5437419 102.7208740  37.6028635 119.4216559 103.2781123
  36.8761798 119.2872524 102.6697615  37.1875922 119.7293388 104.0837841
  25.4258811 123.1406489 111.0428496  26.3461821 123.3185088 111.2368543
  25.3908394 122.1962534 110.8908196  23.7263036 117.0138719  89.5182725
  22.8194491 116.7171832  89.5945438  24.0039017 116.7168537  88.6517011
  14.6440976 118.3345083  99.9681771  14.3243761 117.4810391  99.6756145
  14.0974404 118.5493661 100.7239738  18.4220884 121.0507524 103.6851278
  18.6406894 121.9824631 103.7039311  18.8346658 120.6915498 104.4706081
  25.3425102 111.5575609  95.6726966  24.5325830 111.2122694  96.0482212
  26.0309518 111.2483153  96.2614578  27.2715650 110.6353656  97.2951263
  27.8246688 111.0549109  97.9541286  27.5085736 109.7089404  97.3374219
  23.2948749 116.6240729 113.0754027  23.1945476 117.5735086 113.0066118
  23.0770291 116.2958968 112.2030097  22.4961820 113.8725654  89.6594704
  23.3580984 114.1980553  89.9190521  22.6812165 113.0857150  89.1467770
  14.5129236 121.9547994 101.9374893  13.8192708 121.5401947 101.4244847
  15.2602227 121.9968531 101.3408312  30.6494457 112.7454181  96.8029927
  30.0693126 113.4038985  96.4207979  30.3830390 111.9231525  96.3917344
  29.0998023 112.1459239  99.0051247  29.5997802 112.2575773  98.1965566
  29.7433631 111.8420291  99.6452056  23.1580019 120.0537868 111.8919088
  22.6747101 120.8538228 112.0982977  23.2440958 120.0645813 110.9386532
  16.4265979 121.8866248  99.8140908  16.4036667 121.9853935  98.8622791
  16.7366615 122.7331399 100.1358074  19.0853357 123.9442403 103.9287522
  20.0396610 123.9126345 103.8617454  18.8865880 123.4833027 104.7437748
  19.6752739 122.5143519 106.4958320  20.4945628 123.0087598 106.5193157
  19.9489546 121.5975487 106.4675887  29.4319335 114.9054271  95.8586275
  28.5445190 115.1903922  95.6406470  29.8473324 114.7448035  95.0113552
  32.7833871 114.9300792  99.5740614  33.5594261 115.4197245  99.8465231
  32.0582005 115.3558846 100.0312484  35.2206430 115.6428411 100.6314555
  35.8150921 115.4024147  99.9207863  35.2933013 114.9235542 101.2588091
  17.4403585 129.4862022 100.9457720  17.3058053 128.7262423 100.3795718
  17.0235648 130.2102922 100.4786509  28.5762548 124.6698946  89.9534295
  29.2798399 124.8748948  90.5691951  27.8525197 125.2375708  90.2183379
  29.4060359 120.4208807  96.0736565  29.3495560 120.8777359  95.2344198
  29.9588701 119.6599492  95.8959408  33.2165165 116.2098539  96.8986685
  32.9602099 115.8095175  97.7294892  32.5918033 116.9242333  96.7736824
  37.5277502 118.9494612  99.4057976  36.9677060 119.0187802 100.1789538
  36.9221006 118.7735597  98.6857472  20.5972711 130.3831339 101.1576162
  20.4805095 131.3276772 101.0554853  19.7765158 130.0804901 101.5461962
  30.4849246 125.1081475  92.0032755  31.3194850 124.6762674  91.8210230
  30.3233589 124.9363489  92.9309650  30.1395138 121.6113588  93.3689094
  30.0843942 121.4457860  92.4277539  29.5141193 122.3189621  93.5251284
  14.9287653 116.8481653 107.1950517  15.5746517 116.3380607 107.6837742
  14.7204804 117.5850334 107.7693942  27.4541045 123.9162500 112.6942657
  28.3232205 124.0903153 112.3329292  26.9747797 124.7356917 112.5718387
  23.4491263 111.1121697  92.9474413  23.4369933 112.0563537  93.1042684
  24.3414685 110.9291843  92.6533874  21.6227225 131.0359601 104.3732091
  22.5254472 131.0683212 104.6898586  21.3964595 130.1060052 104.3878427
  23.3780827 129.7890588 101.0342170  22.4276458 129.7892449 100.9206542
  23.6813314 129.0423322 100.5178204  27.2643383 107.7064474  97.2020350
  26.4975779 107.1522961  97.3477032  27.6754088 107.7786343  98.0634501
  19.2685144 113.9949270 111.2925531  20.1316606 113.6386075 111.5028855
  18.6950555 113.6563165 111.9800935  39.1133521 135.6251126 102.0987932
  39.7511931 135.5057874 101.3951272  38.9954364 136.5731970 102.1575884
  35.9223227 135.5778554 102.0349457  35.5841739 135.4619619 101.1469991
  36.7912995 135.1769719 102.0150463  31.7810043 137.4314031  98.0246348
  31.2174908 137.3403968  97.2562635  31.6662438 136.6113935  98.5048840
  36.4043010 136.7313406 107.9935662  36.3931651 136.3366204 107.1216166
  36.5663650 135.9979479 108.5869434  34.0506478 136.8927366 103.5316206
  34.6470050 136.6683389 102.8173169  34.1081450 136.1512112 104.1341654
  33.6231507 134.3466802  91.3666397  33.8757027 133.8248323  90.6049860
  32.6856066 134.1832947  91.4693080  38.6674789 133.3502580  99.1741140
  39.4537879 132.9322003  98.8231557  38.9313494 134.2548672  99.3422788
  38.8384867 138.7875430  93.8729797  38.2030700 138.8610057  94.5850701
  38.5082273 139.3769029  93.1948876  44.0683217 133.2877813 100.0774118
  44.8008388 132.7177030 100.3111948  43.3122572 132.8999414 100.5180624
  33.3427795 136.2494908  93.5690772  33.2264053 135.5739811  94.2371856
  33.4530055 135.7627282  92.7522925  35.6859336 135.7105055  97.2737461
  35.3217543 135.1835676  97.9850382  36.5426452 135.3203524  97.1003946
  41.5908637 126.9999387 104.5368727  41.2591962 127.8694798 104.3129942
  40.9954250 126.6835671 105.2162757  35.3264823 130.7394954  92.2698809
  35.4939226 131.6075191  92.6369280  35.1361992 130.9022236  91.3460099
  31.5352638 135.6525730  99.9701344  30.6103134 135.5201944 100.1779036
  31.7837051 136.4319949 100.4671287  41.4837300 131.7194474 101.6162077
  40.5754178 131.6509882 101.3220838  41.4324896 132.1966418 102.4443903
  35.3054044 133.1952612  93.2545476  35.1853669 133.6409663  94.0930957
  34.6106632 133.5437930  92.6959014  28.8961449 135.2959004 100.8045133
  29.0253830 135.5493483 101.7184545  28.2158900 135.8886712 100.4849788
  35.5578166 133.1384119 109.5596974  34.7811500 133.6978039 109.5499839
  36.1968729 133.6240902 110.0811845  43.3498947 129.9210912 103.3939951
  42.7073327 130.2143445 102.7479746  42.8453875 129.8063832 104.1993148
  41.0039110 133.6674085  94.0825810  41.9156966 133.9001472  93.9073508
  40.4948757 134.2511129  93.5200889  33.8124538 135.9469572 109.1214941
  34.5539223 136.4854616 108.8449765  33.1061524 136.5735861 109.2786493
  39.2879878 138.0898713 107.7187103  39.6963234 137.6481123 106.9741735
  38.5657139 137.5151340 107.9721296  35.6410948 133.0271320 105.0920660
  36.4872143 133.4510733 105.2355309  35.5809586 132.3704944 105.7859223
  39.6108693 138.6499904 101.4739392  38.9817555 138.8145618 100.7715460
  39.2234355 139.0641513 102.2450356  43.4897924 139.5854341  98.8283756
  42.8048963 139.9653243  98.2780789  43.5741774 140.1949668  99.5615703
  38.7910393 130.6875688 106.7501833  38.5471325 131.4417749 106.2136109
  39.0670324 131.0661036 107.5849081  40.7448856 137.2314300 105.4279099
  40.9565751 137.8746060 104.7513480  40.6978604 136.3976617 104.9601029
  38.3475085 129.8432121 102.3315671  37.4859564 130.1413375 102.6232409
  38.3737520 130.0602520 101.3996704  35.1636654 138.3874312  98.7389477
  35.6275000 138.6662015  97.9494099  34.8993453 137.4857756  98.5562568
  34.1005540 134.5097464  95.5479042  34.8029584 134.9618508  96.0152968
  33.7686169 133.8681283  96.1758935  32.5485902 133.1009221 109.9230251
  31.9184563 133.7825501 110.1565648  32.4421990 132.9892302 108.9783390
  27.8430874 132.7681017 100.8496176  27.0529928 133.0238545 100.3736286
  28.3342122 133.5829355 100.9548216  41.8594684 140.1086256 103.6001456
  42.6812128 139.7066443 103.3184138  41.8557087 140.0054490 104.5517572
  29.7945620 133.1325596  97.8079652  28.9976783 133.2444290  98.3263148
  29.5671212 133.4712248  96.9420543  26.1268577 133.0211507 103.2811166
  26.3776616 133.9058517 103.5468742  26.6628126 132.8416109 102.5086258
  49.9500677 136.4525004  99.9486428  49.1964385 135.8832402  99.7930432
  50.0848218 136.4187669 100.8957063  31.8266645 127.4029986 112.2855502
  31.4333590 126.8496185 112.9603147  32.6432785 127.7140565 112.6762020
  34.7434606 128.8187866 109.8775759  35.4844319 129.4195019 109.7980221
  34.9752529 128.0765503 109.3193802  29.8875944 134.0044233 108.1553989
  29.7729459 133.1029490 108.4561088  29.0320461 134.2507930 107.8038805
  38.6891769 124.8468969 104.1540041  38.3456038 125.7370610 104.0779151
  39.0570731 124.6570626 103.2909626  38.6542051 134.8377580  92.6612476
  38.1388675 135.6082184  92.9000863  38.3819360 134.1642716  93.2845537
  36.2389162 129.6827280  97.7197714  35.3830759 129.2934131  97.5403353
  36.6516114 129.7619241  96.8597500  37.7688309 127.2173624 102.1189274
  37.2653105 127.1803759 101.3057079  38.0618916 128.1266366 102.1785931
  34.0131195 127.3012353 101.1255456  34.8784192 127.1055162 100.7661345
  34.0808704 127.0722705 102.0524812  43.6276326 137.5909934  94.5965649
  42.8505768 137.2521094  94.1520811  44.3067807 137.5962557  93.9220614
  38.4428355 132.7104672  94.4872257  38.1378490 133.0250821  95.3382400
  39.3958797 132.7886092  94.5299590  41.8667632 137.0643916 101.2532257
  41.2091307 137.7543177 101.3412386  42.6708032 137.4540347 101.5966244
  31.6193514 129.5314561  98.4971822  32.1937266 129.3089743  97.7645015
  32.2064496 129.6003256  99.2500424  40.6773091 135.4188288  99.3036199
  41.1904973 136.0518280  99.8057909  41.3274315 134.8189484  98.9379559
  31.9463101 131.5619022  92.5167708  31.1100413 131.8993709  92.8376982
  31.8067871 131.4268002  91.5794845  33.9216182 126.4055810  97.2246892
  33.2680594 126.0904827  96.6003507  33.8796656 125.7831551  97.9506715
  35.0327387 136.6875105  89.1400184  34.1254448 136.4564359  89.3391333
  35.5298419 135.8912725  89.3274166  37.1553922 132.8937744 101.5494540
  36.2376483 133.1152691 101.3916228  37.5714066 132.9684054 100.6906247
  37.9388970 134.2929159  96.6797220  38.6860789 134.8050557  96.3704342
  38.2080559 133.9713212  97.5401613  36.2115620 136.7887700  93.6624174
  35.3026839 136.5046733  93.7596644  36.2410704 137.2086779  92.8027481
  40.3867807 131.3286276  98.6616009  39.6490564 130.8163662  98.9926252
  40.6394581 130.8886657  97.8499286  40.4879434 124.1062528  99.2557778
  40.7938311 123.2459891  98.9683693  41.2132039 124.6980148  99.0556772
  26.7803790 134.5093214  97.6439376  26.5828190 133.9162575  96.9190443
  26.2250454 134.2045424  98.3615315  34.7600514 134.4016321  99.7633969
  34.8149124 133.4490157  99.6876446  33.9491716 134.5575760 100.2475268
  35.9091708 138.3296444  91.0012253  35.4711138 137.6132303  90.5417890
  36.6502149 138.5572559  90.4397344  32.6992874 133.0193380  97.5224348
  31.8860740 133.3187551  97.9289540  33.1951868 132.6249069  98.2398831
  38.2967086 133.4835205 106.3539242  38.6516473 133.7106678 107.2133708
  38.9439217 133.8153582 105.7316497  44.0264823 136.6053641  97.0588571
  43.8882721 136.7955237  96.1309760  43.6701041 137.3673024  97.5156622
  32.1906949 130.5911736 103.1385583  32.8306328 130.4500495 102.4408547
  31.3584479 130.3046249 102.7624185  44.0534202 138.6730168 102.0699843
  44.4870709 138.5805457 102.9182897  44.7665783 138.6487668 101.4319859
  29.2750016 134.0357248  95.3280328  28.3447604 133.9741704  95.5450291
  29.3707488 133.5133201  94.5316970  29.1935565 130.5612061  97.9158570
  29.4542382 131.4757394  97.8067731  30.0152738 130.0936504  98.0655183
  30.6660491 131.9749818 105.0857395  31.3383544 131.7667180 104.4370043
  29.8390277 131.7771904 104.6462627  44.9149752 138.7153869 104.6032728
  45.1085642 139.6199679 104.8492003  44.8150370 138.2561288 105.4371313
  36.5686063 128.6011759 107.1023055  35.9213978 129.3001709 107.0087532
  37.3387078 129.0347903 107.4699304  39.9764860 138.8660611 110.1773609
  39.8250367 138.6371163 109.2603692  39.9669540 139.8231213 110.1904954
  36.7450197 136.4392524 105.1619875  37.6742257 136.5903684 104.9888842
  36.3241227 136.5276545 104.3068522  31.0687988 135.2492421 105.8459832
  30.9307786 134.5172660 106.4471371  31.9792911 135.1601321 105.5644019
  40.0302935 137.1880825  90.5944310  39.4132106 136.4627654  90.4977363
  39.5619424 137.9490186  90.2511385  33.6970288 134.9612380 105.3343511
  34.4069907 134.3205573 105.2930130  33.6539597 135.2125275 106.2569692
  32.4099222 131.9477598 107.1539151  31.8736579 131.4968337 107.8060747
  31.8215931 132.0823507 106.4109615  31.8201481 131.4066250  89.7165615
  30.9430948 131.2855051  89.3527861  32.2959234 130.6152328  89.4644503
  41.6874474 139.8619318 106.4864070  40.8001253 139.5245240 106.6090469
  42.2573025 139.1302349 106.7232836  28.1438344 131.0833606 104.2392145
  28.0596532 130.4759276 103.5042555  27.3221050 131.5742624 104.2401642
  38.3162058 129.5687170  99.6062340  38.8130757 128.8157132  99.2863411
  37.5449039 129.6051486  99.0405550  46.1691815 135.2727535 101.2480632
  46.1581691 136.1552251 100.8774565  45.3009194 134.9199086 101.0535169
  39.3991838 138.3258857  97.1800764  38.4648117 138.4460319  97.0105468
  39.5768507 137.4231324  96.9160774  34.8997026 131.7104553  99.3334025
  34.5294814 131.1575593 100.0214931  35.3956119 131.1062686  98.7809025
  42.7864390 134.1676176  97.7150798  43.2524842 135.0004168  97.6411101
  43.2371890 133.7021158  98.4196056  40.8540621 140.5119997  94.7136950
  41.1300465 140.3976592  95.6230824  39.9845119 140.1137482  94.6749123
  40.7581052 126.5356763 101.7541699  39.8444132 126.7660990 101.9223906
  41.1874154 126.6195207 102.6055732  40.5287511 134.7246655 104.2541593
  39.8758961 134.9722562 103.5994046  40.9067891 133.9110793 103.9204071
  36.5775084 135.4666466 110.7407630  35.9015721 135.3660595 111.4110006
  37.4002718 135.3105680 111.2043628  22.9171598 134.2744003 102.0824589
  22.9555697 133.7407594 102.8761707  22.4111890 133.7479208 101.4635566
  30.2962360 129.1208543 105.5787131  30.3603686 129.9823374 105.1664529
  30.2329480 128.5082545 104.8459490  29.7714632 131.1931676 109.2260165
  30.3986671 130.8108753 109.8397690  28.9142551 130.9745878 109.5915858
  26.5480175 133.0008105  95.1578520  26.8433616 132.0918783  95.1045574
  25.6468211 132.9795844  94.8359523  30.0774422 131.0764102 101.1406069
  29.3561008 131.6900069 101.0013542  30.8667678 131.6121866 101.0622715
  32.8800736 128.4118528 107.4146721  33.4035138 128.6580825 108.1773030
  32.6613069 129.2438563 106.9949858  28.2768017 130.6822203  95.2817845
  27.9480723 129.8019582  95.0992951  28.6307387 130.6269871  96.1694235
  31.3909840 130.9695172  95.6493323  31.7305912 131.4981094  94.9271931
  31.8381960 131.3075579  96.4251890  34.0853281 129.3532223 105.0996391
  33.7450101 128.5540036 105.5017071  33.3792287 129.6533934 104.5273224
  34.7369753 126.4381536 103.5523714  35.5595822 125.9642014 103.4302604
  34.9807816 127.2172019 104.0522400  33.3777987 129.4669794  93.8486616
  34.0986350 129.8451047  93.3450333  32.7543291 130.1858671  93.9521594
  37.5209110 130.1714943  94.7844948  37.7372724 131.0539581  94.4833776
  37.0403177 129.7801156  94.0550590  32.2608331 133.1300656 101.3615693
  32.1152912 133.4440959 102.2539974  31.7833535 133.7485557 100.8086591
  34.1204714 130.1203204 101.4096582  34.1066283 129.2244298 101.0728880
  34.8377142 130.1273868 102.0434868  35.9730845 130.5540544 103.4549710
  35.7148623 131.4757615 103.4534040  35.4415885 130.1570979 104.1450174
  33.5241610 129.0017585  96.6784152  33.6457521 128.0734231  96.8775040
  33.2343653 129.0156270  95.7662468  36.3932801 126.6872495  99.8150872
  36.4154497 126.7511828  98.8602852  36.8100860 125.8477004 100.0091378
  46.7716425 136.4227755  97.8530095  47.2147571 135.6735080  97.4549218
  45.8942935 136.4137891  97.4703827  27.5220015 134.7975897 107.1933511
  26.7801751 134.9458532 107.7798141  27.2012760 135.0584163 106.3300260
  43.8043629 140.4257802  94.8624024  44.3294953 140.7645074  94.1373344
  43.7165982 139.4904817  94.6787159  33.0082690 130.5149582 110.8874085
  33.0570845 131.3911705 110.5051855  33.5505204 129.9726975 110.3145728
  43.4937535 141.0590705 110.1675222  42.7033079 141.0414844 109.6279721
  43.2570890 141.5978999 110.9224259  43.6135410 137.9083172 107.4807951
  43.6633415 137.7433179 108.4223473  43.5049334 137.0410431 107.0905831
  40.9039173 133.8914100 108.7967257  41.8049036 133.7520564 108.5051255
  40.9787147 134.0568554 109.7365435  35.2381978 131.2680954 107.6420444
  34.3685288 131.5614520 107.3703032  35.4741459 131.8521399 108.3627707
  45.1153607 140.3280113 107.7249972  44.8238416 140.6910094 108.5613433
  44.5025739 139.6147121 107.5463304  46.3149290 137.8932993 100.2452542
  47.1496181 138.3322797 100.4090103  46.4508418 137.4171646  99.4260788
  43.3640796 135.4512728 106.1930030  43.8394917 135.6440374 105.3848882
  42.4406361 135.5071913 105.9473414  30.2524302 136.6136895  95.7761108
  30.0070344 135.7099225  95.9741319  30.4220217 136.6154045  94.8340586
  37.9421012 127.4860571 105.1585864  38.4602956 128.2221598 104.8332353
  37.5876145 127.7924565 105.9932623  29.5219950 132.3465252  93.2747270
  28.8289195 132.4209607  92.6187306  29.2771702 131.5825596  93.7968787
  38.1933606 123.9060854 100.6786761  38.4735360 123.2384043 101.3047187
  38.9784213 124.0989949 100.1661424  42.0642465 132.3278488 104.4258336
  43.0159887 132.4276585 104.4470560  41.8945915 131.5356756 104.9356420
  40.0856844 129.4134071 104.6117737  39.4906776 129.6939084 103.9164225
  39.8006541 129.9027972 105.3834478  44.5430542 135.5484607 103.5400635
  44.5106862 134.6100608 103.7260319  45.1531166 135.6268644 102.8066460
  36.3813873 134.4180660  89.5827839  37.3272978 134.2886869  89.6516257
  36.0028118 133.6795322  90.0597268  44.6925031 132.3395651 103.5858919
  44.1764079 131.5554108 103.3988847  45.5764979 132.0114367 103.7505438
  42.3535758 126.0836666  99.5454731  42.1560579 125.7751755 100.4298063
  42.9635463 126.8098305  99.6752661  50.3607092 136.6100614 102.6806672
  51.0910481 136.3485902 103.2414376  49.7514038 135.8729336 102.7208740
  48.4422389 134.7508477 103.2781123  47.7155553 134.6164442 102.6697615
  48.0269676 135.0585305 104.0837841  36.2652566 138.4698407 111.0428496
  37.1855575 138.6477006 111.2368543  36.2302149 137.5254452 110.8908196
  34.5656790 132.3430637  89.5182725  33.6588246 132.0463750  89.5945438
  34.8432771 132.0460455  88.6517011  25.4834731 133.6637000  99.9681771
  25.1637515 132.8102308  99.6756145  24.9368159 133.8785578 100.7239738
  36.1818856 126.8867527  95.6726966  35.3719584 126.5414611  96.0482212
  36.8703273 126.5775070  96.2614578  38.1109404 125.9645573  97.2951263
  38.6640443 126.3841027  97.9541286  38.3479491 125.0381321  97.3374219
  34.1342504 131.9532647 113.0754027  34.0339230 132.9027004 113.0066118
  33.9164046 131.6250886 112.2030097  33.3355575 129.2017572  89.6594704
  34.1974739 129.5272470  89.9190521  33.5205919 128.4149068  89.1467770
  41.4888211 128.0746098  96.8029927  40.9086880 128.7330903  96.4207979
  41.2224144 127.2523443  96.3917344  39.9391778 127.4751156  99.0051247
  40.4391556 127.5867691  98.1965566  40.5827386 127.1712209  99.6452056
  33.9973774 135.3829786 111.8919088  33.5140855 136.1830146 112.0982977
  34.0834713 135.3937731 110.9386532  40.2713089 130.2346189  95.8586275
  39.3838944 130.5195839  95.6406470  40.6867079 130.0739952  95.0113552
  43.6227626 130.2592710  99.5740614  44.3988016 130.7489162  99.8465231
  42.8975760 130.6850764 100.0312484  46.0600184 130.9720329 100.6314555
  46.6544675 130.7316065  99.9207863  46.1326768 130.2527460 101.2588091
  40.2454113 135.7500725  96.0736565  40.1889315 136.2069276  95.2344198
  40.7982456 134.9891409  95.8959408  44.0558919 131.5390457  96.8986685
  43.7995853 131.1387092  97.7294892  43.4311787 132.2534251  96.7736824
  48.3671257 134.2786530  99.4057976  47.8070815 134.3479719 100.1789538
  47.7614760 134.1027515  98.6857472  41.3243000 140.4373393  92.0032755
  42.1588604 140.0054591  91.8210230  41.1627343 140.2655406  92.9309650
  40.9788892 136.9405506  93.3689094  40.9237696 136.7749777  92.4277539
  40.3534948 137.6481539  93.5251284  25.7681407 132.1773570 107.1950517
  26.4140271 131.6672524 107.6837742  25.5598559 132.9142252 107.7693942
  34.2885018 126.4413615  92.9474413  34.2763688 127.3855455  93.1042684
  35.1808440 126.2583760  92.6533874  38.1037137 123.0356392  97.2020350
  37.3369533 122.4814878  97.3477032  38.5147842 123.1078260  98.0634501
  30.1078898 129.3241187 111.2925531  30.9710360 128.9677992 111.5028855
  29.5344309 128.9855082 111.9800935  52.4302391 142.3291305 104.5368727
  52.0985716 143.1986716 104.3129942  51.8348005 142.0127589 105.2162757
  49.5285523 140.1760886 104.1540041  49.1849793 141.0662528 104.0779151
  49.8964486 139.9862544 103.2909626  48.6082064 142.5465541 102.1189274
  48.1046859 142.5095676 101.3057079  48.9012670 143.4558284 102.1785931
  44.7609936 141.7347728  97.2246892  44.1074349 141.4196745  96.6003507
  44.7190410 141.1123468  97.9506715  51.3273189 139.4354445  99.2557778
  51.6332066 138.5751809  98.9683693  52.0525794 140.0272066  99.0556772
  51.5974807 141.8648681 101.7541699  50.6837887 142.0952908 101.9223906
  52.0267908 141.9487125 102.6055732  45.5763507 141.7673453 103.5523714
  46.3989576 141.2933931 103.4302604  45.8201571 142.5463937 104.0522400
  47.2326555 142.0164413  99.8150872  47.2548252 142.0803746  98.8602852
  47.6494614 141.1768921 100.0091378  48.7814766 142.8152489 105.1585864
  49.2996710 143.5513516 104.8332353  48.4269899 143.1216482 105.9932623
  49.0327361 139.2352771 100.6786761  49.3129114 138.5675961 101.3047187
  49.8177968 139.4281867 100.1661424  53.1929512 141.4128584  99.5454731
  52.9954333 141.1043672 100.4298063  53.8029218 142.1390223  99.6752661
  47.0212611 142.2159444  95.6726966  46.2113339 141.8706529  96.0482212
  47.7097027 141.9066988  96.2614578  48.9503159 141.2937491  97.2951263
  49.5034197 141.7132944  97.9541286  49.1873245 140.3673239  97.3374219
  52.3281966 143.4038016  96.8029927  51.7480635 144.0622820  96.4207979
  52.0617899 142.5815361  96.3917344  50.7785532 142.8043074  99.0051247
  51.2785311 142.9159608  98.1965566  51.4221140 142.5004127  99.6452056
  56.8993939 146.3012247 100.6314555  57.4938429 146.0607983  99.9207863
  56.9720522 145.5819377 101.2588091  48.9430892 138.3648309  97.2020350
  48.1763288 137.8106796  97.3477032  49.3541597 138.4370178  98.0634501
   6.5925660  52.1419456  86.6731735   5.8389369  51.5726854  86.5175739
   6.7273202  52.1082121  87.6202369   0.6959186  54.3624620  88.7945149
   1.1295692  54.2699909  89.6428203   1.4090766  54.3382120  88.1565165
   1.5574735  54.4048320  91.3278035   1.7510625  55.3094131  91.5737310
   1.4575353  53.9455739  92.1616620   2.8116798  50.9621987  87.9725939
   2.8006674  51.8446702  87.6019872   1.9434178  50.6093538  87.7780476
   3.4141408  52.1122206  84.5775401   3.8572554  51.3629532  84.1794525
   2.5367918  52.1032343  84.1949133   0.4468613  56.1152253  81.5869331
   0.9719937  56.4539526  80.8618651   0.3590965  55.1799269  81.4032465
   1.7578591  56.0174565  94.4495279   1.4663399  56.3804545  95.2858740
   1.1450722  55.3041573  94.2708611   2.9574273  53.5827445  86.9697849
   3.7921164  54.0217249  87.1335409   3.0933402  53.1066098  86.1506095
   1.1855526  51.2379059  90.2645942   1.1531846  50.2995060  90.4505626
   1.7956149  51.3163096  89.5311767   1.3350014  48.0290103  90.3104225
   0.8189063  47.2448559  90.1234154   2.2189963  47.7008819  90.4750745
   7.0032075  52.2995066  89.4051979   7.7335464  52.0380354  89.9659682
   6.3939021  51.5623788  89.4454047   5.0847373  50.4402929  90.0026430
   4.3580536  50.3058894  89.3942922   4.6694659  50.7479757  90.8083148
   2.7025167  46.6614781  87.3559862   3.2969658  46.4210517  86.6453170
   2.7751751  45.9421912  87.9833398   5.0096240  49.9680982  86.1303283
   4.4495798  50.0374171  86.9034845   4.4039744  49.7921966  85.4102779
   6.5952259  66.6437496  88.8233239   7.2330669  66.5244243  88.1196579
   6.4773102  67.5918340  88.8821191   3.4041965  66.5964924  88.7594763
   3.0660476  66.4805989  87.8715298   4.2731733  66.1956089  88.7395769
   3.8861748  67.7499776  94.7180969   3.8750389  67.3552574  93.8461472
   4.0482387  67.0165848  95.3114740   4.8428339  72.1171368  80.0606119
   4.1916319  72.7025448  79.6740133   5.6372702  72.6477563  80.1201157
   1.5325216  67.9113736  90.2561512   2.1288788  67.6869758  89.5418475
   1.5900187  67.1698481  90.8586960   6.1493527  64.3688950  85.8986447
   6.9356616  63.9508373  85.5476864   6.4132231  65.2735042  86.0668095
   6.3203605  69.8061800  80.5975103   5.6849438  69.8796426  81.3096008
   5.9901011  70.3955399  79.9194183  11.5501954  64.3064183  86.8019425
  12.2827126  63.7363400  87.0357255  10.7941310  63.9185783  87.2425931
   0.8246533  67.2681277  80.2936078   0.7082791  66.5926181  80.9617163
   0.9348793  66.7813651  79.4768231   3.1678074  66.7291424  83.9982768
   2.8036281  66.2022045  84.7095689   4.0245190  66.3389893  83.8249253
   9.0727375  58.0185757  91.2614034   8.7410699  58.8881168  91.0375249
   8.4772988  57.7022041  91.9408064   2.8083561  61.7581324  78.9944116
   2.9757963  62.6261560  79.3614587   2.6180730  61.9208606  78.0705405
   5.5658894  70.2198303  90.6609946   5.2659617  71.1223342  90.5525754
   5.2209954  69.9530486  91.5131099   8.9656038  62.7380843  88.3407384
   8.0572915  62.6696252  88.0466145   8.9143634  63.2152788  89.1689209
   2.7872782  64.2138981  79.9790783   2.6672407  64.6596032  80.8176263
   2.0925370  64.5624299  79.4204321   3.0396904  64.1570489  96.2842281
   2.2630238  64.7164409  96.2745146   3.6787467  64.6427272  96.8057151
  10.8317684  60.9397281  90.1185258  10.1892065  61.2329815  89.4725052
  10.3272613  60.8250202  90.9238454   8.4857848  64.6860455  80.8071117
   9.3975704  64.9187841  80.6318814   7.9767495  65.2697499  80.2446196
   1.2943276  66.9655942  95.8460248   2.0357960  67.5040986  95.5695072
   0.5880262  67.5922231  96.0031800   6.7698616  69.1085082  94.4432410
   7.1781972  68.6667493  93.6987042   6.0475877  68.5337710  94.6966602
   3.1229686  64.0457689  91.8165966   3.9690881  64.4697103  91.9600615
   3.0628323  63.3891314  92.5104530   7.0927430  69.6686273  88.1984698
   6.4636293  69.8331987  87.4960766   6.7053092  70.0827883  88.9695662
  10.9716662  70.6040711  85.5529062  10.2867700  70.9839612  85.0026095
  11.0560512  71.2136038  86.2861010   6.2729131  61.7062058  93.4747140
   6.0290063  62.4604118  92.9381416   6.5489062  62.0847405  94.3094387
   8.2267594  68.2500670  92.1524406   8.4384489  68.8932430  91.4758787
   8.1797342  67.4162987  91.6846336   5.8293823  60.8618491  89.0560978
   4.9678302  61.1599744  89.3477715   5.8556257  61.0788890  88.1242010
   2.6455392  69.4060681  85.4634784   3.1093738  69.6848384  84.6739406
   2.3812190  68.5044126  85.2807874   1.5824278  65.5283834  82.2724349
   2.2848322  65.9804877  82.7398275   1.2504907  64.8867652  82.9004242
   9.3413422  71.1272625  90.3246763  10.1630866  70.7252813  90.0429445
   9.3375825  71.0240860  91.2762879   3.1070025  70.6756669  92.4807474
   3.1714458  71.1377076  93.3165645   2.3980949  70.0454034  92.6089783
  17.4319415  67.4711374  86.6731735  16.6783123  66.9018772  86.5175739
  17.5666956  67.4374038  87.6202369   2.8218043  72.3424776  82.3486454
   2.6863718  73.1876312  82.7771302   3.3627855  72.5444054  81.5852388
   2.2253344  59.8374235  96.6021066   2.9663057  60.4381388  96.5225528
   2.4571266  59.0951873  96.0439108   4.4486519  72.9648343  96.4786796
   4.0050373  72.1784721  96.1607700   5.1103733  73.1527493  95.8130687
   6.5467757  73.2451143  94.5068197   6.5286233  74.0660024  94.0148466
   7.4687677  73.1205218  94.7318338   3.0040812  70.7595272  95.3491706
   3.5369148  69.9983560  95.1191014   2.4754893  70.4668924  96.0915860
   6.1710506  55.8655338  90.8785347   5.8274776  56.7556980  90.8024458
   6.5389469  55.6756996  90.0154932   6.1360789  65.8563949  79.3857782
   5.6207413  66.6268554  79.6246170   5.8638098  65.1829085  80.0090844
   3.7207900  60.7013650  84.4443021   2.8649497  60.3120500  84.2648660
   4.1334852  60.7805611  83.5842806   5.2507047  58.2359993  88.8434581
   4.7471842  58.1990128  88.0302386   5.5437654  59.1452736  88.9031237
   1.4949933  58.3198723  87.8500762   2.3602930  58.1241532  87.4906652
   1.5627442  58.0909075  88.7770119  11.1095063  68.6096304  81.3210956
  10.3324506  68.2707463  80.8766118  11.7886544  68.6148927  80.6465921
   5.9247092  63.7291041  81.2117564   5.6197228  64.0437190  82.0627707
   6.8777534  63.8072461  81.2544897   4.3693524  69.8881265  82.8610518
   3.8414886  69.1534024  82.5483755   3.8681027  70.6655941  82.6150486
   9.3486370  68.0830285  87.9777564   8.6910045  68.7729546  88.0657693
  10.1526769  68.4726717  88.3211550   8.1591829  66.4374658  86.0281506
   8.6723711  67.0704650  86.5303215   8.8093053  65.8375853  85.6624866
   1.4034920  57.4242180  83.9492199   0.7499332  57.1091197  83.3248813
   1.3615394  56.8017920  84.6752021   2.5146124  67.7061475  75.8645491
   1.6073186  67.4750728  76.0636640   3.0117156  66.9099094  76.0519472
   5.4214203  76.4158982  78.7842177   4.7475902  76.7190679  79.3927135
   5.8080025  77.2188062  78.4347634   4.6372660  63.9124113  88.2739846
   3.7195221  64.1339060  88.1161534   5.0532804  63.9870424  87.4151554
   5.4207708  65.3115529  83.4042526   6.1679527  65.8236926  83.0949648
   5.6899297  64.9899582  84.2646920   3.6934358  67.8074070  80.3869481
   2.7845577  67.5233103  80.4841950   3.7229442  68.2273148  79.5272788
   8.9253625  71.4180659  84.1560648   8.4715952  70.5771569  84.2125839
   8.2947592  72.0542058  84.4935428   7.8686545  62.3472645  85.3861316
   7.1309302  61.8350031  85.7171558   8.1213318  61.9073027  84.5744593
   7.3686564  73.2557156  85.0910466   7.6609539  73.8162213  84.3722832
   7.8785185  73.5485717  85.8463626   7.9698172  55.1248897  85.9803085
   8.2757049  54.2646261  85.6929000   8.6950777  55.7166517  85.7802079
   2.2419252  65.4202690  86.4879276   2.2967862  64.4676527  86.4121753
   1.4310454  65.5762129  86.9720574   3.3910446  69.3482813  77.7257559
   2.9529876  68.6318672  77.2663197   4.1320886  69.5758928  77.1642651
   2.3320190  74.0337507  86.1803920   2.2896368  74.2598353  85.2512452
   3.2482889  73.8000882  86.3289721   5.7785823  64.5021575  93.0784549
   6.1335211  64.7293048  93.9379015   6.4257955  64.8339951  92.4561804
  11.5083560  67.6240010  83.7833878  11.3701459  67.8141606  82.8555067
  11.1519779  68.3859393  84.2401929  11.5352940  69.6916537  88.7945149
  11.9689447  69.5991827  89.6428203  12.2484521  69.6674038  88.1565165
   5.2680835  73.2918632  90.3278250   5.3217857  73.8609568  91.0955966
   4.3995616  73.4620517  89.9632287  12.3968490  69.7340238  91.3278035
  12.5904380  70.6386049  91.5737310  12.2969108  69.2747657  92.1616620
   4.0504800  59.6198129  93.8268362   3.4032715  60.3188078  93.7332839
   4.8205816  60.0534273  94.1944610   7.4583598  69.8846981  96.9018915
   7.3069105  69.6557533  95.9848999   7.4488278  70.8417582  96.9150260
   4.2268935  67.4578894  91.8865182   5.1560995  67.6090053  91.7134149
   3.8059965  67.5462914  91.0313828   3.0257266  71.4829558  89.6563719
   2.8868352  71.1148342  90.5289658   2.2371863  71.9977197  89.4847677
   3.6205418  76.5838654  80.9989256   3.7957174  76.1126698  81.8134879
   2.9338206  77.2104421  81.2270517   4.5762482  70.8611161  87.0452557
   4.2412314  70.8211931  87.9410207   4.0766427  70.1955877  86.5722967
   7.5121673  68.2067195  77.3189617   6.8950844  67.4814023  77.2222670
   7.0438162  68.9676555  76.9756691   1.1789026  65.9798750  92.0588818
   1.8888645  65.3391942  92.0175436   1.1358334  66.2311645  92.9814999
   9.1675805  72.9166103  94.9795397   9.1088351  72.2325324  94.3125980
   9.5695323  73.6585093  94.5276023   9.1693212  70.8805687  93.2109377
   8.2819991  70.5431609  93.3335776   9.7391763  70.1488719  93.4478142
   2.6994366  75.5407140  90.1770620   2.6264537  76.3462111  90.6889925
   2.2571759  75.7399105  89.3518642   2.4884145  74.7778910  83.6873442
   1.7051667  75.3200590  83.7811666   3.1876890  75.2952889  84.0867683
   5.7980795  60.5873539  86.3307647   6.2949495  59.8343501  86.0108717
   5.0267777  60.6237856  85.7650856  13.6510553  66.2913905  87.9725939
  13.6400429  67.1738620  87.6019872  12.7827932  65.9385456  87.7780476
   5.1593049  75.4393974  92.3328779   5.8721021  76.0741439  92.2604680
   4.6683078  75.5357840  91.5168781   6.8810576  69.3445226  83.9046070
   5.9466855  69.4646689  83.7350775   7.0587244  68.4417693  83.6406080
   2.3815764  62.7290922  86.0579332   2.0113552  62.1761963  86.7460237
   2.8774857  62.1249056  85.5054332  10.2683127  65.1862546  84.4396105
  10.7343580  66.0190537  84.3656407  10.7190628  64.7207527  85.1441363
   8.3359358  71.5306367  81.4382257   8.6119202  71.4162962  82.3476131
   7.4663857  71.1323852  81.3994430   8.2399790  57.5543133  88.4787006
   7.3262870  57.7847359  88.6469213   8.6692892  57.6381577  89.3301038
   8.0106249  65.7433025  90.9786900   7.3577699  65.9908932  90.3239353
   8.3886628  64.9297163  90.6449377   4.9713422  75.7792718  85.0815070
   5.1535817  74.9614374  85.5442823   5.7946408  75.9960410  84.6439960
   5.3055588  74.7060903  82.3430119   5.8343354  74.1953358  81.7300281
   5.5683808  74.3903433  83.2075652   4.0593822  66.4852836  97.4652937
   3.3834459  66.3846965  98.1355312   4.8821455  66.3292049  97.9288934
   2.8016604  77.7919763  91.7010553   3.3534913  77.9551385  92.4659638
   3.1422798  78.3824201  91.0290578   7.6527479  72.6181021  97.5559207
   8.1967383  73.2310979  97.0614162   7.0714324  73.1760599  98.0726220
   5.9384992  75.7401739  88.6874235   5.8136131  74.9391478  88.1785181
   6.5964083  76.2347932  88.1988205   8.0019900  73.5410759  90.3153785
   7.0550236  73.4216110  90.2432112   8.3502673  72.6533257  90.3980047
   5.0066333  73.3363475  86.5158138   4.8591296  72.4080182  86.6965708
   5.8319827  73.3583566  86.0315213   8.6100455  74.1592034  87.6023010
   9.5347003  73.9534895  87.4647461   8.4415759  73.9108435  88.5112352
   1.5672019  60.3718593  91.8241698   1.2268839  59.5726406  92.2262378
   0.8611025  60.6720304  91.2518531   2.2188490  57.4567905  90.2769021
   3.0414560  56.9828383  90.1547911   2.4626554  58.2358389  90.7767707
   5.0027848  61.1901313  81.5090255   5.2191462  62.0725950  81.2079083
   4.5221915  60.7987526  80.7795897   1.6023452  61.1389574  88.1341889
   1.5885021  60.2430667  87.7974187   2.3195880  61.1460238  88.7680175
   3.4549583  61.5726914  90.1795016   3.1967361  62.4943985  90.1779347
   2.9234623  61.1757349  90.8695480   8.3995772  74.6777701  82.9585102
   8.5732649  74.1124124  82.2058954   8.8924663  75.4778596  82.7764592
   1.0060348  60.0203954  83.4029459   1.1276259  59.0920600  83.6020347
   0.7162390  60.0342640  82.4907774   3.8751538  57.7058865  86.5396179
   3.8973235  57.7698198  85.5848158   4.2919597  56.8663373  86.7336685
  14.2535163  67.4414124  84.5775401  14.6966309  66.6921449  84.1794525
  13.3761673  67.4324260  84.1949133   9.3870944  73.9944466  80.0582000
  10.0821849  74.6151158  80.2769315   9.7294094  73.1439817  80.3334378
  11.2862367  71.4444171  81.5869331  11.8113691  71.7831444  80.8618651
  11.1984720  70.5091186  81.4032465   2.9482416  75.3578245  93.7159207
   3.2569542  75.1127391  94.5881907   3.7457898  75.5624883  93.2278078
   2.9703028  77.5116154  85.9464584   2.5308018  77.0192533  86.6397441
   3.7211145  76.9689122  85.7056659   0.4901428  61.5335951  97.6119392
   0.5389583  62.4098074  97.2297161   1.0323942  60.9913345  97.0391035
  10.9756273  72.0777075  96.8920529  10.1851817  72.0601214  96.3525028
  10.7389628  72.6165368  97.6469565  11.0954148  68.9269541  94.2053257
  11.1452153  68.7619549  95.1468780  10.9868072  68.0596800  93.8151138
   8.3857911  64.9100469  95.5212564   9.2867773  64.7706934  95.2296562
   8.4605885  65.0754924  96.4610741   2.7200716  62.2867324  94.3665750
   1.8504025  62.5800890  94.0948339   2.9560196  62.8707769  95.0873014
  12.5972345  71.3466483  94.4495279  12.3057153  71.7096463  95.2858740
  11.9844476  70.6333491  94.2708611  13.7968027  68.9119362  86.9697849
  14.6314919  69.3509166  87.1335409  13.9327156  68.4358016  86.1506095
  10.8459533  66.4699097  92.9175337  11.3213655  66.6626744  92.1094188
   9.9225099  66.5258283  92.6718720   5.4239750  58.5046941  91.8831171
   5.9421694  59.2407968  91.5577659   5.0694883  58.8110934  92.7177930
   5.6752344  54.9247223  87.4032067   5.9554098  54.2570412  88.0292494
   6.4602951  55.1176319  86.8906731   3.4785812  74.1006217  78.9657094
   2.9059780  74.7196404  78.5127565   4.0518606  74.6505579  79.4997016
   9.5461202  63.3464857  91.1503642  10.4978625  63.4462955  91.1715866
   9.3764653  62.5543126  91.6601727   7.5675582  60.4320441  91.3363043
   6.9725514  60.7125453  90.6409532   7.2825278  60.9214341  92.1079784
   6.6983072  74.3843367  80.0965676   7.6313745  74.3188929  80.2998551
   6.6106285  75.2199634  79.6380209   9.3271089  73.7009238  77.0569623
   9.2484720  73.3669101  77.9505381  10.1480756  74.1931006  77.0561096
  12.0249280  66.5670977  90.2645942  11.9925600  65.6286978  90.4505626
  12.6349904  66.6455014  89.5311767   3.8632611  65.4367030  76.3073146
   4.8091716  65.3073238  76.3761564   3.4846856  64.6981692  76.7842574
  12.1743769  63.3582020  90.3104225  11.6582817  62.5740477  90.1234154
  13.0583717  63.0300737  90.4750745   9.8354495  57.1023036  86.2700038
   9.6379317  56.7938124  87.1543370  10.4454201  57.8284675  86.3997968
  17.8425830  67.6286984  89.4051979  18.5729218  67.3672272  89.9659682
  17.2332775  66.8915706  89.4454047  15.9241127  65.7694846  90.0026430
  15.1974291  65.6350811  89.3942922  15.5088414  66.0771675  90.8083148
   3.7471303  69.4884776  97.7673803   4.6674313  69.6663375  97.9613850
   3.7120887  68.5440821  97.6153502   2.0475528  63.3617006  76.2428031
   1.1406983  63.0650119  76.3190745   2.3251509  63.0646824  75.3762318
   3.6637594  57.9053896  82.3972273   2.8538322  57.5600981  82.7727519
   4.3522011  57.5961440  82.9859884   5.5928142  56.9831943  84.0196569
   6.1459181  57.4027396  84.6786592   5.8298228  56.0567691  84.0619525
   1.6161241  62.9719017  99.7999333   1.5157968  63.9213373  99.7311424
   1.3982783  62.6437255  98.9275403   0.8174313  60.2203942  76.3840011
   1.6793477  60.5458840  76.6435828   1.0024657  59.4335437  75.8713076
   8.9706949  59.0932468  83.5275234   8.3905618  59.7517272  83.1453286
   8.7042882  58.2709813  83.1162651   7.4210516  58.4937526  85.7296554
   7.9210294  58.6054060  84.9210873   8.0646123  58.1898579  86.3697362
   1.4792511  66.4016155  98.6164395   0.9959593  67.2016515  98.8228284
   1.5653450  66.4124100  97.6631839   7.7531827  61.2532558  82.5831582
   6.8657682  61.5382209  82.3651777   8.1685816  61.0926322  81.7358859
  11.1046363  61.2779079  86.2985921  11.8806753  61.7675532  86.5710538
  10.3794498  61.7037134  86.7557791  13.5418922  61.9906699  87.3559862
  14.1363413  61.7502435  86.6453170  13.6145506  61.2713829  87.9833398
   6.8975041  71.0177233  76.6779602   7.6010891  71.2227236  77.2937257
   6.1737689  71.5853995  76.9428685   7.7272851  66.7687094  82.7981872
   7.6708052  67.2255646  81.9589504   8.2801193  66.0077779  82.6204715
  11.5377657  62.5576826  83.6231991  11.2814591  62.1573462  84.4540199
  10.9130525  63.2720620  83.4982131  15.8489995  65.2972899  86.1303283
  15.2889553  65.3666089  86.9034845  15.2433498  65.1213884  85.4102779
   8.8061738  71.4559762  78.7278062   9.6407342  71.0240961  78.5455537
   8.6446081  71.2841776  79.6554956   8.4607630  67.9591876  80.0934401
   8.4056434  67.7936147  79.1522845   7.8353686  68.6667909  80.2496591
   5.7753537  70.2640787  99.4187964   6.6444697  70.4381440  99.0574599
   5.2960289  71.0835204  99.2963693   1.7703756  57.4599985  79.6719719
   1.7582426  58.4041825  79.8287990   2.6627178  57.2770130  79.3779181
   1.6993320  76.1368875  87.7587476   0.7488951  76.1370737  87.6451848
   2.0025806  75.3901610  87.2423511   5.5855875  54.0542761  83.9265656
   4.8188271  53.5001248  84.0722339   5.9966580  54.1264630  84.7879808
  17.4346013  81.9729413  88.8233239  18.0724423  81.8536161  88.1196579
  17.3166856  82.9210257  88.8821191  14.2435719  81.9256842  88.7594763
  13.9054231  81.8097906  87.8715298  15.1125488  81.5248007  88.7395769
  10.1022535  83.7792318  84.7491654   9.5387400  83.6882255  83.9807942
   9.9874930  82.9592222  85.2294147  14.7255502  83.0791693  94.7180969
  14.7144143  82.6844492  93.8461472  14.8876142  82.3457766  95.3114740
   7.6486967  85.2743510  87.5875875   8.4408259  84.9334334  87.1722174
   7.8883617  85.3838485  88.5078028  15.6822094  87.4463286  80.0606119
  15.0310074  88.0317366  79.6740133  16.4766457  87.9769481  80.1201157
   9.6077721  84.5352423  80.4593253  10.3808597  83.9881410  80.3206129
   9.9603120  85.3996672  80.6707715  11.4462764  85.8628805  93.6660153
  11.1552630  86.7674436  93.5506819  12.0819748  85.9045333  94.3804222
  12.3718970  83.2405654  90.2561512  12.9682543  83.0161676  89.5418475
  12.4293942  82.4990399  90.8586960  11.9443999  80.6945089  78.0911703
  12.1969520  80.1726610  77.3295166  11.0068558  80.5311234  78.1938387
  16.9887282  79.6980867  85.8986447  17.7750371  79.2800290  85.5476864
  17.2525986  80.6026959  86.0668095  17.1597359  85.1353718  80.5975103
  16.5243192  85.2088344  81.3096008  16.8294765  85.7247316  79.9194183
  22.3895709  79.6356100  86.8019425  23.1220881  79.0655317  87.0357255
  21.6335064  79.2477701  87.2425931  11.6640288  82.5973195  80.2936078
  11.5476546  81.9218098  80.9617163  11.7742547  82.1105569  79.4768231
  14.0071829  82.0583342  83.9982768  13.6430036  81.5313963  84.7095689
  14.8638944  81.6681811  83.8249253  19.9121129  73.3477675  91.2614034
  19.5804454  74.2173086  91.0375249  19.3166743  73.0313959  91.9408064
  13.6477315  77.0873242  78.9944116  13.8151718  77.9553478  79.3614587
  13.4574485  77.2500523  78.0705405  16.4052649  85.5490221  90.6609946
  16.1053372  86.4515259  90.5525754  16.0603708  85.2822404  91.5131099
   9.8565130  82.0004017  86.6946651   8.9315627  81.8680232  86.9024343
  10.1049543  82.7798237  87.1916593  19.8049792  78.0672761  88.3407384
  18.8966670  77.9988169  88.0466145  19.7537388  78.5444706  89.1689209
  13.6266536  79.5430899  79.9790783  13.5066162  79.9887950  80.8176263
  12.9319125  79.8916217  79.4204321   7.2173941  81.6437291  87.5290440
   7.3466322  81.8971770  88.4429852   6.5371393  82.2364999  87.2095095
  11.3873428  92.3134541  83.6280914  11.3097458  93.2642366  83.7069395
  10.7835072  91.9680413  84.2855840  13.8790658  79.4862406  96.2842281
  13.1023992  80.0456326  96.2745146  14.5181221  79.9719189  96.8057151
  21.6711439  76.2689199  90.1185258  21.0285819  76.5621732  89.4725052
  21.1666367  76.1542119  90.9238454  19.3251603  80.0152372  80.8071117
  20.2369459  80.2479759  80.6318814  18.8161250  80.5989417  80.2446196
  12.1337031  82.2947860  95.8460248  12.8751715  82.8332904  95.5695072
  11.4274016  82.9214148  96.0031800  17.6092370  84.4377000  94.4432410
  18.0175726  83.9959411  93.6987042  16.8869632  83.8629628  94.6966602
  13.9623440  79.3749607  91.8165966  14.8084635  79.7989020  91.9600615
  13.9022078  78.7183231  92.5104530  17.9321185  84.9978191  88.1984698
  17.3030047  85.1623905  87.4960766  17.5446847  85.4119800  88.9695662
  21.8110417  85.9332629  85.5529062  21.1261455  86.3131530  85.0026095
  21.8954266  86.5427955  86.2861010  17.1122886  77.0353975  93.4747140
  16.8683817  77.7896036  92.9381416  17.3882816  77.4139323  94.3094387
  19.0661348  83.5792588  92.1524406  19.2778244  84.2224348  91.4758787
  19.0191097  82.7454904  91.6846336  16.6687577  76.1910408  89.0560978
  15.8072056  76.4891662  89.3477715  16.6950012  76.4080807  88.1242010
  13.4849147  84.7352599  85.4634784  13.9487492  85.0140302  84.6739406
  13.2205945  83.8336043  85.2807874  10.3773228  84.2824080  88.4014547
  10.9474585  84.7111349  87.7632031  10.9681340  84.0006665  89.0998732
  12.4218033  80.8575751  82.2724349  13.1242076  81.3096795  82.7398275
  12.0898661  80.2159570  82.9004242  10.8698394  79.4487508  96.6475558
  10.2397055  80.1303789  96.8810955  10.7634482  79.3370589  95.7028696
   6.1643367  79.1159304  87.5741482   5.3742421  79.3716832  87.0981593
   6.6554614  79.9307642  87.6793523  20.1807176  86.4564543  90.3246763
  21.0024620  86.0544730  90.0429445  20.1769579  86.3532777  91.2762879
   8.1158112  79.4803883  84.5324959   7.3189275  79.5922577  85.0508455
   7.8883704  79.8190535  83.6665849  13.9463780  86.0048586  92.4807474
  14.0108212  86.4668994  93.3165645  13.2374704  85.3745951  92.6089783
   4.4481070  79.3689794  90.0056473   4.6989108  80.2536804  90.2714049
   4.9840618  79.1894396  89.2331565  28.2713169  82.8003292  86.6731735
  27.5176878  82.2310690  86.5175739  28.4060711  82.7665956  87.6202369
  13.6611797  87.6716694  82.3486454  13.5257472  88.5168230  82.7771302
  14.2021610  87.8735972  81.5852388  10.1479137  73.7508274  99.0100809
   9.7546083  73.1974472  99.6848453  10.9645277  74.0618852  99.4007327
   7.1141195  85.1892132  82.9214379   7.6265715  85.9835382  83.0719944
   7.7663908  84.4918422  82.8547980   8.9236079  88.3057888  85.0037132
   9.1002708  89.2275853  84.8158116   9.7192913  87.9916307  85.4331512
  13.0647098  75.1666153  96.6021066  13.8056811  75.7673306  96.5225528
  13.2965021  74.4243791  96.0439108   8.2088436  80.3522520  94.8799295
   8.0941951  79.4507777  95.1806394   7.3532954  80.5986217  94.5284112
  15.2880274  88.2940260  96.4786796  14.8444128  87.5076639  96.1607700
  15.9497487  88.4819411  95.8130687  10.0467395  89.8236062  91.0047474
  10.5974820  89.6953125  90.2324468   9.2078871  90.1230951  90.6542367
  17.3861512  88.5743060  94.5068197  17.3679987  89.3951941  94.0148466
  18.3081432  88.4497136  94.7318338  13.8434566  86.0887190  95.3491706
  14.3762903  85.3275478  95.1191014  13.3148647  85.7960842  96.0915860
  17.0104261  71.1947256  90.8785347  16.6668530  72.0848897  90.8024458
  17.3783224  71.0048913  90.0154932   5.0790112  83.5180786  83.6973949
   5.9165334  83.9277795  83.4807657   5.2568379  82.5780228  83.6674143
  16.9754544  81.1855867  79.3857782  16.4601167  81.9560471  79.6246170
  16.7031852  80.5121003  80.0090844  14.5601655  76.0305568  84.4443021
  13.7043251  75.6412418  84.2648660  14.9728606  76.1097528  83.5842806
  16.0900801  73.5651911  88.8434581  15.5865597  73.5282046  88.0302386
  16.3831408  74.4744654  88.9031237  12.3343687  73.6490641  87.8500762
  13.1996684  73.4533449  87.4906652  12.4021196  73.4200992  88.7770119
  21.9488818  83.9388222  81.3210956  21.1718261  83.5999381  80.8766118
  22.6280299  83.9440845  80.6465921  16.7640847  79.0582959  81.2117564
  16.4590982  79.3729108  82.0627707  17.7171289  79.1364379  81.2544897
  15.2087279  85.2173182  82.8610518  14.6808640  84.4825942  82.5483755
  14.7074781  85.9947859  82.6150486  20.1880125  83.4122203  87.9777564
  19.5303799  84.1021464  88.0657693  20.9920524  83.8018635  88.3211550
   9.9406006  75.8792849  85.2217129  10.5149758  75.6568030  84.4890322
  10.5276989  75.9481543  85.9745730  18.9985584  81.7666575  86.0281506
  19.5117465  82.3996567  86.5303215  19.6486807  81.1667771  85.6624866
  10.2675593  77.9097310  79.2413014   9.4312906  78.2471996  79.5622289
  10.1280363  77.7746289  78.3040151  12.2428674  72.7534097  83.9492199
  11.5893086  72.4383115  83.3248813  12.2009148  72.1309838  84.6752021
  13.3539879  83.0353393  75.8645491  12.4466941  82.8042646  76.0636640
  13.8510911  82.2391012  76.0519472  16.2607958  91.7450900  78.7842177
  15.5869657  92.0482596  79.3927135  16.6473780  92.5479980  78.4347634
  15.4766414  79.2416031  88.2739846  14.5588976  79.4630978  88.1161534
  15.8926558  79.3162341  87.4151554  16.2601462  80.6407447  83.4042526
  17.0073281  81.1528844  83.0949648  16.5293052  80.3191499  84.2646920
  14.5328112  83.1365987  80.3869481  13.6239332  82.8525020  80.4841950
  14.5623196  83.5565066  79.5272788  19.7647380  86.7472577  84.1560648
  19.3109707  85.9063487  84.2125839  19.1341346  87.3833975  84.4935428
  18.7080299  77.6764563  85.3861316  17.9703056  77.1641949  85.7171558
  18.9607073  77.2364945  84.5744593  18.2080319  88.5849074  85.0910466
  18.5003293  89.1454131  84.3722832  18.7178940  88.8777635  85.8463626
  18.8091927  70.4540815  85.9803085  19.1150803  69.5938178  85.6929000
  19.5344531  71.0458435  85.7802079   5.1016283  80.8571502  84.3684683
   4.9040683  80.2640862  83.6435749   4.5462947  80.5523712  85.0860622
  13.0813006  80.7494608  86.4879276  13.1361616  79.7968444  86.4121753
  12.2704208  80.9054047  86.9720574  14.2304200  84.6774731  77.7257559
  13.7923630  83.9610590  77.2663197  14.9714641  84.9050846  77.1642651
  11.0205366  79.3671668  84.2469655  10.2073232  79.6665838  84.6534847
  11.5164360  78.9727357  84.9644137  13.1713944  89.3629425  86.1803920
  13.1290123  89.5890271  85.2512452  14.0876643  89.1292799  86.3289721
  16.6179578  79.8313492  93.0784549  16.9728966  80.0584965  93.9379015
  17.2651709  80.1631869  92.4561804  22.3477315  82.9531928  83.7833878
  22.2095213  83.1433524  82.8555067  21.9913534  83.7151311  84.2401929
  10.5119441  76.9390023  89.8630890  11.1518820  76.7978782  89.1653853
   9.6796972  76.6524537  89.4869492  22.3746695  85.0208455  88.7945149
  22.8083201  84.9283744  89.6428203  23.0878275  84.9965956  88.1565165
  11.2879745  86.2392454  85.9765882  12.0820343  85.7442774  85.7748457
  10.5771437  85.7110317  85.6133588  16.1074589  88.6210549  90.3278250
  16.1611612  89.1901486  91.0955966  15.2389371  88.7912434  89.9632287
   7.5962508  80.3835535  82.0525635   6.6660097  80.3219991  82.2695597
   7.6919980  79.8611488  81.2562276   7.5148057  76.9090348  84.6403877
   7.7754875  77.8235682  84.5313037   8.3365230  76.4414791  84.7900490
   8.9872983  78.3228105  91.8102701   9.6596036  78.1145468  91.1615350
   8.1602769  78.1250191  91.3707934  23.2362244  85.0632156  91.3278035
  23.4298134  85.9677966  91.5737310  23.1362862  84.6039575  92.1616620
  14.8898555  74.9490046  93.8268362  14.2426470  75.6479996  93.7332839
  15.6599570  75.3826190  94.1944610  18.2977353  85.2138899  96.9018915
  18.1462859  84.9849450  95.9848999  18.2882032  86.1709500  96.9150260
  15.0662689  82.7870811  91.8865182  15.9954749  82.9381971  91.7134149
  14.6453719  82.8754832  91.0313828  13.8651021  86.8121476  89.6563719
  13.7262107  86.4440260  90.5289658  13.0765617  87.3269115  89.4847677
  14.4599173  91.9130572  80.9989256  14.6350929  91.4418615  81.8134879
  13.7731961  92.5396338  81.2270517  15.4156236  86.1903078  87.0452557
  15.0806069  86.1503848  87.9410207  14.9160182  85.5247794  86.5722967
   9.3900480  81.5970708  92.5705138   9.2520278  80.8650947  93.1716677
  10.3005404  81.5079609  92.2889326  18.3515428  83.5359113  77.3189617
  17.7344598  82.8105941  77.2222670  17.8831916  84.2968473  76.9756691
  12.0182781  81.3090668  92.0588818  12.7282399  80.6683860  92.0175436
  11.9752089  81.5603563  92.9814999  20.0069559  88.2458021  94.9795397
  19.9482106  87.5617241  94.3125980  20.4089078  88.9877011  94.5276023
  10.7311715  78.2955886  93.8784458  10.1949072  77.8446624  94.5306054
  10.1428423  78.4301794  93.1354922   9.0260258  95.0619935  87.7729116
   9.2656856  95.6938459  88.4508135   8.1829455  94.7107975  88.0594475
  10.1413974  77.7544537  76.4410921   9.2643440  77.6333338  76.0773168
  10.6171727  76.9630615  76.1889810  20.0086967  86.2097605  93.2109377
  19.1213745  85.8723527  93.3335776  20.5785518  85.4780636  93.4478142
   1.6616114  82.5421697  86.5352428   2.3487154  82.2283427  85.9473444
   1.5064242  83.4463061  86.2619680   6.4650836  77.4311893  90.9637452
   6.3809025  76.8237563  90.2287862   5.6433542  77.9220912  90.9646948
  13.5388120  90.8699057  90.1770620  13.4658292  91.6754029  90.6889925
  13.0965513  91.0691023  89.3518642  13.3277900  90.1070827  83.6873442
  12.5445422  90.6492508  83.7811666  14.0270645  90.6244807  84.0867683
  16.6374550  75.9165457  86.3307647  17.1343249  75.1635419  86.0108717
  15.8661531  75.9529773  85.7650856  24.4904307  81.6205822  87.9725939
  24.4794183  82.5030538  87.6019872  23.6221687  81.2677373  87.7780476
  15.9986804  90.7685891  92.3328779  16.7114776  91.4033356  92.2604680
  15.5076832  90.8649757  91.5168781  17.7204330  84.6737144  83.9046070
  16.7860609  84.7938607  83.7350775  17.8980999  83.7709611  83.6406080
  13.2209519  78.0582840  86.0579332  12.8507306  77.5053880  86.7460237
  13.7168611  77.4540973  85.5054332  21.1076882  80.5154463  84.4396105
  21.5737334  81.3482455  84.3656407  21.5584382  80.0499445  85.1441363
  11.0498717  88.5180335  93.1534350  11.7508177  89.1516818  93.3063744
  10.5793832  88.8595066  92.3929989  19.1753113  86.8598285  81.4382257
  19.4512957  86.7454879  82.3476131  18.3057612  86.4615769  81.3994430
  19.0793545  72.8835050  88.4787006  18.1656624  73.1139277  88.6469213
  19.5086646  72.9673494  89.3301038  18.8500003  81.0724942  90.9786900
  18.1971453  81.3200850  90.3239353  19.2280383  80.2589080  90.6449377
  15.8107177  91.1084635  85.0815070  15.9929571  90.2906291  85.5442823
  16.6340163  91.3252328  84.6439960  16.1449342  90.0352821  82.3430119
  16.6737109  89.5245275  81.7300281  16.4077562  89.7195351  83.2075652
  14.8987576  81.8144753  97.4652937  14.2228213  81.7138883  98.1355312
  15.7215210  81.6583967  97.9288934   6.6466435  88.0516690  90.0865452
   7.2319872  87.3060378  90.2193356   6.4491274  88.3620647  90.9702116
   9.5005090  91.0867937  85.1027895   8.8315466  91.5714065  84.6191935
   9.3617960  91.3337158  86.0171273   1.2384090  80.6222290  88.8069895
   1.2768189  80.0885881  89.6007014   0.7324383  80.0957496  88.1880873
  13.6410359  93.1211681  91.7010553  14.1928667  93.2843302  92.4659638
  13.9816552  93.7116119  91.0290578   8.6174852  75.4686831  92.3032438
   8.6816179  76.3301662  91.8909835   8.5541972  74.8560832  91.5704796
   8.0927125  77.5409963  95.9505472   8.7199164  77.1587040  96.5642996
   7.2355044  77.3224165  96.3161164  18.4921233  87.9472938  97.5559207
  19.0361137  88.5602897  97.0614162  17.9108078  88.5052517  98.0726220
   4.8692667  79.3486392  81.8823827   5.1646109  78.4397071  81.8290881
   3.9680703  79.3274132  81.5604829  16.7778746  91.0693656  88.6874235
  16.6529886  90.2683396  88.1785181  17.4357837  91.5639850  88.1988205
   8.3986914  77.4242389  87.8651375   7.6773500  78.0378357  87.7258849
   9.1880170  77.9600154  87.7868021  18.8413655  88.8702676  90.3153785
  17.8943990  88.7508028  90.2432112  19.1896428  87.9825174  90.3980047
  11.2013228  74.7596815  94.1392027  11.7247630  75.0059112  94.9018336
  10.9825561  75.5916850  93.7195165   6.5980509  77.0300490  82.0063152
   6.2693215  76.1497869  81.8238258   6.9519880  76.9748159  82.8939541
  15.8460088  88.6655393  86.5158138  15.6985050  87.7372100  86.6965708
  16.6713581  88.6875483  86.0315213   9.7122332  77.3173460  82.3738630
  10.0518405  77.8459381  81.6517238  10.1594453  77.6553866  83.1497196
  19.4494210  89.4883951  87.6023010  20.3740757  89.2826813  87.4647461
  19.2809513  89.2400353  88.5112352  12.4065773  75.7010510  91.8241698
  12.0662593  74.9018324  92.2262378  11.7004779  76.0012221  91.2518531
  13.0582245  72.7859823  90.2769021  13.8808314  72.3120301  90.1547911
  13.3020308  73.5650307  90.7767707  11.6990479  75.8148081  80.5731922
  12.4198842  76.1929334  80.0695639  11.0755783  76.5336958  80.6766900
  15.8421602  76.5193230  81.5090255  16.0585217  77.4017868  81.2079083
  15.3615669  76.1279444  80.7795897  10.5820824  79.4778944  88.0860999
  10.4365404  79.7919247  88.9785281  10.1046027  80.0963844  87.5331898
  12.4417207  76.4681491  88.1341889  12.4278775  75.5722585  87.7974187
  13.1589635  76.4752155  88.7680175  14.2943337  76.9018832  90.1795016
  14.0361115  77.8235902  90.1779347  13.7628378  76.5049266  90.8695480
  19.2389526  90.0069619  82.9585102  19.4126404  89.4416041  82.2058954
  19.7318417  90.8070514  82.7764592   5.0566486  82.0184288  91.0248661
   4.5119954  82.7944096  91.1568935   5.9345836  82.3655092  90.8667782
  11.8454102  75.3495872  83.4029459  11.9670014  74.4212518  83.6020347
  11.5556145  75.3634558  82.4907774  14.7145293  73.0350782  86.5396179
  14.7366990  73.0990115  85.5848158  15.1313352  72.1955291  86.7336685
  25.0928917  82.7706042  84.5775401  25.5360063  82.0213367  84.1794525
  24.2155427  82.7616178  84.1949133  20.2264698  89.3236383  80.0582000
  20.9215603  89.9443076  80.2769315  20.5687849  88.4731734  80.3334378
   5.8432508  81.1454184  93.9178817   5.1014244  81.2936820  94.5043448
   5.5225252  81.4062450  93.0545567  22.1256122  86.7736089  81.5869331
  22.6507446  87.1123362  80.8618651  22.0378474  85.8383104  81.4032465
  13.7876170  90.6870162  93.7159207  14.0963297  90.4419309  94.5881907
  14.5851652  90.8916801  93.2278078  13.8096782  92.8408072  85.9464584
  13.3701773  92.3484451  86.6397441  14.5604899  92.2981040  85.7056659
   6.2889121  89.0319613  85.9489212   7.1147141  88.7323385  85.5687856
   5.9383173  88.2627235  86.3979001  11.2570655  88.3846081  88.0186886
  10.6350664  87.7216786  87.7189113  11.9275521  88.4107213  87.3360533
   4.4897726  86.9505939  86.9078146   3.6529635  86.5228114  86.7262147
   4.4621372  87.1438383  87.8448937  11.3295182  76.8627869  97.6119392
  11.3783337  77.7389992  97.2297161  11.8717696  76.3205262  97.0391035
  21.8150028  87.4068992  96.8920529  21.0245571  87.3893131  96.3525028
  21.5783382  87.9457286  97.6469565  21.9347903  84.2561459  94.2053257
  21.9845908  84.0911466  95.1468780  21.8261826  83.3888718  93.8151138
  10.8184161  86.9350004  81.4945346  10.9672282  87.6185469  80.8412019
  11.6250605  86.9155095  82.0094802  19.2251665  80.2392387  95.5212564
  20.1261528  80.0998852  95.2296562  19.2999640  80.4046842  96.4610741
  13.5594470  77.6159242  94.3665750  12.6897780  77.9092808  94.0948339
  13.7953951  78.1999687  95.0873014  23.4366100  86.6758400  94.4495279
  23.1450908  87.0388381  95.2858740  22.8238231  85.9625409  94.2708611
  24.6361782  84.2411280  86.9697849  25.4708673  84.6801084  87.1335409
  24.7720911  83.7649933  86.1506095  21.6853288  81.7991015  92.9175337
  22.1607409  81.9918661  92.1094188  20.7618853  81.8550201  92.6718720
   8.5736794  82.9615182  82.5006415   8.3282836  82.0577512  82.6986625
   8.7432709  82.9632333  81.5585893  16.2633504  73.8338858  91.8831171
  16.7815448  74.5699885  91.5577659  15.9088637  74.1402852  92.7177930
   7.8432442  78.6943540  79.9992577   7.1501687  78.7687895  79.3432613
   7.5984194  77.9303883  80.5214093  16.5146098  70.2539141  87.4032067
  16.7947852  69.5862330  88.0292494  17.2996705  70.4468237  86.8906731
  14.3179567  89.4298135  78.9657094  13.7453534  90.0488322  78.5127565
  14.8912361  89.9797497  79.4997016  20.3854957  78.6756775  91.1503642
  21.3372380  78.7754873  91.1715866  20.2158407  77.8835044  91.6601727
  18.4069336  75.7612358  91.3363043  17.8119268  76.0417371  90.6409532
  18.1219033  76.2506259  92.1079784  17.5376827  89.7135285  80.0965676
  18.4707500  89.6480847  80.2998551  17.4500040  90.5491552  79.6380209
  20.1664843  89.0301155  77.0569623  20.0878475  88.6961019  77.9505381
  20.9874510  89.5222923  77.0561096  22.8643035  81.8962895  90.2645942
  22.8319355  80.9578895  90.4505626  23.4743658  81.9746931  89.5311767
  14.7026365  80.7658948  76.3073146  15.6485470  80.6365156  76.3761564
  14.3240610  80.0273610  76.7842574  23.0137523  78.6873938  90.3104225
  22.4976572  77.9032395  90.1234154  23.8977472  78.3592655  90.4750745
  20.6748250  72.4314954  86.2700038  20.4773071  72.1230042  87.1543370
  21.2847956  73.1576593  86.3997968  28.6819584  82.9578902  89.4051979
  29.4122973  82.6964190  89.9659682  28.0726530  82.2207623  89.4454047
  26.7634882  81.0986764  90.0026430  26.0368045  80.9642729  89.3942922
  26.3482168  81.4063593  90.8083148  14.5865058  84.8176694  97.7673803
  15.5068067  84.9955293  97.9613850  14.5514641  83.8732739  97.6153502
  12.8869283  78.6908924  76.2428031  11.9800738  78.3942037  76.3190745
  13.1645264  78.3938742  75.3762318   3.8047223  80.0115287  86.6927078
   3.4850007  79.1580596  86.4001452   3.2580651  80.2263866  87.4485045
   7.5827131  82.7277728  90.4096584   7.8013140  83.6594836  90.4284618
   7.9952904  82.3685703  91.1951388  14.5031348  73.2345814  82.3972273
  13.6932077  72.8892899  82.7727519  15.1915765  72.9253357  82.9859884
  16.4321897  72.3123861  84.0196569  16.9852935  72.7319314  84.6786592
  16.6691983  71.3859609  84.0619525  12.4554996  78.3010934  99.7999333
  12.3551723  79.2505291  99.7311424  12.2376538  77.9729173  98.9275403
  11.6568067  75.5495859  76.3840011  12.5187231  75.8750758  76.6435828
  11.8418411  74.7627355  75.8713076   3.6735483  83.6318199  88.6620199
   2.9798954  83.2172152  88.1490154   4.4208474  83.6738735  88.0653618
  19.8100704  74.4224386  83.5275234  19.2299373  75.0809190  83.1453286
  19.5436636  73.6001730  83.1162651  18.2604270  73.8229443  85.7296554
  18.7604048  73.9345978  84.9210873  18.9039878  73.5190496  86.3697362
  12.3186266  81.7308073  98.6164395  11.8353348  82.5308433  98.8228284
  12.4047205  81.7416018  97.6631839   5.5872225  83.5636453  86.5386214
   5.5642914  83.6624140  85.5868097   5.8972862  84.4101604  86.8603380
   8.2459603  85.6212608  90.6532829   9.2002857  85.5896550  90.5862760
   8.0472127  85.1603231  91.4683054   8.8358985  84.1913724  93.2203626
   9.6551874  84.6857802  93.2438464   9.1095793  83.2745692  93.1921194
  18.5925582  76.5824476  82.5831582  17.7051437  76.8674127  82.3651777
  19.0079571  76.4218239  81.7358859  21.9440118  76.6070997  86.2985921
  22.7200508  77.0967450  86.5710538  21.2188252  77.0329051  86.7557791
  24.3812676  77.3198616  87.3559862  24.9757167  77.0794352  86.6453170
  24.4539260  76.6005747  87.9833398   6.6009832  91.1632227  87.6703026
   6.4664300  90.4032628  87.1041025   6.1841894  91.8873127  87.2031815
  17.7368795  86.3469151  76.6779602  18.4404645  86.5519153  77.2937257
  17.0131444  86.9145913  76.9428685  18.5666605  82.0979012  82.7981872
  18.5101807  82.5547563  81.9589504  19.1194948  81.3369697  82.6204715
  22.3771411  77.8868744  83.6231991  22.1208346  77.4865380  84.4540199
  21.7524279  78.6012538  83.4982131  26.6883749  80.6264817  86.1303283
  26.1283307  80.6958006  86.9034845  26.0827253  80.4505802  85.4102779
   9.7578958  92.0601544  87.8821469   9.6411342  93.0046977  87.7800159
   8.9371404  91.7575106  88.2707268  19.6455493  86.7851680  78.7278062
  20.4801097  86.3532878  78.5455537  19.4839835  86.6133694  79.6554956
  19.3001385  83.2883793  80.0934401  19.2450189  83.1228065  79.1522845
  18.6747440  83.9959826  80.2496591   4.0893900  78.5251858  93.9195823
   4.7352763  78.0150812  94.4083048   3.8811051  79.2620539  94.4939249
  16.6147292  85.5932705  99.4187964  17.4838452  85.7673357  99.0574599
  16.1354043  86.4127122  99.2963693  12.6097510  72.7891902  79.6719719
  12.5976180  73.7333742  79.8287990  13.5020932  72.6062048  79.3779181
  10.7833472  92.7129806  91.0977398  11.6860719  92.7453416  91.4143892
  10.5570842  91.7830257  91.1123733  12.5387074  91.4660793  87.7587476
  11.5882705  91.4662654  87.6451848  12.8419560  90.7193527  87.2423511
  16.4249630  69.3834679  83.9265656  15.6582025  68.8293166  84.0722339
  16.8360335  69.4556548  84.7879808   8.4291391  75.6719475  98.0170838
   9.2922852  75.3156280  98.2274162   7.8556801  75.3333370  98.7046242
  28.2739768  97.3021331  88.8233239  28.9118178  97.1828078  88.1196579
  28.1560611  98.2502175  88.8821191  25.0829474  97.2548759  88.7594763
  24.7447985  97.1389824  87.8715298  25.9519242  96.8539924  88.7395769
  20.9416290  99.1084236  84.7491654  20.3781155  99.0174173  83.9807942
  20.8268685  98.2884140  85.2294147  25.5649257  98.4083611  94.7180969
  25.5537898  98.0136409  93.8461472  25.7269896  97.6749684  95.3114740
  18.4880722 100.6035427  87.5875875  19.2802013 100.2626252  87.1722174
  18.7277372 100.7130402  88.5078028  26.5215848 102.7755203  80.0606119
  25.8703828 103.3609284  79.6740133  27.3160211 103.3061398  80.1201157
  20.4471476  99.8644340  80.4593253  21.2202352  99.3173328  80.3206129
  20.7996874 100.7288590  80.6707715  22.2856518 101.1920723  93.6660153
  21.9946384 102.0966354  93.5506819  22.9213502 101.2337250  94.3804222
  23.2112725  98.5697571  90.2561512  23.8076297  98.3453594  89.5418475
  23.2687696  97.8282317  90.8586960  22.7837753  96.0237007  78.0911703
  23.0363274  95.5018528  77.3295166  21.8462312  95.8603152  78.1938387
  27.8281036  95.0272785  85.8986447  28.6144125  94.6092208  85.5476864
  28.0919740  95.9318877  86.0668095  27.9991114 100.4645635  80.5975103
  27.3636946 100.5380262  81.3096008  27.6688520 101.0539234  79.9194183
  33.2289463  94.9648018  86.8019425  33.9614635  94.3947235  87.0357255
  32.4728819  94.5769619  87.2425931  22.5034042  97.9265113  80.2936078
  22.3870300  97.2510016  80.9617163  22.6136302  97.4397486  79.4768231
  24.8465583  97.3875260  83.9982768  24.4823790  96.8605881  84.7095689
  25.7032699  96.9973729  83.8249253  30.7514884  88.6769592  91.2614034
  30.4198208  89.5465003  91.0375249  30.1560497  88.3605876  91.9408064
  24.4871070  92.4165159  78.9944116  24.6545472  93.2845396  79.3614587
  24.2968239  92.5792441  78.0705405  27.2446403 100.8782138  90.6609946
  26.9447126 101.7807177  90.5525754  26.8997463 100.6114321  91.5131099
  20.6958885  97.3295935  86.6946651  19.7709381  97.1972149  86.9024343
  20.9443298  98.1090154  87.1916593  30.6443547  93.3964678  88.3407384
  29.7360424  93.3280087  88.0466145  30.5931143  93.8736623  89.1689209
  24.4660291  94.8722817  79.9790783  24.3459916  95.3179868  80.8176263
  23.7712879  95.2208135  79.4204321  18.0567696  96.9729209  87.5290440
  18.1860077  97.2263688  88.4429852  17.3765147  97.5656917  87.2095095
  22.2267183 107.6426459  83.6280914  22.1491213 108.5934284  83.7069395
  21.6228827 107.2972331  84.2855840  24.7184413  94.8154324  96.2842281
  23.9417747  95.3748244  96.2745146  25.3574976  95.3011107  96.8057151
  32.5105193  91.5981117  90.1185258  31.8679574  91.8913650  89.4725052
  32.0060122  91.4834037  90.9238454  30.1645357  95.3444290  80.8071117
  31.0763213  95.5771677  80.6318814  29.6555004  95.9281334  80.2446196
  22.9730785  97.6239777  95.8460248  23.7145469  98.1624821  95.5695072
  22.2667771  98.2506066  96.0031800  28.4486125  99.7668918  94.4432410
  28.8569481  99.3251328  93.6987042  27.7263386  99.1921545  94.6966602
  24.8017195  94.7041525  91.8165966  25.6478390  95.1280938  91.9600615
  24.7415832  94.0475149  92.5104530  28.7714939 100.3270108  88.1984698
  28.1423802 100.4915823  87.4960766  28.3840601 100.7411718  88.9695662
  32.6504171 101.2624546  85.5529062  31.9655209 101.6423448  85.0026095
  32.7348021 101.8719873  86.2861010  27.9516640  92.3645893  93.4747140
  27.7077572  93.1187953  92.9381416  28.2276571  92.7431241  94.3094387
  29.9055103  98.9084505  92.1524406  30.1171998  99.5516265  91.4758787
  29.8584851  98.0746822  91.6846336  27.5081332  91.5202326  89.0560978
  26.6465811  91.8183580  89.3477715  27.5343766  91.7372725  88.1242010
  24.3242901 100.0644517  85.4634784  24.7881247 100.3432220  84.6739406
  24.0599699  99.1627961  85.2807874  21.2166982  99.6115998  88.4014547
  21.7868339 100.0403266  87.7632031  21.8075094  99.3298583  89.0998732
  23.2611787  96.1867669  82.2724349  23.9635831  96.6388713  82.7398275
  22.9292416  95.5451488  82.9004242  21.7092149  94.7779426  96.6475558
  21.0790809  95.4595706  96.8810955  21.6028237  94.6662507  95.7028696
  17.0037121  94.4451222  87.5741482  16.2136175  94.7008750  87.0981593
  17.4948369  95.2599559  87.6793523  31.0200931 101.7856461  90.3246763
  31.8418375 101.3836648  90.0429445  31.0163334 101.6824695  91.2762879
  18.9551867  94.8095801  84.5324959  18.1583030  94.9214495  85.0508455
  18.7277459  95.1482453  83.6665849  24.7857534 101.3340504  92.4807474
  24.8501967 101.7960911  93.3165645  24.0768458 100.7037869  92.6089783
  15.2874824  94.6981712  90.0056473  15.5382863  95.5828722  90.2714049
  15.8234373  94.5186314  89.2331565  39.1106924  98.1295209  86.6731735
  38.3570632  97.5602607  86.5175739  39.2454465  98.0957874  87.6202369
  24.5005552 103.0008612  82.3486454  24.3651227 103.8460147  82.7771302
  25.0415364 103.2027889  81.5852388  20.9872892  89.0800191  99.0100809
  20.5939837  88.5266390  99.6848453  21.8039032  89.3910770  99.4007327
  17.9534949 100.5184050  82.9214379  18.4659470 101.3127300  83.0719944
  18.6057662  99.8210340  82.8547980  19.7629834 103.6349806  85.0037132
  19.9396462 104.5567771  84.8158116  20.5586667 103.3208225  85.4331512
  23.9040853  90.4958070  96.6021066  24.6450566  91.0965224  96.5225528
  24.1358775  89.7535708  96.0439108  19.0482191  95.6814438  94.8799295
  18.9335706  94.7799695  95.1806394  18.1926708  95.9278135  94.5284112
  26.1274028 103.6232178  96.4786796  25.6837882 102.8368557  96.1607700
  26.7891242 103.8111329  95.8130687  20.8861149 105.1527980  91.0047474
  21.4368575 105.0245043  90.2324468  20.0472625 105.4522869  90.6542367
  28.2255266 103.9034978  94.5068197  28.2073742 104.7243859  94.0148466
  29.1475186 103.7789053  94.7318338  24.6828320 101.4179107  95.3491706
  25.2156657 100.6567396  95.1191014  24.1542402 101.1252759  96.0915860
  27.8498015  86.5239173  90.8785347  27.5062285  87.4140815  90.8024458
  28.2176978  86.3340831  90.0154932  15.9183866  98.8472704  83.6973949
  16.7559088  99.2569712  83.4807657  16.0962134  97.9072146  83.6674143
  27.8148298  96.5147785  79.3857782  27.2994922  97.2852389  79.6246170
  27.5425607  95.8412921  80.0090844  25.3995409  91.3597485  84.4443021
  24.5437006  90.9704336  84.2648660  25.8122361  91.4389446  83.5842806
  26.9294556  88.8943829  88.8434581  26.4259351  88.8573964  88.0302386
  27.2225163  89.8036571  88.9031237  23.1737442  88.9782558  87.8500762
  24.0390438  88.7825367  87.4906652  23.2414951  88.7492910  88.7770119
  32.7882572  99.2680139  81.3210956  32.0112015  98.9291299  80.8766118
  33.4674053  99.2732762  80.6465921  27.6034601  94.3874877  81.2117564
  27.2984737  94.7021026  82.0627707  28.5565043  94.4656297  81.2544897
  26.0481033 100.5465100  82.8610518  25.5202395  99.8117860  82.5483755
  25.5468536 101.3239776  82.6150486  31.0273879  98.7414120  87.9777564
  30.3697554  99.4313382  88.0657693  31.8314278  99.1310552  88.3211550
  20.7799761  91.2084766  85.2217129  21.3543513  90.9859948  84.4890322
  21.3670743  91.2773461  85.9745730  29.8379338  97.0958493  86.0281506
  30.3511220  97.7288485  86.5303215  30.4880562  96.4959689  85.6624866
  21.1069348  93.2389227  79.2413014  20.2706660  93.5763914  79.5622289
  20.9674118  93.1038207  78.3040151  23.0822429  88.0826015  83.9492199
  22.4286841  87.7675032  83.3248813  23.0402903  87.4601756  84.6752021
  24.1933633  98.3645310  75.8645491  23.2860695  98.1334564  76.0636640
  24.6904665  97.5682929  76.0519472  27.1001712 107.0742817  78.7842177
  26.4263411 107.3774514  79.3927135  27.4867534 107.8771898  78.4347634
  26.3160169  94.5707949  88.2739846  25.3982730  94.7922896  88.1161534
  26.7320312  94.6454259  87.4151554  27.0995217  95.9699364  83.4042526
  27.8467036  96.4820762  83.0949648  27.3686806  95.6483417  84.2646920
  25.3721867  98.4657905  80.3869481  24.4633086  98.1816938  80.4841950
  25.4016951  98.8856984  79.5272788  30.6041134 102.0764495  84.1560648
  30.1503461 101.2355404  84.2125839  29.9735101 102.7125893  84.4935428
  29.5474054  93.0056481  85.3861316  28.8096811  92.4933867  85.7171558
  29.8000827  92.5656862  84.5744593  29.0474073 103.9140991  85.0910466
  29.3397048 104.4746048  84.3722832  29.5572694 104.2069552  85.8463626
  29.6485681  85.7832733  85.9803085  29.9544558  84.9230096  85.6929000
  30.3738286  86.3750353  85.7802079  15.9410037  96.1863419  84.3684683
  15.7434437  95.5932780  83.6435749  15.3856701  95.8815629  85.0860622
  23.9206761  96.0786526  86.4879276  23.9755371  95.1260362  86.4121753
  23.1097963  96.2345965  86.9720574  25.0697955 100.0066649  77.7257559
  24.6317385  99.2902508  77.2663197  25.8108395 100.2342764  77.1642651
  21.8599121  94.6963585  84.2469655  21.0466986  94.9957756  84.6534847
  22.3558115  94.3019274  84.9644137  24.0107699 104.6921342  86.1803920
  23.9683877 104.9182189  85.2512452  24.9270398 104.4584717  86.3289721
  27.4573332  95.1605410  93.0784549  27.8122720  95.3876883  93.9379015
  28.1045464  95.4923787  92.4561804  33.1871069  98.2823846  83.7833878
  33.0488968  98.4725442  82.8555067  32.8307288  99.0443229  84.2401929
  21.3513196  92.2681941  89.8630890  21.9912575  92.1270700  89.1653853
  20.5190726  91.9816454  89.4869492  33.2140449 100.3500373  88.7945149
  33.6476956 100.2575662  89.6428203  33.9272030 100.3257873  88.1565165
  22.1273499 101.5684371  85.9765882  22.9214098 101.0734692  85.7748457
  21.4165192 101.0402234  85.6133588  26.9468344 103.9502467  90.3278250
  27.0005366 104.5193403  91.0955966  26.0783125 104.1204352  89.9632287
  18.4356263  95.7127453  82.0525635  17.5053851  95.6511909  82.2695597
  18.5313735  95.1903406  81.2562276  18.3541812  92.2382266  84.6403877
  18.6148629  93.1527599  84.5313037  19.1758984  91.7706709  84.7900490
  19.8266737  93.6520023  91.8102701  20.4989791  93.4437385  91.1615350
  18.9996524  93.4542109  91.3707934  34.0755999 100.3924073  91.3278035
  34.2691889 101.2969884  91.5737310  33.9756617  99.9331493  92.1616620
  25.7292309  90.2781964  93.8268362  25.0820224  90.9771914  93.7332839
  26.4993325  90.7118108  94.1944610  29.1371107 100.5430816  96.9018915
  28.9856614 100.3141368  95.9848999  29.1275787 101.5001418  96.9150260
  25.9056444  98.1162729  91.8865182  26.8348504  98.2673889  91.7134149
  25.4847474  98.2046750  91.0313828  24.7044775 102.1413393  89.6563719
  24.5655861 101.7732178  90.5289658  23.9159372 102.6561033  89.4847677
  25.2992927 107.2422490  80.9989256  25.4744683 106.7710533  81.8134879
  24.6125715 107.8688256  81.2270517  26.2549991 101.5194996  87.0452557
  25.9199823 101.4795766  87.9410207  25.7553936 100.8539712  86.5722967
  20.2294235  96.9262626  92.5705138  20.0914032  96.1942865  93.1716677
  21.1399158  96.8371526  92.2889326  29.1909182  98.8651030  77.3189617
  28.5738353  98.1397859  77.2222670  28.7225671  99.6260391  76.9756691
  22.8576535  96.6382585  92.0588818  23.5676154  95.9975778  92.0175436
  22.8145843  96.8895480  92.9814999  30.8463314 103.5749939  94.9795397
  30.7875860 102.8909159  94.3125980  31.2482832 104.3168929  94.5276023
  21.5705469  93.6247803  93.8784458  21.0342826  93.1738542  94.5306054
  20.9822178  93.7593712  93.1354922  19.8654013 110.3911853  87.7729116
  20.1050611 111.0230377  88.4508135  19.0223209 110.0399893  88.0594475
  20.9807728  93.0836455  76.4410921  20.1037194  92.9625255  76.0773168
  21.4565481  92.2922533  76.1889810  30.8480721 101.5389523  93.2109377
  29.9607500 101.2015444  93.3335776  31.4179272 100.8072554  93.4478142
  12.5009868  97.8713614  86.5352428  13.1880908  97.5575344  85.9473444
  12.3457997  98.7754979  86.2619680  17.3044590  92.7603811  90.9637452
  17.2202779  92.1529481  90.2287862  16.4827297  93.2512829  90.9646948
  24.3781875 106.1990975  90.1770620  24.3052046 107.0045947  90.6889925
  23.9359268 106.3982941  89.3518642  24.1671654 105.4362745  83.6873442
  23.3839176 105.9784425  83.7811666  24.8664399 105.9536725  84.0867683
  27.4768304  91.2457375  86.3307647  27.9737004  90.4927337  86.0108717
  26.7055286  91.2821691  85.7650856  35.3298062  96.9497740  87.9725939
  35.3187938  97.8322455  87.6019872  34.4615441  96.5969291  87.7780476
  26.8380558 106.0977809  92.3328779  27.5508530 106.7325274  92.2604680
  26.3470587 106.1941675  91.5168781  28.5598085 100.0029062  83.9046070
  27.6254364 100.1230524  83.7350775  28.7374753  99.1001529  83.6406080
  24.0603273  93.3874758  86.0579332  23.6901061  92.8345798  86.7460237
  24.5562365  92.7832891  85.5054332  31.9470636  95.8446381  84.4396105
  32.4131089  96.6774373  84.3656407  32.3978137  95.3791363  85.1441363
  21.8892472 103.8472253  93.1534350  22.5901931 104.4808735  93.3063744
  21.4187587 104.1886984  92.3929989  30.0146867 102.1890202  81.4382257
  30.2906711 102.0746797  82.3476131  29.1451366 101.7907687  81.3994430
  29.9187299  88.2126968  88.4787006  29.0050379  88.4431195  88.6469213
  30.3480401  88.2965412  89.3301038  29.6893758  96.4016860  90.9786900
  29.0365208  96.6492767  90.3239353  30.0674137  95.5880998  90.6449377
  26.6500931 106.4376553  85.0815070  26.8323326 105.6198209  85.5442823
  27.4733917 106.6544245  84.6439960  26.9843097 105.3644738  82.3430119
  27.5130863 104.8537193  81.7300281  27.2471317 105.0487268  83.2075652
  25.7381331  97.1436671  97.4652937  25.0621968  97.0430800  98.1355312
  26.5608964  96.9875885  97.9288934  17.4860190 103.3808608  90.0865452
  18.0713626 102.6352295  90.2193356  17.2885028 103.6912564  90.9702116
  20.3398845 106.4159855  85.1027895  19.6709220 106.9005983  84.6191935
  20.2011715 106.6629075  86.0171273  12.0777844  95.9514208  88.8069895
  12.1161944  95.4177798  89.6007014  11.5718137  95.4249413  88.1880873
  24.4804113 108.4503598  91.7010553  25.0322421 108.6135220  92.4659638
  24.8210307 109.0408036  91.0290578  19.4568607  90.7978748  92.3032438
  19.5209933  91.6593579  91.8909835  19.3935727  90.1852750  91.5704796
  18.9320879  92.8701881  95.9505472  19.5592918  92.4878958  96.5642996
  18.0748798  92.6516083  96.3161164  29.3314988 103.2764856  97.5559207
  29.8754892 103.8894814  97.0614162  28.7501833 103.8344434  98.0726220
  15.7086422  94.6778310  81.8823827  16.0039863  93.7688988  81.8290881
  14.8074458  94.6566049  81.5604829  27.6172501 106.3985574  88.6874235
  27.4923640 105.5975314  88.1785181  28.2751592 106.8931767  88.1988205
  19.2380669  92.7534307  87.8651375  18.5167255  93.3670274  87.7258849
  20.0273925  93.2892071  87.7868021  29.6807409 104.1994594  90.3153785
  28.7337745 104.0799945  90.2432112  30.0290182 103.3117092  90.3980047
  22.0406983  90.0888733  94.1392027  22.5641384  90.3351030  94.9018336
  21.8219316  90.9208768  93.7195165  17.4374264  92.3592408  82.0063152
  17.1086970  91.4789787  81.8238258  17.7913634  92.3040076  82.8939541
  26.6853842 103.9947310  86.5158138  26.5378805 103.0664018  86.6965708
  27.5107336 104.0167401  86.0315213  20.5516087  92.6465377  82.3738630
  20.8912159  93.1751299  81.6517238  20.9988207  92.9845784  83.1497196
  30.2887964 104.8175869  87.6023010  31.2134512 104.6118730  87.4647461
  30.1203268 104.5692270  88.5112352  23.2459528  91.0302428  91.8241698
  22.9056348  90.2310241  92.2262378  22.5398534  91.3304139  91.2518531
  23.8975999  88.1151741  90.2769021  24.7202069  87.6412219  90.1547911
  24.1414063  88.8942224  90.7767707  22.5384234  91.1439999  80.5731922
  23.2592596  91.5221252  80.0695639  21.9149538  91.8628876  80.6766900
  26.6815357  91.8485148  81.5090255  26.8978971  92.7309786  81.2079083
  26.2009424  91.4571361  80.7795897  21.4214578  94.8070861  88.0860999
  21.2759159  95.1211164  88.9785281  20.9439782  95.4255762  87.5331898
  23.2810961  91.7973409  88.1341889  23.2672530  90.9014502  87.7974187
  23.9983389  91.8044073  88.7680175  25.1337092  92.2310749  90.1795016
  24.8754870  93.1527820  90.1779347  24.6022132  91.8341184  90.8695480
  30.0783280 105.3361536  82.9585102  30.2520158 104.7707959  82.2058954
  30.5712172 106.1362431  82.7764592  15.8960240  97.3476206  91.0248661
  15.3513708  98.1236014  91.1568935  16.7739590  97.6947010  90.8667782
  22.6847857  90.6787789  83.4029459  22.8063768  89.7504436  83.6020347
  22.3949899  90.6926475  82.4907774  25.5539047  88.3642700  86.5396179
  25.5760744  88.4282033  85.5848158  25.9707106  87.5247209  86.7336685
  35.9322672  98.0997959  84.5775401  36.3753818  97.3505285  84.1794525
  35.0549182  98.0908096  84.1949133  31.0658453 104.6528301  80.0582000
  31.7609358 105.2734994  80.2769315  31.4081603 103.8023652  80.3334378
  16.6826262  96.4746102  93.9178817  15.9407998  96.6228737  94.5043448
  16.3619006  96.7354367  93.0545567  32.9649876 102.1028006  81.5869331
  33.4901200 102.4415279  80.8618651  32.8772229 101.1675022  81.4032465
  24.6269925 106.0162080  93.7159207  24.9357051 105.7711227  94.5881907
  25.4245407 106.2208719  93.2278078  24.6490537 108.1699990  85.9464584
  24.2095527 107.6776368  86.6397441  25.3998654 107.6272957  85.7056659
  17.1282876 104.3611531  85.9489212  17.9540896 104.0615302  85.5687856
  16.7776928 103.5919153  86.3979001  22.0964409 103.7137999  88.0186886
  21.4744418 103.0508704  87.7189113  22.7669276 103.7399131  87.3360533
  15.3291481 102.2797857  86.9078146  14.4923389 101.8520031  86.7262147
  15.3015126 102.4730300  87.8448937  22.1688936  92.1919787  97.6119392
  22.2177092  93.0681910  97.2297161  22.7111451  91.6497180  97.0391035
  32.6543782 102.7360910  96.8920529  31.8639326 102.7185049  96.3525028
  32.4177137 103.2749204  97.6469565  32.7741657  99.5853376  94.2053257
  32.8239662  99.4203384  95.1468780  32.6655581  98.7180635  93.8151138
  21.6577916 102.2641922  81.4945346  21.8066036 102.9477387  80.8412019
  22.4644359 102.2447012  82.0094802  30.0645420  95.5684304  95.5212564
  30.9655282  95.4290769  95.2296562  30.1393394  95.7338759  96.4610741
  24.3988225  92.9451159  94.3665750  23.5291534  93.2384725  94.0948339
  24.6347705  93.5291604  95.0873014  34.2759854 102.0050318  94.4495279
  33.9844662 102.3680299  95.2858740  33.6631985 101.2917326  94.2708611
  35.4755536  99.5703198  86.9697849  36.3102428 100.0093002  87.1335409
  35.6114665  99.0941851  86.1506095  32.5247042  97.1282933  92.9175337
  33.0001164  97.3210579  92.1094188  31.6012608  97.1842118  92.6718720
  19.4130549  98.2907100  82.5006415  19.1676591  97.3869430  82.6986625
  19.5826463  98.2924250  81.5585893  27.1027259  89.1630776  91.8831171
  27.6209203  89.8991803  91.5577659  26.7482392  89.4694769  92.7177930
  18.6826196  94.0235457  79.9992577  17.9895441  94.0979812  79.3432613
  18.4377948  93.2595801  80.5214093  27.3539853  85.5831059  87.4032067
  27.6341607  84.9154248  88.0292494  28.1390460  85.7760154  86.8906731
  25.1573321 104.7590053  78.9657094  24.5847289 105.3780240  78.5127565
  25.7306115 105.3089414  79.4997016  31.2248711  94.0048693  91.1503642
  32.1766134  94.1046790  91.1715866  31.0552162  93.2126961  91.6601727
  29.2463091  91.0904276  91.3363043  28.6513023  91.3709289  90.6409532
  28.9612787  91.5798177  92.1079784  28.3770581 105.0427203  80.0965676
  29.3101254 104.9772764  80.2998551  28.2893794 105.8783470  79.6380209
  31.0058598 104.3593073  77.0569623  30.9272229 104.0252937  77.9505381
  31.8268265 104.8514841  77.0561096  33.7036789  97.2254812  90.2645942
  33.6713109  96.2870813  90.4505626  34.3137413  97.3038849  89.5311767
  25.5420120  96.0950865  76.3073146  26.4879225  95.9657073  76.3761564
  25.1634365  95.3565527  76.7842574  33.8531278  94.0165856  90.3104225
  33.3370326  93.2324312  90.1234154  34.7371226  93.6884572  90.4750745
  31.5142004  87.7606871  86.2700038  31.3166826  87.4521960  87.1543370
  32.1241710  88.4868510  86.3997968  39.5213339  98.2870819  89.4051979
  40.2516727  98.0256107  89.9659682  38.9120284  97.5499541  89.4454047
  37.6028636  96.4278682  90.0026430  36.8761800  96.2934647  89.3942922
  37.1875923  96.7355510  90.8083148  25.4258812 100.1468611  97.7673803
  26.3461822 100.3247210  97.9613850  25.3908395  99.2024657  97.6153502
  23.7263037  94.0200842  76.2428031  22.8194492  93.7233954  76.3190745
  24.0039018  93.7230660  75.3762318  14.6440977  95.3407205  86.6927078
  14.3243762  94.4872513  86.4001452  14.0974406  95.5555783  87.4485045
  18.4220885  98.0569646  90.4096584  18.6406895  98.9886754  90.4284618
  18.8346659  97.6977621  91.1951388  25.3425103  88.5637731  82.3972273
  24.5325831  88.2184816  82.7727519  26.0309520  88.2545275  82.9859884
  27.2715651  87.6415778  84.0196569  27.8246690  88.0611232  84.6786592
  27.5085737  86.7151526  84.0619525  23.2948750  93.6302852  99.7999333
  23.1945477  94.5797209  99.7311424  23.0770292  93.3021091  98.9275403
  22.4961822  90.8787777  76.3840011  23.3580986  91.2042675  76.6435828
  22.6812166  90.0919273  75.8713076  14.5129237  98.9610117  88.6620199
  13.8192709  98.5464069  88.1490154  15.2602228  99.0030653  88.0653618
  30.6494458  89.7516303  83.5275234  30.0693127  90.4101107  83.1453286
  30.3830391  88.9293648  83.1162651  29.0998025  89.1521361  85.7296554
  29.5997803  89.2637896  84.9210873  29.7433632  88.8482414  86.3697362
  23.1580020  97.0599991  98.6164395  22.6747102  97.8600351  98.8228284
  23.2440959  97.0707936  97.6631839  16.4265980  98.8928370  86.5386214
  16.4036668  98.9916058  85.5868097  16.7366616  99.7393521  86.8603380
  19.0853358 100.9504525  90.6532829  20.0396611 100.9188468  90.5862760
  18.8865881 100.4895149  91.4683054  19.6752740  99.5205641  93.2203626
  20.4945629 100.0149720  93.2438464  19.9489548  98.6037610  93.1921194
  29.4319336  91.9116394  82.5831582  28.5445191  92.1966044  82.3651777
  29.8473325  91.7510157  81.7358859  32.7833872  91.9362915  86.2985921
  33.5594262  92.4259367  86.5710538  32.0582006  92.3620969  86.7557791
  35.2206431  92.6490534  87.3559862  35.8150922  92.4086270  86.6453170
  35.2933015  91.9297665  87.9833398  17.4403587 106.4924145  87.6703026
  17.3058055 105.7324546  87.1041025  17.0235649 107.2165045  87.2031815
  28.5762550 101.6761068  76.6779602  29.2798400 101.8811071  77.2937257
  27.8525198 102.2437830  76.9428685  29.4060360  97.4270930  82.7981872
  29.3495561  97.8839481  81.9589504  29.9588702  96.6661614  82.6204715
  33.2165166  93.2160662  83.6231991  32.9602100  92.8157297  84.4540199
  32.5918034  93.9304456  83.4982131  37.5277504  95.9556735  86.1303283
  36.9677062  96.0249924  86.9034845  36.9221007  95.7797719  85.4102779
  20.5972713 107.3893462  87.8821469  20.4805097 108.3338894  87.7800159
  19.7765159 107.0867023  88.2707268  30.4849247 102.1143598  78.7278062
  31.3194851 101.6824796  78.5455537  30.3233590 101.9425611  79.6554956
  30.1395139  98.6175711  80.0934401  30.0843943  98.4519982  79.1522845
  29.5141195  99.3251744  80.2496591  14.9287654  93.8543775  93.9195823
  15.5746518  93.3442729  94.4083048  14.7204805  94.5912457  94.4939249
  27.4541046 100.9224623  99.4187964  28.3232206 101.0965275  99.0574599
  26.9747798 101.7419040  99.2963693  23.4491265  88.1183820  79.6719719
  23.4369935  89.0625660  79.8287990  24.3414687  87.9353965  79.3779181
  21.6227227 108.0421724  91.0977398  22.5254473 108.0745334  91.4143892
  21.3964597 107.1122175  91.1123733  23.3780829 106.7952710  87.7587476
  22.4276460 106.7954572  87.6451848  23.6813315 106.0485445  87.2423511
  27.2643384  84.7126597  83.9265656  26.4975780  84.1585083  84.0722339
  27.6754089  84.7848465  84.7879808  19.2685145  91.0011392  98.0170838
  20.1316607  90.6448197  98.2274162  18.6950556  90.6625287  98.7046242
  39.1133522 112.6313249  88.8233239  39.7511932 112.5119996  88.1196579
  38.9954365 113.5794093  88.8821191  35.9223228 112.5840677  88.7594763
  35.5841740 112.4681742  87.8715298  36.7912997 112.1831842  88.7395769
  31.7810044 114.4376153  84.7491654  31.2174909 114.3466090  83.9807942
  31.6662439 113.6176058  85.2294147  36.4043011 113.7375529  94.7180969
  36.3931652 113.3428327  93.8461472  36.5663651 113.0041601  95.3114740
  29.3274476 115.9327345  87.5875875  30.1195768 115.5918170  87.1722174
  29.5671126 116.0422320  88.5078028  37.3609603 118.1047121  80.0606119
  36.7097583 118.6901201  79.6740133  38.1553966 118.6353316  80.1201157
  31.2865230 115.1936258  80.4593253  32.0596106 114.6465245  80.3206129
  31.6390629 116.0580507  80.6707715  33.1250273 116.5212640  93.6660153
  32.8340139 117.4258271  93.5506819  33.7607257 116.5629168  94.3804222
  34.0506479 113.8989489  90.2561512  34.6470052 113.6745511  89.5418475
  34.1081451 113.1574234  90.8586960  33.6231508 111.3528924  78.0911703
  33.8757029 110.8310446  77.3295166  32.6856067 111.1895070  78.1938387
  38.6674791 110.3564703  85.8986447  39.4537880 109.9384126  85.5476864
  38.9313495 111.2610795  86.0668095  38.8384868 115.7937553  80.5975103
  38.2030701 115.8672179  81.3096008  38.5082274 116.3831152  79.9194183
  44.0683218 110.2939936  86.8019425  44.8008390 109.7239153  87.0357255
  43.3122573 109.9061536  87.2425931  33.3427797 113.2557030  80.2936078
  33.2264055 112.5801934  80.9617163  33.4530056 112.7689404  79.4768231
  35.6859337 112.7167177  83.9982768  35.3217545 112.1897798  84.7095689
  36.5426453 112.3265646  83.8249253  41.5908638 104.0061510  91.2614034
  41.2591963 104.8756921  91.0375249  40.9954252 103.6897794  91.9408064
  35.3264824 107.7457077  78.9944116  35.4939227 108.6137313  79.3614587
  35.1361994 107.9084359  78.0705405  38.0840158 116.2074056  90.6609946
  37.7840881 117.1099095  90.5525754  37.7391217 115.9406239  91.5131099
  31.5352639 112.6587853  86.6946651  30.6103136 112.5264067  86.9024343
  31.7837052 113.4382072  87.1916593  41.4837301 108.7256596  88.3407384
  40.5754179 108.6572005  88.0466145  41.4324897 109.2028541  89.1689209
  35.3054045 110.2014735  79.9790783  35.1853671 110.6471785  80.8176263
  34.6106634 110.5500052  79.4204321  28.8961450 112.3021126  87.5290440
  29.0253831 112.5555605  88.4429852  28.2158901 112.8948834  87.2095095
  33.0660937 122.9718376  83.6280914  32.9884967 123.9226201  83.7069395
  32.4622581 122.6264249  84.2855840  35.5578167 110.1446242  96.2842281
  34.7811501 110.7040162  96.2745146  36.1968730 110.6303025  96.8057151
  43.3498948 106.9273034  90.1185258  42.7073328 107.2205568  89.4725052
  42.8453876 106.8125955  90.9238454  41.0039112 110.6736208  80.8071117
  41.9156968 110.9063594  80.6318814  40.4948759 111.2573252  80.2446196
  33.8124540 112.9531695  95.8460248  34.5539224 113.4916739  95.5695072
  33.1061525 113.5797984  96.0031800  39.2879879 115.0960836  94.4432410
  39.6963235 114.6543246  93.6987042  38.5657141 114.5213463  94.6966602
  35.6410949 110.0333442  91.8165966  36.4872144 110.4572856  91.9600615
  35.5809587 109.3767067  92.5104530  39.6108694 115.6562026  88.1984698
  38.9817556 115.8207740  87.4960766  39.2234356 116.0703636  88.9695662
  43.4897926 116.5916464  85.5529062  42.8048964 116.9715365  85.0026095
  43.5741775 117.2011791  86.2861010  38.7910395 107.6937811  93.4747140
  38.5471326 108.4479871  92.9381416  39.0670325 108.0723158  94.3094387
  40.7448857 114.2376423  92.1524406  40.9565753 114.8808183  91.4758787
  40.6978606 113.4038740  91.6846336  38.3475086 106.8494244  89.0560978
  37.4859565 107.1475497  89.3477715  38.3737521 107.0664643  88.1242010
  35.1636656 115.3936434  85.4634784  35.6275001 115.6724137  84.6739406
  34.8993454 114.4919879  85.2807874  32.0560737 114.9407916  88.4014547
  32.6262094 115.3695184  87.7632031  32.6468849 114.6590500  89.0998732
  34.1005542 111.5159587  82.2724349  34.8029585 111.9680630  82.7398275
  33.7686170 110.8743405  82.9004242  32.5485903 110.1071343  96.6475558
  31.9184564 110.7887624  96.8810955  32.4421991 109.9954425  95.7028696
  27.8430876 109.7743139  87.5741482  27.0529930 110.0300668  87.0981593
  28.3342123 110.5891477  87.6793523  41.8594685 117.1148378  90.3246763
  42.6812129 116.7128566  90.0429445  41.8557088 117.0116613  91.2762879
  29.7945621 110.1387719  84.5324959  28.9976784 110.2506413  85.0508455
  29.5671213 110.4774371  83.6665849  35.6251289 116.6632422  92.4807474
  35.6895721 117.1252829  93.3165645  34.9162213 116.0329787  92.6089783
  26.1268579 110.0273630  90.0056473  26.3776617 110.9120640  90.2714049
  26.6628127 109.8478231  89.2331565  49.9500678 113.4587127  86.6731735
  49.1964387 112.8894525  86.5175739  50.0848220 113.4249791  87.6202369
  35.3399306 118.3300529  82.3486454  35.2044981 119.1752065  82.7771302
  35.8809119 118.5319807  81.5852388  31.8266646 104.4092109  99.0100809
  31.4333592 103.8558308  99.6848453  32.6432786 104.7202688  99.4007327
  28.7928704 115.8475967  82.9214379  29.3053224 116.6419218  83.0719944
  29.4451417 115.1502258  82.8547980  30.6023588 118.9641724  85.0037132
  30.7790217 119.8859688  84.8158116  31.3980422 118.6500143  85.4331512
  34.7434607 105.8249988  96.6021066  35.4844320 106.4257141  96.5225528
  34.9752530 105.0827626  96.0439108  29.8875945 111.0106355  94.8799295
  29.7729460 110.1091613  95.1806394  29.0320463 111.2570052  94.5284112
  36.9667783 118.9524096  96.4786796  36.5231637 118.1660474  96.1607700
  37.6284996 119.1403246  95.8130687  31.7254904 120.4819897  91.0047474
  32.2762329 120.3536961  90.2324468  30.8866380 120.7814786  90.6542367
  39.0649021 119.2326896  94.5068197  39.0467496 120.0535777  94.0148466
  39.9868941 119.1080971  94.7318338  35.5222075 116.7471025  95.3491706
  36.0550412 115.9859313  95.1191014  34.9936156 116.4544677  96.0915860
  38.6891770 101.8531091  90.8785347  38.3456039 102.7432733  90.8024458
  39.0570733 101.6632749  90.0154932  26.7577621 114.1764622  83.6973949
  27.5952843 114.5861630  83.4807657  26.9355888 113.2364064  83.6674143
  38.6542053 111.8439702  79.3857782  38.1388676 112.6144307  79.6246170
  38.3819361 111.1704838  80.0090844  36.2389164 106.6889403  84.4443021
  35.3830760 106.2996253  84.2648660  36.6516115 106.7681364  83.5842806
  37.7688310 104.2235746  88.8434581  37.2653106 104.1865881  88.0302386
  38.0618917 105.1328489  88.9031237  34.0131196 104.3074476  87.8500762
  34.8784193 104.1117285  87.4906652  34.0808705 104.0784828  88.7770119
  43.6276327 114.5972057  81.3210956  42.8505770 114.2583216  80.8766118
  44.3067808 114.6024680  80.6465921  38.4428356 109.7166794  81.2117564
  38.1378491 110.0312943  82.0627707  39.3958798 109.7948214  81.2544897
  36.8874788 115.8757018  82.8610518  36.3596149 115.1409777  82.5483755
  36.3862290 116.6531694  82.6150486  41.8667634 114.0706038  87.9777564
  41.2091308 114.7605300  88.0657693  42.6708033 114.4602470  88.3211550
  31.6193515 106.5376684  85.2217129  32.1937267 106.3151865  84.4890322
  32.2064498 106.6065378  85.9745730  40.6773093 112.4250411  86.0281506
  41.1904974 113.0580403  86.5303215  41.3274316 111.8251606  85.6624866
  31.9463102 108.5681145  79.2413014  31.1100415 108.9055831  79.5622289
  31.8067872 108.4330125  78.3040151  33.9216183 103.4117933  83.9492199
  33.2680595 103.0966950  83.3248813  33.8796657 102.7893673  84.6752021
  35.0327388 113.6937228  75.8645491  34.1254450 113.4626481  76.0636640
  35.5298420 112.8974847  76.0519472  37.9395467 122.4034735  78.7842177
  37.2657166 122.7066432  79.3927135  38.3261289 123.2063815  78.4347634
  37.1553923 109.8999866  88.2739846  36.2376485 110.1214813  88.1161534
  37.5714067 109.9746177  87.4151554  37.9388971 111.2991282  83.4042526
  38.6860790 111.8112679  83.0949648  38.2080561 110.9775335  84.2646920
  36.2115621 113.7949823  80.3869481  35.3026841 113.5108856  80.4841950
  36.2410705 114.2148901  79.5272788  41.4434889 117.4056412  84.1560648
  40.9897216 116.5647322  84.2125839  40.8128855 118.0417811  84.4935428
  40.3867808 108.3348398  85.3861316  39.6490565 107.8225784  85.7171558
  40.6394582 107.8948780  84.5744593  39.8867828 119.2432909  85.0910466
  40.1790802 119.8037966  84.3722832  40.3966449 119.5361470  85.8463626
  40.4879436 101.1124650  85.9803085  40.7938312 100.2522014  85.6929000
  41.2132040 101.7042270  85.7802079  26.7803792 111.5155337  84.3684683
  26.5828191 110.9224698  83.6435749  26.2250456 111.2107547  85.0860622
  34.7600515 111.4078443  86.4879276  34.8149125 110.4552280  86.4121753
  33.9491717 111.5637882  86.9720574  35.9091709 115.3358566  77.7257559
  35.4711139 114.6194425  77.2663197  36.6502150 115.5634681  77.1642651
  32.6992875 110.0255503  84.2469655  31.8860741 110.3249674  84.6534847
  33.1951869 109.6311192  84.9644137  34.8501453 120.0213260  86.1803920
  34.8077632 120.2474106  85.2512452  35.7664152 119.7876635  86.3289721
  38.2967087 110.4897328  93.0784549  38.6516475 110.7168801  93.9379015
  38.9439218 110.8215704  92.4561804  44.0264824 113.6115763  83.7833878
  43.8882722 113.8017359  82.8555067  43.6701043 114.3735146  84.2401929
  32.1906950 107.5973859  89.8630890  32.8306329 107.4562618  89.1653853
  31.3584481 107.3108372  89.4869492  44.0534203 115.6792290  88.7945149
  44.4870710 115.5867580  89.6428203  44.7665784 115.6549791  88.1565165
  32.9667254 116.8976289  85.9765882  33.7607852 116.4026609  85.7748457
  32.2558946 116.3694152  85.6133588  37.7862098 119.2794385  90.3278250
  37.8399121 119.8485321  91.0955966  36.9176880 119.4496270  89.9632287
  29.2750017 111.0419371  82.0525635  28.3447605 110.9803826  82.2695597
  29.3707489 110.5195324  81.2562276  29.1935566 107.5674184  84.6403877
  29.4542384 108.4819517  84.5313037  30.0152739 107.0998626  84.7900490
  30.6660492 108.9811941  91.8102701  31.3383545 108.7729303  91.1615350
  29.8390278 108.7834027  91.3707934  44.9149753 115.7215991  91.3278035
  45.1085643 116.6261802  91.5737310  44.8150371 115.2623410  92.1616620
  36.5686064 105.6073882  93.8268362  35.9213979 106.3063831  93.7332839
  37.3387079 106.0410026  94.1944610  39.9764862 115.8722734  96.9018915
  39.8250368 115.6433286  95.9848999  39.9669541 116.8293335  96.9150260
  36.7450198 113.4454647  91.8865182  37.6742258 113.5965806  91.7134149
  36.3241228 113.5338667  91.0313828  35.5438530 117.4705311  89.6563719
  35.4049616 117.1024095  90.5289658  34.7553126 117.9852950  89.4847677
  36.1386682 122.5714407  80.9989256  36.3138438 122.1002451  81.8134879
  35.4519470 123.1980174  81.2270517  37.0943745 116.8486914  87.0452557
  36.7593578 116.8087684  87.9410207  36.5947691 116.1831630  86.5722967
  31.0687989 112.2554544  92.5705138  30.9307787 111.5234783  93.1716677
  31.9792912 112.1663444  92.2889326  40.0302937 114.1942948  77.3189617
  39.4132107 113.4689776  77.2222670  39.5619425 114.9552308  76.9756691
  33.6970290 111.9674503  92.0588818  34.4069908 111.3267695  92.0175436
  33.6539598 112.2187398  92.9814999  41.6857068 118.9041856  94.9795397
  41.6269615 118.2201077  94.3125980  42.0876587 119.6460846  94.5276023
  32.4099224 108.9539721  93.8784458  31.8736581 108.5030459  94.5306054
  31.8215932 109.0885630  93.1354922  30.7047767 125.7203770  87.7729116
  30.9444365 126.3522294  88.4508135  29.8616964 125.3691810  88.0594475
  31.8201483 108.4128372  76.4410921  30.9430949 108.2917173  76.0773168
  32.2959236 107.6214451  76.1889810  41.6874476 116.8681440  93.2109377
  40.8001254 116.5307362  93.3335776  42.2573027 116.1364472  93.4478142
  23.3403623 113.2005532  86.5352428  24.0274663 112.8867262  85.9473444
  23.1851751 114.1046897  86.2619680  28.1438345 108.0895729  90.9637452
  28.0596534 107.4821398  90.2287862  27.3221051 108.5804747  90.9646948
  35.2175629 121.5282893  90.1770620  35.1445801 122.3337864  90.6889925
  34.7753022 121.7274859  89.3518642  35.0065409 120.7654663  83.6873442
  34.2232931 121.3076343  83.7811666  35.7058154 121.2828642  84.0867683
  38.3162059 106.5749292  86.3307647  38.8130758 105.8219255  86.0108717
  37.5449040 106.6113609  85.7650856  46.1691816 112.2789658  87.9725939
  46.1581692 113.1614373  87.6019872  45.3009196 111.9261209  87.7780476
  37.6774313 121.4269727  92.3328779  38.3902285 122.0617192  92.2604680
  37.1864341 121.5233593  91.5168781  39.3991839 115.3320979  83.9046070
  38.4648118 115.4522442  83.7350775  39.5768508 114.4293446  83.6406080
  34.8997028 108.7166675  86.0579332  34.5294815 108.1637716  86.7460237
  35.3956120 108.1124809  85.5054332  42.7864391 111.1738299  84.4396105
  43.2524843 112.0066290  84.3656407  43.2371891 110.7083280  85.1441363
  32.7286226 119.1764170  93.1534350  33.4295686 119.8100653  93.3063744
  32.2581341 119.5178902  92.3929989  40.8540622 117.5182120  81.4382257
  41.1300466 117.4038715  82.3476131  39.9845121 117.1199605  81.3994430
  40.7581054 103.5418886  88.4787006  39.8444133 103.7723113  88.6469213
  41.1874155 103.6257330  89.3301038  40.5287512 111.7308778  90.9786900
  39.8758962 111.9784685  90.3239353  40.9067892 110.9172916  90.6449377
  37.4894686 121.7668471  85.0815070  37.6717080 120.9490127  85.5442823
  38.3127672 121.9836163  84.6439960  37.8236851 120.6936656  82.3430119
  38.3524618 120.1829111  81.7300281  38.0865071 120.3779186  83.2075652
  36.5775085 112.4728589  97.4652937  35.9015722 112.3722718  98.1355312
  37.4002719 112.3167802  97.9288934  28.3253944 118.7100525  90.0865452
  28.9107381 117.9644213  90.2193356  28.1278783 119.0204482  90.9702116
  31.1792599 121.7451773  85.1027895  30.5102975 122.2297900  84.6191935
  31.0405469 121.9920993  86.0171273  22.9171599 111.2806125  88.8069895
  22.9555698 110.7469716  89.6007014  22.4111892 110.7541331  88.1880873
  35.3197868 123.7795516  91.7010553  35.8716176 123.9427138  92.4659638
  35.6604061 124.3699954  91.0290578  30.2962361 106.1270666  92.3032438
  30.3603688 106.9885497  91.8909835  30.2329481 105.5144668  91.5704796
  29.7714634 108.1993799  95.9505472  30.3986673 107.8170876  96.5642996
  28.9142553 107.9808000  96.3161164  40.1708742 118.6056774  97.5559207
  40.7148646 119.2186732  97.0614162  39.5895587 119.1636352  98.0726220
  26.5480176 110.0070228  81.8823827  26.8433618 109.0980906  81.8290881
  25.6468212 109.9857967  81.5604829  38.4566255 121.7277492  88.6874235
  38.3317395 120.9267232  88.1785181  39.1145346 122.2223685  88.1988205
  30.0774423 108.0826224  87.8651375  29.3561009 108.6962192  87.7258849
  30.8667679 108.6183989  87.7868021  40.5201164 119.5286512  90.3153785
  39.5731499 119.4091863  90.2432112  40.8683937 118.6409010  90.3980047
  32.8800737 105.4180651  94.1392027  33.4035139 105.6642947  94.9018336
  32.6613070 106.2500685  93.7195165  28.2768018 107.6884325  82.0063152
  27.9480724 106.8081704  81.8238258  28.6307389 107.6331994  82.8939541
  37.5247597 119.3239228  86.5158138  37.3772559 118.3955935  86.6965708
  38.3501090 119.3459319  86.0315213  31.3909841 107.9757295  82.3738630
  31.7305914 108.5043216  81.6517238  31.8381962 108.3137701  83.1497196
  41.1281719 120.1467787  87.6023010  42.0528266 119.9410648  87.4647461
  40.9597022 119.8984188  88.5112352  34.0853282 106.3594346  91.8241698
  33.7450102 105.5602159  92.2262378  33.3792288 106.6596057  91.2518531
  34.7369754 103.4443658  90.2769021  35.5595823 102.9704136  90.1547911
  34.9807817 104.2234142  90.7767707  33.3777988 106.4731917  80.5731922
  34.0986351 106.8513169  80.0695639  32.7543292 107.1920793  80.6766900
  37.5209111 107.1777066  81.5090255  37.7372726 108.0601704  81.2079083
  37.0403178 106.7863279  80.7795897  32.2608333 110.1362779  88.0860999
  32.1152913 110.4503082  88.9785281  31.7833536 110.7547679  87.5331898
  34.1204715 107.1265327  88.1341889  34.1066284 106.2306420  87.7974187
  34.8377144 107.1335991  88.7680175  35.9730846 107.5602667  90.1795016
  35.7148624 108.4819738  90.1779347  35.4415887 107.1633102  90.8695480
  40.9177035 120.6653454  82.9585102  41.0913913 120.0999877  82.2058954
  41.4105926 121.4654349  82.7764592  26.7353995 112.6768123  91.0248661
  26.1907463 113.4527931  91.1568935  27.6133345 113.0238928  90.8667782
  33.5241611 106.0079707  83.4029459  33.6457523 105.0796353  83.6020347
  33.2343654 106.0218393  82.4907774  36.3932802 103.6934618  86.5396179
  36.4154499 103.7573951  85.5848158  36.8100861 102.8539126  86.7336685
  46.7716426 113.4289877  84.5775401  47.2147572 112.6797202  84.1794525
  45.8942936 113.4200013  84.1949133  41.9052207 119.9820219  80.0582000
  42.6003112 120.6026911  80.2769315  42.2475358 119.1315570  80.3334378
  27.5220017 111.8038020  93.9178817  26.7801753 111.9520655  94.5043448
  27.2012761 112.0646285  93.0545567  43.8043631 117.4319924  81.5869331
  44.3294955 117.7707197  80.8618651  43.7165983 116.4966939  81.4032465
  35.4663679 121.3453998  93.7159207  35.7750806 121.1003145  94.5881907
  36.2639161 121.5500636  93.2278078  35.4884291 123.4991907  85.9464584
  35.0489282 123.0068286  86.6397441  36.2392408 122.9564875  85.7056659
  27.9676630 119.6903448  85.9489212  28.7934650 119.3907220  85.5687856
  27.6170682 118.9211071  86.3979001  32.9358163 119.0429916  88.0186886
  32.3138173 118.3800621  87.7189113  33.6063030 119.0691048  87.3360533
  26.1685235 117.6089775  86.9078146  25.3317144 117.1811949  86.7262147
  26.1408881 117.8022218  87.8448937  33.0082691 107.5211704  97.6119392
  33.0570846 108.3973827  97.2297161  33.5505205 106.9789098  97.0391035
  43.4937537 118.0652828  96.8920529  42.7033080 118.0476967  96.3525028
  43.2570891 118.6041121  97.6469565  43.6135412 114.9145294  94.2053257
  43.6633417 114.7495302  95.1468780  43.5049335 114.0472553  93.8151138
  32.4971670 117.5933840  81.4945346  32.6459791 118.2769304  80.8412019
  33.3038114 117.5738930  82.0094802  40.9039174 110.8976222  95.5212564
  41.8049037 110.7582687  95.2296562  40.9787149 111.0630677  96.4610741
  35.2381979 108.2743077  94.3665750  34.3685289 108.5676643  94.0948339
  35.4741460 108.8583522  95.0873014  45.1153609 117.3342236  94.4495279
  44.8238417 117.6972216  95.2858740  44.5025740 116.6209244  94.2708611
  46.3149291 114.8995115  86.9697849  47.1496182 115.3384919  87.1335409
  46.4508420 114.4233769  86.1506095  43.3640797 112.4574850  92.9175337
  43.8394918 112.6502497  92.1094188  42.4406362 112.5134036  92.6718720
  30.2524303 113.6199017  82.5006415  30.0070345 112.7161347  82.6986625
  30.4220218 113.6216168  81.5585893  37.9421013 104.4922694  91.8831171
  38.4602957 105.2283721  91.5577659  37.5876146 104.7986687  92.7177930
  29.5219951 109.3527375  79.9992577  28.8289196 109.4271730  79.3432613
  29.2771703 108.5887719  80.5214093  38.1933607 100.9122976  87.4032067
  38.4735361 100.2446165  88.0292494  38.9784214 101.1052072  86.8906731
  35.9967076 120.0881970  78.9657094  35.4241043 120.7072157  78.5127565
  36.5699870 120.6381332  79.4997016  42.0642466 109.3340610  91.1503642
  43.0159889 109.4338708  91.1715866  41.8945916 108.5418879  91.6601727
  40.0856845 106.4196194  91.3363043  39.4906777 106.7001206  90.6409532
  39.8006542 106.9090094  92.1079784  39.2164336 120.3719120  80.0965676
  40.1495009 120.3064682  80.2998551  39.1287549 121.2075387  79.6380209
  41.8452352 119.6884991  77.0569623  41.7665984 119.3544854  77.9505381
  42.6662019 120.1806759  77.0561096  44.5430544 112.5546730  90.2645942
  44.5106864 111.6162731  90.4505626  45.1531167 112.6330767  89.5311767
  36.3813874 111.4242783  76.3073146  37.3272979 111.2948991  76.3761564
  36.0028119 110.6857445  76.7842574  44.6925032 109.3457773  90.3104225
  44.1764081 108.5616230  90.1234154  45.5764981 109.0176490  90.4750745
  42.3535759 103.0898789  86.2700038  42.1560580 102.7813877  87.1543370
  42.9635465 103.8160428  86.3997968  50.3607093 113.6162737  89.4051979
  51.0910482 113.3548025  89.9659682  49.7514039 112.8791459  89.4454047
  48.4422391 111.7570599  90.0026430  47.7155554 111.6226564  89.3942922
  48.0269677 112.0647428  90.8083148  36.2652567 115.4760529  97.7673803
  37.1855576 115.6539128  97.9613850  36.2302150 114.5316574  97.6153502
  34.5656792 109.3492759  76.2428031  33.6588247 109.0525872  76.3190745
  34.8432773 109.0522577  75.3762318  25.4834732 110.6699123  86.6927078
  25.1637516 109.8164431  86.4001452  24.9368160 110.8847701  87.4485045
  29.2614639 113.3861564  90.4096584  29.4800649 114.3178672  90.4284618
  29.6740413 113.0269538  91.1951388  36.1818857 103.8929649  82.3972273
  35.3719586 103.5476734  82.7727519  36.8703274 103.5837193  82.9859884
  38.1109406 102.9707696  84.0196569  38.6640444 103.3903149  84.6786592
  38.3479492 102.0443444  84.0619525  34.1342505 108.9594770  99.7999333
  34.0339232 109.9089127  99.7311424  33.9164047 108.6313008  98.9275403
  33.3355576 106.2079695  76.3840011  34.1974740 106.5334593  76.6435828
  33.5205920 105.4211191  75.8713076  25.3522992 114.2902034  88.6620199
  24.6586463 113.8755987  88.1490154  26.0995983 114.3322571  88.0653618
  41.4888213 105.0808221  83.5275234  40.9086882 105.7393025  83.1453286
  41.2224145 104.2585566  83.1162651  39.9391779 104.4813279  85.7296554
  40.4391557 104.5929813  84.9210873  40.5827387 104.1774332  86.3697362
  33.9973775 112.3891908  98.6164395  33.5140857 113.1892269  98.8228284
  34.0834714 112.3999853  97.6631839  27.2659734 114.2220288  86.5386214
  27.2430423 114.3207975  85.5868097  27.5760371 115.0685439  86.8603380
  29.9247112 116.2796443  90.6532829  30.8790366 116.2480385  90.5862760
  29.7259636 115.8187067  91.4683054  30.5146494 114.8497559  93.2203626
  31.3339383 115.3441638  93.2438464  30.7883302 113.9329527  93.1921194
  40.2713091 107.2408311  82.5831582  39.3838946 107.5257962  82.3651777
  40.6867080 107.0802075  81.7358859  43.6227627 107.2654832  86.2985921
  44.3988017 107.7551285  86.5710538  42.8975761 107.6912887  86.7557791
  46.0600185 107.9782452  87.3559862  46.6544676 107.7378188  86.6453170
  46.1326769 107.2589582  87.9833398  28.2797341 121.8216063  87.6703026
  28.1451809 121.0616463  87.1041025  27.8629403 122.5456962  87.2031815
  39.4156304 117.0052986  76.6779602  40.1192154 117.2102989  77.2937257
  38.6918953 117.5729748  76.9428685  40.2454114 112.7562847  82.7981872
  40.1889316 113.2131399  81.9589504  40.7982457 111.9953532  82.6204715
  44.0558920 108.5452579  83.6231991  43.7995855 108.1449215  84.4540199
  43.4311788 109.2596373  83.4982131  48.3671258 111.2848653  86.1303283
  47.8070816 111.3541842  86.9034845  47.7614762 111.1089637  85.4102779
  31.4366467 122.7185380  87.8821469  31.3198851 123.6630812  87.7800159
  30.6158913 122.4158941  88.2707268  41.3243002 117.4435515  78.7278062
  42.1588605 117.0116714  78.5455537  41.1627344 117.2717529  79.6554956
  40.9788894 113.9467629  80.0934401  40.9237698 113.7811900  79.1522845
  40.3534949 114.6543662  80.2496591  25.7681409 109.1835693  93.9195823
  26.4140272 108.6734647  94.4083048  25.5598560 109.9204375  94.4939249
  38.2934801 116.2516540  99.4187964  39.1625961 116.4257193  99.0574599
  37.8141552 117.0710957  99.2963693  34.2885019 103.4475738  79.6719719
  34.2763689 104.3917578  79.8287990  35.1808441 103.2645883  79.3779181
  32.4620981 123.3713642  91.0977398  33.3648228 123.4037252  91.4143892
  32.2358351 122.4414092  91.1123733  34.2174583 122.1244628  87.7587476
  33.2670214 122.1246490  87.6451848  34.5207069 121.3777363  87.2423511
  38.1037139 100.0418514  83.9265656  37.3369534  99.4877001  84.0722339
  38.5147844 100.1140383  84.7879808  30.1078900 106.3303310  98.0170838
  30.9710361 105.9740115  98.2274162  29.5344310 105.9917205  98.7046242
  49.9527277 127.9605166  88.8233239  50.5905687 127.8411914  88.1196579
  49.8348120 128.9086010  88.8821191  46.7616983 127.9132595  88.7594763
  46.4235494 127.7973659  87.8715298  47.6306751 127.5123760  88.7395769
  42.6203799 129.7668071  84.7491654  42.0568664 129.6758008  83.9807942
  42.5056194 128.9467975  85.2294147  47.2436766 129.0667446  94.7180969
  47.2325407 128.6720245  93.8461472  47.4057405 128.3333519  95.3114740
  40.1668231 131.2619263  87.5875875  40.9589522 130.9210087  87.1722174
  40.4064881 131.3714238  88.5078028  48.2003357 133.4339039  80.0606119
  47.5491337 134.0193119  79.6740133  48.9947720 133.9645234  80.1201157
  42.1258984 130.5228176  80.4593253  42.8989860 129.9757163  80.3206129
  42.4784383 131.3872425  80.6707715  43.9644027 131.8504558  93.6660153
  43.6733893 132.7550189  93.5506819  44.6001011 131.8921086  94.3804222
  44.8900234 129.2281407  90.2561512  45.4863806 129.0037429  89.5418475
  44.9475205 128.4866152  90.8586960  44.4625262 126.6820842  78.0911703
  44.7150783 126.1602363  77.3295166  43.5249821 126.5186987  78.1938387
  49.5068545 125.6856620  85.8986447  50.2931634 125.2676043  85.5476864
  49.7707249 126.5902712  86.0668095  49.6778622 131.1229471  80.5975103
  49.0424455 131.1964097  81.3096008  49.3476029 131.7123069  79.9194183
  54.9076972 125.6231853  86.8019425  55.6402144 125.0531070  87.0357255
  54.1516328 125.2353454  87.2425931  44.1821551 128.5848948  80.2936078
  44.0657809 127.9093851  80.9617163  44.2923811 128.0981322  79.4768231
  46.5253092 128.0459095  83.9982768  46.1611299 127.5189716  84.7095689
  47.3820208 127.6557564  83.8249253  52.4302393 119.3353428  91.2614034
  52.0985717 120.2048839  91.0375249  51.8348006 119.0189712  91.9408064
  46.1658579 123.0748995  78.9944116  46.3332981 123.9429231  79.3614587
  45.9755748 123.2376276  78.0705405  48.9233912 131.5365974  90.6609946
  48.6234635 132.4391012  90.5525754  48.5784972 131.2698157  91.5131099
  42.3746394 127.9879770  86.6946651  41.4496890 127.8555985  86.9024343
  42.6230807 128.7673990  87.1916593  52.3231056 124.0548514  88.3407384
  51.4147933 123.9863922  88.0466145  52.2718652 124.5320459  89.1689209
  46.1447800 125.5306652  79.9790783  46.0247425 125.9763703  80.8176263
  45.4500388 125.8791970  79.4204321  39.7355205 127.6313044  87.5290440
  39.8647586 127.8847523  88.4429852  39.0552656 128.2240752  87.2095095
  43.9054692 138.3010294  83.6280914  43.8278722 139.2518119  83.7069395
  43.3016336 137.9556166  84.2855840  46.3971922 125.4738159  96.2842281
  45.6205256 126.0332080  96.2745146  47.0362485 125.9594942  96.8057151
  54.1892702 122.2564952  90.1185258  53.5467083 122.5497485  89.4725052
  53.6847631 122.1417873  90.9238454  51.8432866 126.0028125  80.8071117
  52.7550722 126.2355512  80.6318814  51.3342513 126.5865170  80.2446196
  44.6518294 128.2823613  95.8460248  45.3932978 128.8208657  95.5695072
  43.9455279 128.9089901  96.0031800  50.1273634 130.4252753  94.4432410
  50.5356990 129.9835164  93.6987042  49.4050895 129.8505381  94.6966602
  46.4804704 125.3625360  91.8165966  47.3265899 125.7864774  91.9600615
  46.4203341 124.7058984  92.5104530  50.4502448 130.9853944  88.1984698
  49.8211311 131.1499658  87.4960766  50.0628110 131.3995553  88.9695662
  54.3291680 131.9208382  85.5529062  53.6442718 132.3007283  85.0026095
  54.4135530 132.5303708  86.2861010  49.6304149 123.0229728  93.4747140
  49.3865081 123.7771789  92.9381416  49.9064080 123.4015076  94.3094387
  51.5842612 129.5668341  92.1524406  51.7959507 130.2100101  91.4758787
  51.5372360 128.7330657  91.6846336  49.1868841 122.1786161  89.0560978
  48.3253320 122.4767415  89.3477715  49.2131275 122.3956560  88.1242010
  46.0030410 130.7228352  85.4634784  46.4668756 131.0016055  84.6739406
  45.7387208 129.8211796  85.2807874  42.8954491 130.2699833  88.4014547
  43.4655848 130.6987102  87.7632031  43.4862603 129.9882418  89.0998732
  44.9399296 126.8451504  82.2724349  45.6423340 127.2972548  82.7398275
  44.6079925 126.2035323  82.9004242  43.3879658 125.4363261  96.6475558
  42.7578318 126.1179542  96.8810955  43.2815746 125.3246343  95.7028696
  38.6824630 125.1035057  87.5741482  37.8923684 125.3592585  87.0981593
  39.1735878 125.9183395  87.6793523  52.6988440 132.4440296  90.3246763
  53.5205883 132.0420483  90.0429445  52.6950843 132.3408530  91.2762879
  40.6339376 125.4679636  84.5324959  39.8370539 125.5798330  85.0508455
  40.4064968 125.8066288  83.6665849  46.4645043 131.9924339  92.4807474
  46.5289476 132.4544747  93.3165645  45.7555967 131.3621704  92.6089783
  36.9662333 125.3565547  90.0056473  37.2170372 126.2412557  90.2714049
  37.5021882 125.1770149  89.2331565  60.7894433 128.7879045  86.6731735
  60.0358141 128.2186443  86.5175739  60.9241974 128.7541709  87.6202369
  46.1793061 133.6592447  82.3486454  46.0438736 134.5043983  82.7771302
  46.7202873 133.8611725  81.5852388  42.6660400 119.7384027  99.0100809
  42.2727346 119.1850225  99.6848453  43.4826541 120.0494605  99.4007327
  39.6322458 131.1767885  82.9214379  40.1446979 131.9711135  83.0719944
  40.2845171 130.4794175  82.8547980  41.4417343 134.2933641  85.0037132
  41.6183971 135.2151606  84.8158116  42.2374176 133.9792060  85.4331512
  45.5828361 121.1541906  96.6021066  46.3238075 121.7549059  96.5225528
  45.8146284 120.4119544  96.0439108  40.7269699 126.3398273  94.8799295
  40.6123215 125.4383530  95.1806394  39.8714217 126.5861970  94.5284112
  47.8061537 134.2816013  96.4786796  47.3625391 133.4952392  96.1607700
  48.4678751 134.4695164  95.8130687  42.5648658 135.8111815  91.0047474
  43.1156084 135.6828878  90.2324468  41.7260134 136.1106704  90.6542367
  49.9042775 134.5618813  94.5068197  49.8861251 135.3827694  94.0148466
  50.8262695 134.4372889  94.7318338  46.3615829 132.0762943  95.3491706
  46.8944166 131.3151231  95.1191014  45.8329911 131.7836595  96.0915860
  49.5285524 117.1823009  90.8785347  49.1849794 118.0724650  90.8024458
  49.8964487 116.9924666  90.0154932  37.5971375 129.5056539  83.6973949
  38.4346597 129.9153548  83.4807657  37.7749643 128.5655981  83.6674143
  49.4935807 127.1731620  79.3857782  48.9782431 127.9436225  79.6246170
  49.2213116 126.4996756  80.0090844  47.0782918 122.0181321  84.4443021
  46.2224515 121.6288171  84.2648660  47.4909870 122.0973281  83.5842806
  48.6082065 119.5527664  88.8434581  48.1046860 119.5157799  88.0302386
  48.9012672 120.4620407  88.9031237  44.8524951 119.6366394  87.8500762
  45.7177947 119.4409202  87.4906652  44.9202460 119.4076745  88.7770119
  54.4670081 129.9263975  81.3210956  53.6899524 129.5875134  80.8766118
  55.1461562 129.9316598  80.6465921  49.2822110 125.0458712  81.2117564
  48.9772246 125.3604861  82.0627707  50.2352552 125.1240132  81.2544897
  47.7268542 131.2048935  82.8610518  47.1989904 130.4701695  82.5483755
  47.2256045 131.9823612  82.6150486  52.7061388 129.3997956  87.9777564
  52.0485063 130.0897217  88.0657693  53.5101787 129.7894388  88.3211550
  42.4587270 121.8668602  85.2217129  43.0331022 121.6443783  84.4890322
  43.0458252 121.9357296  85.9745730  51.5166847 127.7542328  86.0281506
  52.0298729 128.3872320  86.5303215  52.1668071 127.1543524  85.6624866
  42.7856857 123.8973063  79.2413014  41.9494169 124.2347749  79.5622289
  42.6461627 123.7622042  78.3040151  44.7609937 118.7409850  83.9492199
  44.1074350 118.4258868  83.3248813  44.7190412 118.1185591  84.6752021
  45.8721142 129.0229146  75.8645491  44.9648204 128.7918399  76.0636640
  46.3692174 128.2266765  76.0519472  48.7789221 137.7326653  78.7842177
  48.1050920 138.0358350  79.3927135  49.1655043 138.5355733  78.4347634
  47.9947678 125.2291784  88.2739846  47.0770239 125.4506731  88.1161534
  48.4107821 125.3038094  87.4151554  48.7782726 126.6283200  83.4042526
  49.5254545 127.1404597  83.0949648  49.0474315 126.3067252  84.2646920
  47.0509376 129.1241740  80.3869481  46.1420595 128.8400773  80.4841950
  47.0804460 129.5440819  79.5272788  52.2828643 132.7348330  84.1560648
  51.8290970 131.8939240  84.2125839  51.6522610 133.3709728  84.4935428
  51.2261563 123.6640316  85.3861316  50.4884320 123.1517702  85.7171558
  51.4788336 123.2240698  84.5744593  50.7261582 134.5724827  85.0910466
  51.0184557 135.1329884  84.3722832  51.2360203 134.8653388  85.8463626
  51.3273190 116.4416568  85.9803085  51.6332067 115.5813931  85.6929000
  52.0525795 117.0334188  85.7802079  37.6197546 126.8447255  84.3684683
  37.4221946 126.2516615  83.6435749  37.0644210 126.5399465  85.0860622
  45.5994270 126.7370361  86.4879276  45.6542880 125.7844197  86.4121753
  44.7885472 126.8929800  86.9720574  46.7485464 130.6650484  77.7257559
  46.3104894 129.9486343  77.2663197  47.4895904 130.8926599  77.1642651
  43.5386630 125.3547421  84.2469655  42.7254495 125.6541591  84.6534847
  44.0345624 124.9603110  84.9644137  45.6895208 135.3505178  86.1803920
  45.6471386 135.5766024  85.2512452  46.6057906 135.1168552  86.3289721
  49.1360841 125.8189245  93.0784549  49.4910229 126.0460718  93.9379015
  49.7832973 126.1507622  92.4561804  54.8658578 128.9407681  83.7833878
  54.7276477 129.1309277  82.8555067  54.5094797 129.7027064  84.2401929
  43.0300705 122.9265776  89.8630890  43.6700084 122.7854535  89.1653853
  42.1978235 122.6400290  89.4869492  54.8927958 131.0084208  88.7945149
  55.3264465 130.9159497  89.6428203  55.6059539 130.9841709  88.1565165
  43.8061008 132.2268207  85.9765882  44.6001607 131.7318527  85.7748457
  43.0952701 131.6986070  85.6133588  48.6255853 134.6086302  90.3278250
  48.6792875 135.1777239  91.0955966  47.7570634 134.7788187  89.9632287
  40.1143772 126.3711288  82.0525635  39.1841360 126.3095744  82.2695597
  40.2101244 125.8487241  81.2562276  40.0329321 122.8966101  84.6403877
  40.2936138 123.8111435  84.5313037  40.8546493 122.4290544  84.7900490
  41.5054246 124.3103858  91.8102701  42.1777300 124.1021221  91.1615350
  40.6784033 124.1125944  91.3707934  55.7543508 131.0507909  91.3278035
  55.9479398 131.9553719  91.5737310  55.6544126 130.5915328  92.1616620
  47.4079818 120.9365799  93.8268362  46.7607733 121.6355749  93.7332839
  48.1780834 121.3701943  94.1944610  50.8158616 131.2014652  96.9018915
  50.6644123 130.9725203  95.9848999  50.8063296 132.1585253  96.9150260
  47.5843953 128.7746564  91.8865182  48.5136013 128.9257724  91.7134149
  47.1634983 128.8630585  91.0313828  46.3832284 132.7997229  89.6563719
  46.2443370 132.4316013  90.5289658  45.5946881 133.3144868  89.4847677
  46.9780436 137.9006325  80.9989256  47.1532192 137.4294368  81.8134879
  46.2913224 138.5272091  81.2270517  47.9337500 132.1778831  87.0452557
  47.5987332 132.1379601  87.9410207  47.4341445 131.5123547  86.5722967
  41.9081744 127.5846461  92.5705138  41.7701541 126.8526700  93.1716677
  42.8186667 127.4955362  92.2889326  50.8696691 129.5234866  77.3189617
  50.2525862 128.7981694  77.2222670  50.4013180 130.2844226  76.9756691
  44.5364044 127.2966421  92.0588818  45.2463663 126.6559613  92.0175436
  44.4933352 127.5479316  92.9814999  52.5250823 134.2333774  94.9795397
  52.4663369 133.5492994  94.3125980  52.9270341 134.9752764  94.5276023
  43.2492978 124.2831639  93.8784458  42.7130335 123.8322377  94.5306054
  42.6609687 124.4177547  93.1354922  42.6595237 123.7420290  76.4410921
  41.7824703 123.6209091  76.0773168  43.1352990 122.9506368  76.1889810
  52.5268230 132.1973358  93.2109377  51.6395009 131.8599280  93.3335776
  53.0966781 131.4656389  93.4478142  34.1797377 128.5297450  86.5352428
  34.8668417 128.2159180  85.9473444  34.0245506 129.4338814  86.2619680
  38.9832099 123.4187646  90.9637452  38.8990288 122.8113316  90.2287862
  38.1614806 123.9096665  90.9646948  46.0569384 136.8574810  90.1770620
  45.9839555 137.6629782  90.6889925  45.6146777 137.0566776  89.3518642
  45.8459163 136.0946580  83.6873442  45.0626685 136.6368261  83.7811666
  46.5451908 136.6120560  84.0867683  49.1555813 121.9041210  86.3307647
  49.6524513 121.1511172  86.0108717  48.3842795 121.9405527  85.7650856
  57.0085571 127.6081575  87.9725939  56.9975447 128.4906291  87.6019872
  56.1402950 127.2553126  87.7780476  48.5168067 136.7561644  92.3328779
  49.2296039 137.3909109  92.2604680  48.0258096 136.8525510  91.5168781
  50.2385594 130.6612897  83.9046070  49.3041873 130.7814360  83.7350775
  50.4162262 129.7585364  83.6406080  45.7390782 124.0458593  86.0579332
  45.3688570 123.4929633  86.7460237  46.2349874 123.4416726  85.5054332
  53.6258145 126.5030216  84.4396105  54.0918598 127.3358208  84.3656407
  54.0765646 126.0375198  85.1441363  43.5679981 134.5056088  93.1534350
  44.2689440 135.1392571  93.3063744  43.0975096 134.8470819  92.3929989
  51.6934376 132.8474038  81.4382257  51.9694220 132.7330632  82.3476131
  50.8238875 132.4491523  81.3994430  51.5974808 118.8710803  88.4787006
  50.6837888 119.1015030  88.6469213  52.0267910 118.9549247  89.3301038
  51.3681267 127.0600695  90.9786900  50.7152717 127.3076603  90.3239353
  51.7461646 126.2464834  90.6449377  48.3288440 137.0960389  85.0815070
  48.5110835 136.2782044  85.5442823  49.1521426 137.3128081  84.6439960
  48.6630606 136.0228574  82.3430119  49.1918372 135.5121028  81.7300281
  48.9258826 135.7071104  83.2075652  47.4168840 127.8020506  97.4652937
  46.7409477 127.7014636  98.1355312  48.2396473 127.6459720  97.9288934
  39.1647699 134.0392443  90.0865452  39.7501135 133.2936131  90.2193356
  38.9672537 134.3496400  90.9702116  42.0186354 137.0743690  85.1027895
  41.3496729 137.5589818  84.6191935  41.8799224 137.3212911  86.0171273
  33.7565353 126.6098043  88.8069895  33.7949453 126.0761634  89.6007014
  33.2505646 126.0833249  88.1880873  46.1591622 139.1087434  91.7010553
  46.7109930 139.2719055  92.4659638  46.4997816 139.6991872  91.0290578
  41.1356116 121.4562584  92.3032438  41.1997442 122.3177415  91.8909835
  41.0723236 120.8436585  91.5704796  40.6108388 123.5285716  95.9505472
  41.2380427 123.1462793  96.5642996  39.7536307 123.3099918  96.3161164
  51.0102497 133.9348691  97.5559207  51.5542401 134.5478650  97.0614162
  50.4289342 134.4928270  98.0726220  37.3873931 125.3362145  81.8823827
  37.6827372 124.4272824  81.8290881  36.4861967 125.3149885  81.5604829
  49.2960010 137.0569409  88.6874235  49.1711149 136.2559149  88.1785181
  49.9539101 137.5515603  88.1988205  40.9168178 123.4118142  87.8651375
  40.1954764 124.0254110  87.7258849  41.7061434 123.9475907  87.7868021
  51.3594918 134.8578429  90.3153785  50.4125254 134.7383781  90.2432112
  51.7077691 133.9700927  90.3980047  43.7194491 120.7472568  94.1392027
  44.2428893 120.9934865  94.9018336  43.5006825 121.5792603  93.7195165
  39.1161773 123.0176243  82.0063152  38.7874479 122.1373622  81.8238258
  39.4701143 122.9623912  82.8939541  48.3641351 134.6531146  86.5158138
  48.2166314 133.7247853  86.6965708  49.1894845 134.6751236  86.0315213
  42.2303596 123.3049213  82.3738630  42.5699668 123.8335134  81.6517238
  42.6775716 123.6429619  83.1497196  51.9675473 135.4759704  87.6023010
  52.8922021 135.2702566  87.4647461  51.7990777 135.2276106  88.5112352
  44.9247037 121.6886263  91.8241698  44.5843857 120.8894077  92.2262378
  44.2186043 121.9887974  91.2518531  45.5763508 118.7735576  90.2769021
  46.3989578 118.2996054  90.1547911  45.8201572 119.5526060  90.7767707
  44.2171743 121.8023834  80.5731922  44.9380105 122.1805087  80.0695639
  43.5937047 122.5212711  80.6766900  48.3602866 122.5068983  81.5090255
  48.5766480 123.3893621  81.2079083  47.8796933 122.1155197  80.7795897
  43.1002087 125.4654697  88.0860999  42.9546668 125.7795000  88.9785281
  42.6227291 126.0839597  87.5331898  44.9598470 122.4557245  88.1341889
  44.9460039 121.5598338  87.7974187  45.6770898 122.4627908  88.7680175
  46.8124601 122.8894585  90.1795016  46.5542379 123.8111655  90.1779347
  46.2809641 122.4925019  90.8695480  51.7570789 135.9945372  82.9585102
  51.9307667 135.4291794  82.2058954  52.2499681 136.7946267  82.7764592
  37.5747749 128.0060041  91.0248661  37.0301217 128.7819849  91.1568935
  38.4527099 128.3530845  90.8667782  44.3635366 121.3371625  83.4029459
  44.4851277 120.4088271  83.6020347  44.0737408 121.3510311  82.4907774
  47.2326556 119.0226535  86.5396179  47.2548253 119.0865868  85.5848158
  47.6494615 118.1831044  86.7336685  57.6110181 128.7581795  84.5775401
  58.0541327 128.0089120  84.1794525  56.7336691 128.7491931  84.1949133
  52.7445962 135.3112136  80.0582000  53.4396867 135.9318829  80.2769315
  53.0869112 134.4607487  80.3334378  38.3613771 127.1329937  93.9178817
  37.6195507 127.2812573  94.5043448  38.0406515 127.3938203  93.0545567
  54.6437385 132.7611842  81.5869331  55.1688709 133.0999115  80.8618651
  54.5559738 131.8258857  81.4032465  46.3057434 136.6745915  93.7159207
  46.6144560 136.4295062  94.5881907  47.1032916 136.8792554  93.2278078
  46.3278046 138.8283825  85.9464584  45.8883036 138.3360204  86.6397441
  47.0786163 138.2856793  85.7056659  38.8070385 135.0195366  85.9489212
  39.6328405 134.7199138  85.5687856  38.4564437 134.2502988  86.3979001
  43.7751918 134.3721834  88.0186886  43.1531927 133.7092539  87.7189113
  44.4456785 134.3982966  87.3360533  37.0078990 132.9381692  86.9078146
  36.1710898 132.5103867  86.7262147  36.9802635 133.1314136  87.8448937
  43.8476445 122.8503622  97.6119392  43.8964601 123.7265745  97.2297161
  44.3898960 122.3081015  97.0391035  54.3331291 133.3944745  96.8920529
  53.5426835 133.3768884  96.3525028  54.0964646 133.9333039  97.6469565
  54.4529166 130.2437212  94.2053257  54.5027171 130.0787219  95.1468780
  54.3443090 129.3764471  93.8151138  43.3365425 132.9225757  81.4945346
  43.4853545 133.6061222  80.8412019  44.1431868 132.9030848  82.0094802
  51.7432929 126.2268140  95.5212564  52.6442791 126.0874605  95.2296562
  51.8180903 126.3922595  96.4610741  46.0775734 123.6034995  94.3665750
  45.2079043 123.8968561  94.0948339  46.3135214 124.1875440  95.0873014
  55.9547363 132.6634153  94.4495279  55.6632171 133.0264134  95.2858740
  55.3419494 131.9501162  94.2708611  57.1543045 130.2287033  86.9697849
  57.9889937 130.6676837  87.1335409  57.2902174 129.7525686  86.1506095
  54.2034551 127.7866768  92.9175337  54.6788673 127.9794414  92.1094188
  53.2800117 127.8425954  92.6718720  41.0918058 128.9490935  82.5006415
  40.8464100 128.0453265  82.6986625  41.2613972 128.9508086  81.5585893
  48.7814768 119.8214611  91.8831171  49.2996712 120.5575638  91.5577659
  48.4269901 120.1278605  92.7177930  40.3613705 124.6819293  79.9992577
  39.6682950 124.7563648  79.3432613  40.1165457 123.9179636  80.5214093
  49.0327362 116.2414894  87.4032067  49.3129116 115.5738083  88.0292494
  49.8177969 116.4343990  86.8906731  46.8360830 135.4173888  78.9657094
  46.2634797 136.0364075  78.5127565  47.4093624 135.9673250  79.4997016
  52.9036220 124.6632528  91.1503642  53.8553643 124.7630626  91.1715866
  52.7339671 123.8710797  91.6601727  50.9250600 121.7488111  91.3363043
  50.3300532 122.0293124  90.6409532  50.6400296 122.2382012  92.1079784
  50.0558090 135.7011038  80.0965676  50.9888763 135.6356600  80.2998551
  49.9681303 136.5367305  79.6380209  52.6846107 135.0176908  77.0569623
  52.6059738 134.6836772  77.9505381  53.5055774 135.5098676  77.0561096
  55.3824298 127.8838648  90.2645942  55.3500618 126.9454648  90.4505626
  55.9924922 127.9622684  89.5311767  47.2207629 126.7534701  76.3073146
  48.1666734 126.6240909  76.3761564  46.8421874 126.0149363  76.7842574
  55.5318787 124.6749691  90.3104225  55.0157835 123.8908148  90.1234154
  56.4158735 124.3468408  90.4750745  53.1929513 118.4190707  86.2700038
  52.9954335 118.1105795  87.1543370  53.8029219 119.1452346  86.3997968
  61.2000848 128.9454655  89.4051979  61.9304236 128.6839943  89.9659682
  60.5907793 128.2083376  89.4454047  59.2816145 127.0862517  90.0026430
  58.5549309 126.9518482  89.3942922  58.8663432 127.3939346  90.8083148
  47.1046321 130.8052447  97.7673803  48.0249331 130.9831046  97.9613850
  47.0695904 129.8608492  97.6153502  45.4050546 124.6784677  76.2428031
  44.4982001 124.3817790  76.3190745  45.6826527 124.3814495  75.3762318
  36.3228486 125.9991040  86.6927078  36.0031271 125.1456349  86.4001452
  35.7761915 126.2139619  87.4485045  40.1008394 128.7153481  90.4096584
  40.3194404 129.6470589  90.4284618  40.5134168 128.3561456  91.1951388
  47.0212612 119.2221567  82.3972273  46.2113340 118.8768652  82.7727519
  47.7097029 118.9129111  82.9859884  48.9503160 118.2999614  84.0196569
  49.5034199 118.7195067  84.6786592  49.1873246 117.3735362  84.0619525
  44.9736259 124.2886687  99.7999333  44.8732986 125.2381044  99.7311424
  44.7557801 123.9604926  98.9275403  44.1749331 121.5371612  76.3840011
  45.0368495 121.8626511  76.6435828  44.3599675 120.7503108  75.8713076
  36.1916746 129.6193952  88.6620199  35.4980218 129.2047905  88.1490154
  36.9389737 129.6614488  88.0653618  52.3281967 120.4100139  83.5275234
  51.7480636 121.0684943  83.1453286  52.0617900 119.5877483  83.1162651
  50.7785534 119.8105196  85.7296554  51.2785312 119.9221731  84.9210873
  51.4221141 119.5066249  86.3697362  44.8367529 127.7183826  98.6164395
  44.3534611 128.5184186  98.8228284  44.9228468 127.7291771  97.6631839
  38.1053489 129.5512206  86.5386214  38.0824177 129.6499893  85.5868097
  38.4154125 130.3977357  86.8603380  40.7640867 131.6088361  90.6532829
  41.7184120 131.5772303  90.5862760  40.5653390 131.1478985  91.4683054
  41.3540249 130.1789477  93.2203626  42.1733138 130.6733555  93.2438464
  41.6277057 129.2621445  93.1921194  51.1106845 122.5700229  82.5831582
  50.2232700 122.8549880  82.3651777  51.5260834 122.4093993  81.7358859
  54.4621381 122.5946750  86.2985921  55.2381771 123.0843203  86.5710538
  53.7369515 123.0204804  86.7557791  56.8993940 123.3074369  87.3559862
  57.4938431 123.0670105  86.6453170  56.9720524 122.5881500  87.9833398
  39.1191096 137.1507980  87.6703026  38.9845564 136.3908381  87.1041025
  38.7023158 137.8748880  87.2031815  50.2550059 132.3344904  76.6779602
  50.9585909 132.5394906  77.2937257  49.5312707 132.9021666  76.9428685
  51.0847869 128.0854765  82.7981872  51.0283070 128.5423316  81.9589504
  51.6376211 127.3245450  82.6204715  54.8952675 123.8744497  83.6231991
  54.6389609 123.4741133  84.4540199  54.2705543 124.5888291  83.4982131
  59.2065013 126.6140570  86.1303283  58.6464571 126.6833759  86.9034845
  58.6008516 126.4381555  85.4102779  42.2760222 138.0477297  87.8821469
  42.1592606 138.9922730  87.7800159  41.4552668 137.7450859  88.2707268
  52.1636756 132.7727433  78.7278062  52.9982360 132.3408631  78.5455537
  52.0021099 132.6009447  79.6554956  51.8182648 129.2759546  80.0934401
  51.7631452 129.1103818  79.1522845  51.1928703 129.9835579  80.2496591
  36.6075163 124.5127611  93.9195823  37.2534027 124.0026565  94.4083048
  36.3992314 125.2496292  94.4939249  49.1328555 131.5808458  99.4187964
  50.0019715 131.7549110  99.0574599  48.6535307 132.4002875  99.2963693
  45.1278774 118.7767655  79.6719719  45.1157444 119.7209495  79.8287990
  46.0202196 118.5937801  79.3779181  43.3014736 138.7005559  91.0977398
  44.2041982 138.7329169  91.4143892  43.0752106 137.7706010  91.1123733
  45.0568338 137.4536546  87.7587476  44.1063969 137.4538407  87.6451848
  45.3600824 136.7069280  87.2423511  48.9430893 115.3710432  83.9265656
  48.1763289 114.8168919  84.0722339  49.3541598 115.4432301  84.7879808
  40.9472654 121.6595228  98.0170838  41.8104116 121.3032033  98.2274162
  40.3738065 121.3209123  98.7046242  60.7921031 143.2897084  88.8233239
  61.4299441 143.1703831  88.1196579  60.6741874 144.2377928  88.8821191
  57.6010737 143.2424512  88.7594763  57.2629249 143.1265577  87.8715298
  58.4700506 142.8415677  88.7395769  53.4597553 145.0959989  84.7491654
  52.8962418 145.0049926  83.9807942  53.3449948 144.2759893  85.2294147
  58.0830520 144.3959364  94.7180969  58.0719161 144.0012162  93.8461472
  58.2451160 143.6625437  95.3114740  55.7293988 144.5573324  90.2561512
  56.3257561 144.3329347  89.5418475  55.7868960 143.8158070  90.8586960
  55.3019017 142.0112760  78.0911703  55.5544537 141.4894281  77.3295166
  54.3643576 141.8478905  78.1938387  60.3462300 141.0148538  85.8986447
  61.1325389 140.5967961  85.5476864  60.6101004 141.9194630  86.0668095
  60.5172377 146.4521388  80.5975103  59.8818210 146.5256015  81.3096008
  60.1869783 147.0414987  79.9194183  65.7470727 140.9523771  86.8019425
  66.4795899 140.3822988  87.0357255  64.9910082 140.5645372  87.2425931
  55.0215306 143.9140866  80.2936078  54.9051564 143.2385769  80.9617163
  55.1317565 143.4273239  79.4768231  57.3646846 143.3751013  83.9982768
  57.0005054 142.8481634  84.7095689  58.2213962 142.9849482  83.8249253
  63.2696147 134.6645345  91.2614034  62.9379472 135.5340756  91.0375249
  62.6741760 134.3481629  91.9408064  57.0052333 138.4040912  78.9944116
  57.1726736 139.2721149  79.3614587  56.8149503 138.5668194  78.0705405
  53.2140148 143.3171688  86.6946651  52.2890645 143.1847902  86.9024343
  53.4624561 144.0965907  87.1916593  63.1624810 139.3840431  88.3407384
  62.2541688 139.3155840  88.0466145  63.1112406 139.8612376  89.1689209
  56.9841554 140.8598570  79.9790783  56.8641180 141.3055621  80.8176263
  56.2894143 141.2083888  79.4204321  50.5748959 142.9604962  87.5290440
  50.7041340 143.2139441  88.4429852  49.8946410 143.5532670  87.2095095
  57.2365676 140.8030077  96.2842281  56.4599010 141.3623997  96.2745146
  57.8756239 141.2886860  96.8057151  65.0286457 137.5856870  90.1185258
  64.3860837 137.8789403  89.4725052  64.5241385 137.4709790  90.9238454
  62.6826620 141.3320043  80.8071117  63.5944477 141.5647430  80.6318814
  62.1736268 141.9157087  80.2446196  55.4912049 143.6115530  95.8460248
  56.2326733 144.1500574  95.5695072  54.7849034 144.2381819  96.0031800
  60.9667388 145.7544671  94.4432410  61.3750744 145.3127081  93.6987042
  60.2444650 145.1797298  94.6966602  57.3198458 140.6917278  91.8165966
  58.1659653 141.1156691  91.9600615  57.2597096 140.0350902  92.5104530
  61.2896203 146.3145861  88.1984698  60.6605065 146.4791576  87.4960766
  60.9021865 146.7287471  88.9695662  65.1685435 147.2500299  85.5529062
  64.4836473 147.6299201  85.0026095  65.2529284 147.8595626  86.2861010
  60.4697904 138.3521646  93.4747140  60.2258835 139.1063707  92.9381416
  60.7457834 138.7306994  94.3094387  62.4236366 144.8960258  92.1524406
  62.6353262 145.5392018  91.4758787  62.3766115 144.0622575  91.6846336
  60.0262595 137.5078079  89.0560978  59.1647074 137.8059333  89.3477715
  60.0525030 137.7248478  88.1242010  56.8424165 146.0520270  85.4634784
  57.3062510 146.3307973  84.6739406  56.5780963 145.1503714  85.2807874
  55.7793051 142.1743422  82.2724349  56.4817094 142.6264466  82.7398275
  55.4473679 141.5327241  82.9004242  54.2273412 140.7655179  96.6475558
  53.5972073 141.4471459  96.8810955  54.1209500 140.6538260  95.7028696
  49.5218385 140.4326975  87.5741482  48.7317439 140.6884503  87.0981593
  50.0129632 141.2475312  87.6793523  63.5382194 147.7732214  90.3246763
  64.3599638 147.3712401  90.0429445  63.5344597 147.6700448  91.2762879
  51.4733130 140.7971554  84.5324959  50.6764293 140.9090248  85.0508455
  51.2458722 141.1358206  83.6665849  47.8056088 140.6857465  90.0056473
  48.0564126 141.5704475  90.2714049  48.3415636 140.5062067  89.2331565
  71.6288187 144.1170962  86.6731735  70.8751896 143.5478360  86.5175739
  71.7635729 144.0833627  87.6202369  53.5054155 135.0675944  99.0100809
  53.1121101 134.5142143  99.6848453  54.3220295 135.3786523  99.4007327
  56.4222116 136.4833824  96.6021066  57.1631829 137.0840977  96.5225528
  56.6540039 135.7411461  96.0439108  51.5663454 141.6690191  94.8799295
  51.4516969 140.7675448  95.1806394  50.7107972 141.9153888  94.5284112
  60.3679279 132.5114926  90.8785347  60.0243548 133.4016568  90.8024458
  60.7358242 132.3216584  90.0154932  60.3329562 142.5023538  79.3857782
  59.8176185 143.2728142  79.6246170  60.0606870 141.8288674  80.0090844
  57.9176673 137.3473238  84.4443021  57.0618269 136.9580089  84.2648660
  58.3303624 137.4265199  83.5842806  59.4475819 134.8819582  88.8434581
  58.9440615 134.8449717  88.0302386  59.7406426 135.7912324  88.9031237
  55.6918705 134.9658311  87.8500762  56.5571702 134.7701120  87.4906652
  55.7596214 134.7368663  88.7770119  65.3063836 145.2555892  81.3210956
  64.5293279 144.9167052  80.8766118  65.9855317 145.2608515  80.6465921
  60.1215865 140.3750630  81.2117564  59.8166000 140.6896779  82.0627707
  61.0746307 140.4532050  81.2544897  63.5455143 144.7289873  87.9777564
  62.8878817 145.4189135  88.0657693  64.3495542 145.1186305  88.3211550
  53.2981024 137.1960519  85.2217129  53.8724776 136.9735701  84.4890322
  53.8852007 137.2649214  85.9745730  62.3560601 143.0834246  86.0281506
  62.8692483 143.7164238  86.5303215  63.0061825 142.4835442  85.6624866
  53.6250611 139.2264980  79.2413014  52.7887924 139.5639667  79.5622289
  53.4855381 139.0913960  78.3040151  55.6003692 134.0701768  83.9492199
  54.9468104 133.7550785  83.3248813  55.5584166 133.4477509  84.6752021
  56.7114897 144.3521063  75.8645491  55.8041959 144.1210317  76.0636640
  57.2085929 143.5558682  76.0519472  58.8341432 140.5583702  88.2739846
  57.9163994 140.7798649  88.1161534  59.2501576 140.6330012  87.4151554
  59.6176480 141.9575117  83.4042526  60.3648299 142.4696515  83.0949648
  59.8868070 141.6359170  84.2646920  57.8903130 144.4533658  80.3869481
  56.9814350 144.1692691  80.4841950  57.9198214 144.8732737  79.5272788
  62.0655317 138.9932234  85.3861316  61.3278074 138.4809620  85.7171558
  62.3182091 138.5532615  84.5744593  62.1666945 131.7708486  85.9803085
  62.4725821 130.9105849  85.6929000  62.8919549 132.3626106  85.7802079
  48.4591301 142.1739172  84.3684683  48.2615700 141.5808533  83.6435749
  47.9037965 141.8691382  85.0860622  56.4388024 142.0662279  86.4879276
  56.4936634 141.1136115  86.4121753  55.6279226 142.2221718  86.9720574
  57.5879218 145.9942402  77.7257559  57.1498648 145.2778261  77.2663197
  58.3289659 146.2218517  77.1642651  54.3780384 140.6839338  84.2469655
  53.5648250 140.9833509  84.6534847  54.8739378 140.2895027  84.9644137
  59.9754596 141.1481163  93.0784549  60.3303984 141.3752636  93.9379015
  60.6226727 141.4799540  92.4561804  65.7052333 144.2699599  83.7833878
  65.5670231 144.4601195  82.8555067  65.3488552 145.0318982  84.2401929
  53.8694459 138.2557694  89.8630890  54.5093838 138.1146453  89.1653853
  53.0371990 137.9692207  89.4869492  65.7321712 146.3376126  88.7945149
  66.1658219 146.2451415  89.6428203  66.4453293 146.3133626  88.1565165
  50.9537526 141.7003206  82.0525635  50.0235114 141.6387662  82.2695597
  51.0494998 141.1779159  81.2562276  50.8723075 138.2258019  84.6403877
  51.1329893 139.1403352  84.5313037  51.6940248 137.7582462  84.7900490
  52.3448001 139.6395776  91.8102701  53.0171054 139.4313138  91.1615350
  51.5177787 139.4417862  91.3707934  66.5937262 146.3799826  91.3278035
  66.7873152 147.2845637  91.5737310  66.4937880 145.9207246  92.1616620
  58.2473573 136.2657717  93.8268362  57.6001488 136.9647667  93.7332839
  59.0174588 136.6993861  94.1944610  61.6552371 146.5306569  96.9018915
  61.5037877 146.3017121  95.9848999  61.6457050 147.4877171  96.9150260
  58.4237707 144.1038482  91.8865182  59.3529767 144.2549642  91.7134149
  58.0028737 144.1922503  91.0313828  52.7475498 142.9138379  92.5705138
  52.6095296 142.1818618  93.1716677  53.6580421 142.8247279  92.2889326
  61.7090446 144.8526783  77.3189617  61.0919616 144.1273612  77.2222670
  61.2406934 145.6136144  76.9756691  55.3757799 142.6258338  92.0588818
  56.0857417 141.9851531  92.0175436  55.3327107 142.8771233  92.9814999
  54.0886733 139.6123556  93.8784458  53.5524090 139.1614295  94.5306054
  53.5003441 139.7469465  93.1354922  53.4988992 139.0712208  76.4410921
  52.6218458 138.9501009  76.0773168  53.9746745 138.2798286  76.1889810
  63.3661985 147.5265276  93.2109377  62.4788763 147.1891197  93.3335776
  63.9360536 146.7948307  93.4478142  49.8225854 138.7479564  90.9637452
  49.7384043 138.1405234  90.2287862  49.0008560 139.2388582  90.9646948
  59.9949568 137.2333128  86.3307647  60.4918267 136.4803090  86.0108717
  59.2236549 137.2697444  85.7650856  67.8479325 142.9373493  87.9725939
  67.8369201 143.8198209  87.6019872  66.9796705 142.5845044  87.7780476
  61.0779348 145.9904815  83.9046070  60.1435627 146.1106277  83.7350775
  61.2556017 145.0877282  83.6406080  56.5784537 139.3750511  86.0579332
  56.2082324 138.8221551  86.7460237  57.0743629 138.7708644  85.5054332
  64.4651900 141.8322134  84.4396105  64.9312352 142.6650126  84.3656407
  64.9159400 141.3667116  85.1441363  62.5328131 148.1765955  81.4382257
  62.8087975 148.0622550  82.3476131  61.6632630 147.7783440  81.3994430
  62.4368563 134.2002721  88.4787006  61.5231642 134.4306948  88.6469213
  62.8661664 134.2841165  89.3301038  62.2075021 142.3892613  90.9786900
  61.5546471 142.6368520  90.3239353  62.5855401 141.5756751  90.6449377
  58.2562594 143.1312424  97.4652937  57.5803231 143.0306553  98.1355312
  59.0790228 142.9751638  97.9288934  44.5959108 141.9389961  88.8069895
  44.6343207 141.4053552  89.6007014  44.0899401 141.4125166  88.1880873
  51.9749870 136.7854501  92.3032438  52.0391197 137.6469332  91.8909835
  51.9116990 136.1728503  91.5704796  51.4502143 138.8577634  95.9505472
  52.0774182 138.4754711  96.5642996  50.5930062 138.6391836  96.3161164
  48.2267685 140.6654063  81.8823827  48.5221127 139.7564741  81.8290881
  47.3255721 140.6441802  81.5604829  51.7561932 138.7410060  87.8651375
  51.0348518 139.3546027  87.7258849  52.5455188 139.2767824  87.7868021
  54.5588246 136.0764486  94.1392027  55.0822648 136.3226783  94.9018336
  54.3400579 136.9084521  93.7195165  49.9555527 138.3468161  82.0063152
  49.6268233 137.4665540  81.8238258  50.3094898 138.2915829  82.8939541
  53.0697350 138.6341130  82.3738630  53.4093423 139.1627052  81.6517238
  53.5169471 138.9721537  83.1497196  55.7640791 137.0178181  91.8241698
  55.4237611 136.2185994  92.2262378  55.0579797 137.3179892  91.2518531
  56.4157263 134.1027494  90.2769021  57.2383332 133.6287972  90.1547911
  56.6595326 134.8817977  90.7767707  55.0565497 137.1315752  80.5731922
  55.7773860 137.5097005  80.0695639  54.4330801 137.8504629  80.6766900
  59.1996620 137.8360901  81.5090255  59.4160235 138.7185539  81.2079083
  58.7190687 137.4447114  80.7795897  53.9395842 140.7946614  88.0860999
  53.7940422 141.1086917  88.9785281  53.4621045 141.4131515  87.5331898
  55.7992224 137.7849162  88.1341889  55.7853793 136.8890256  87.7974187
  56.5164653 137.7919826  88.7680175  57.6518355 138.2186502  90.1795016
  57.3936133 139.1403573  90.1779347  57.1203396 137.8216937  90.8695480
  55.2029120 136.6663542  83.4029459  55.3245032 135.7380189  83.6020347
  54.9131163 136.6802228  82.4907774  58.0720311 134.3518453  86.5396179
  58.0942008 134.4157786  85.5848158  58.4888370 133.5122962  86.7336685
  68.4503935 144.0873712  84.5775401  68.8935081 143.3381038  84.1794525
  67.5730445 144.0783849  84.1949133  49.2007526 142.4621855  93.9178817
  48.4589262 142.6104490  94.5043448  48.8800270 142.7230120  93.0545567
  65.4831140 148.0903759  81.5869331  66.0082464 148.4291032  80.8618651
  65.3953492 147.1550775  81.4032465  54.6870200 138.1795540  97.6119392
  54.7358355 139.0557663  97.2297161  55.2292714 137.6372933  97.0391035
  65.1725046 148.7236663  96.8920529  64.3820589 148.7060802  96.3525028
  64.9358400 149.2624957  97.6469565  65.2922921 145.5729129  94.2053257
  65.3420926 145.4079137  95.1468780  65.1836844 144.7056388  93.8151138
  62.5826683 141.5560057  95.5212564  63.4836546 141.4166522  95.2296562
  62.6574658 141.7214512  96.4610741  56.9169488 138.9326912  94.3665750
  56.0472798 139.2260478  94.0948339  57.1528969 139.5167357  95.0873014
  66.7941118 147.9926071  94.4495279  66.5025926 148.3556052  95.2858740
  66.1813249 147.2793079  94.2708611  67.9936800 145.5578951  86.9697849
  68.8283691 145.9968755  87.1335409  68.1295929 145.0817604  86.1506095
  65.0428306 143.1158686  92.9175337  65.5182427 143.3086332  92.1094188
  64.1193871 143.1717871  92.6718720  51.9311812 144.2782853  82.5006415
  51.6857854 143.3745183  82.6986625  52.1007727 144.2800003  81.5585893
  59.6208522 135.1506529  91.8831171  60.1390466 135.8867556  91.5577659
  59.2663655 135.4570522  92.7177930  51.2007460 140.0111210  79.9992577
  50.5076705 140.0855565  79.3432613  50.9559212 139.2471554  80.5214093
  59.8721116 131.5706812  87.4032067  60.1522870 130.9030001  88.0292494
  60.6571723 131.7635907  86.8906731  63.7429975 139.9924446  91.1503642
  64.6947398 140.0922543  91.1715866  63.5733425 139.2002714  91.6601727
  61.7644354 137.0780029  91.3363043  61.1694286 137.3585042  90.6409532
  61.4794051 137.5673930  92.1079784  66.2218053 143.2130565  90.2645942
  66.1894373 142.2746566  90.4505626  66.8318676 143.2914602  89.5311767
  58.0601383 142.0826618  76.3073146  59.0060488 141.9532826  76.3761564
  57.6815628 141.3441280  76.7842574  66.3712541 140.0041609  90.3104225
  65.8551590 139.2200065  90.1234154  67.2552490 139.6760325  90.4750745
  64.0323268 133.7482624  86.2700038  63.8348089 133.4397713  87.1543370
  64.6422974 134.4744263  86.3997968  72.0394602 144.2746572  89.4051979
  72.7697991 144.0131860  89.9659682  71.4301548 143.5375294  89.4454047
  70.1209900 142.4154435  90.0026430  69.3943063 142.2810400  89.3942922
  69.7057186 142.7231263  90.8083148  57.9440076 146.1344364  97.7673803
  58.8643085 146.3122963  97.9613850  57.9089659 145.1900410  97.6153502
  56.2444301 140.0076595  76.2428031  55.3375756 139.7109707  76.3190745
  56.5220282 139.7106413  75.3762318  47.1622241 141.3282958  86.6927078
  46.8425025 140.4748266  86.4001452  46.6155669 141.5431536  87.4485045
  57.8606366 134.5513484  82.3972273  57.0507095 134.2060569  82.7727519
  58.5490783 134.2421028  82.9859884  59.7896915 133.6291531  84.0196569
  60.3427953 134.0486985  84.6786592  60.0267001 132.7027279  84.0619525
  55.8130014 139.6178605  99.7999333  55.7126741 140.5672962  99.7311424
  55.5951556 139.2896844  98.9275403  55.0143085 136.8663530  76.3840011
  55.8762249 137.1918428  76.6435828  55.1993429 136.0795026  75.8713076
  63.1675722 135.7392056  83.5275234  62.5874391 136.3976860  83.1453286
  62.9011654 134.9169401  83.1162651  61.6179288 135.1397114  85.7296554
  62.1179066 135.2513649  84.9210873  62.2614896 134.8358167  86.3697362
  55.6761284 143.0475744  98.6164395  55.1928366 143.8476104  98.8228284
  55.7622223 143.0583689  97.6631839  61.9500600 137.8992147  82.5831582
  61.0626455 138.1841797  82.3651777  62.3654589 137.7385910  81.7358859
  65.3015136 137.9238668  86.2985921  66.0775526 138.4135120  86.5710538
  64.5763270 138.3496722  86.7557791  67.7387694 138.6366287  87.3559862
  68.3332185 138.3962023  86.6453170  67.8114278 137.9173418  87.9833398
  61.9241623 143.4146683  82.7981872  61.8676825 143.8715234  81.9589504
  62.4769966 142.6537367  82.6204715  65.7346429 139.2036415  83.6231991
  65.4783364 138.8033050  84.4540199  65.1099297 139.9180209  83.4982131
  70.0458767 141.9432488  86.1303283  69.4858325 142.0125677  86.9034845
  69.4402271 141.7673472  85.4102779  63.0030511 148.1019351  78.7278062
  63.8376114 147.6700549  78.5455537  62.8414853 147.9301364  79.6554956
  62.6576403 144.6051464  80.0934401  62.6025207 144.4395735  79.1522845
  62.0322458 145.3127497  80.2496591  47.4468918 139.8419528  93.9195823
  48.0927781 139.3318482  94.4083048  47.2386069 140.5788210  94.4939249
  55.9672528 134.1059573  79.6719719  55.9551198 135.0501413  79.8287990
  56.8595950 133.9229718  79.3779181  59.7824648 130.7002350  83.9265656
  59.0157043 130.1460836  84.0722339  60.1935353 130.7724218  84.7879808
  51.7866409 136.9887145  98.0170838  52.6497870 136.6323950  98.2274162
  51.2131819 136.6501040  98.7046242  74.1089902 149.9937263  91.2614034
  73.7773226 150.8632674  91.0375249  73.5135515 149.6773547  91.9408064
  71.2073033 147.8406844  90.8785347  70.8637303 148.7308486  90.8024458
  71.5751996 147.6508502  90.0154932  70.2869574 150.2111499  88.8434581
  69.7834369 150.1741634  88.0302386  70.5800181 151.1204242  88.9031237
  66.4397446 149.3993686  83.9492199  65.7861859 149.0842703  83.3248813
  66.3977921 148.7769426  84.6752021  73.0060699 147.1000403  85.9803085
  73.3119576 146.2397767  85.6929000  73.7313304 147.6918024  85.7802079
  73.2762317 149.5294639  88.4787006  72.3625397 149.7598866  88.6469213
  73.7055418 149.6133083  89.3301038  67.2551017 149.4319411  90.2769021
  68.0777087 148.9579889  90.1547911  67.4989081 150.2109895  90.7767707
  68.9114065 149.6810371  86.5396179  68.9335762 149.7449704  85.5848158
  69.3282124 148.8414879  86.7336685  70.4602277 150.4798447  91.8831171
  70.9784221 151.2159474  91.5577659  70.1057409 150.7862440  92.7177930
  70.7114871 146.8998729  87.4032067  70.9916625 146.2321918  88.0292494
  71.4965478 147.0927825  86.8906731  74.8717022 149.0774542  86.2700038
  74.6741844 148.7689630  87.1543370  75.4816728 149.8036181  86.3997968
  68.7000121 149.8805402  82.3972273  67.8900849 149.5352487  82.7727519
  69.3884538 149.5712946  82.9859884  70.6290669 148.9583449  84.0196569
  71.1821708 149.3778902  84.6786592  70.8660755 148.0319197  84.0619525
  74.0069476 151.0683974  83.5275234  73.4268145 151.7268778  83.1453286
  73.7405409 150.2461319  83.1162651  72.4573043 150.4689032  85.7296554
  72.9572821 150.5805566  84.9210873  73.1008650 150.1650085  86.3697362
  78.5781449 153.9658205  87.3559862  79.1725940 153.7253941  86.6453170
  78.6508033 153.2465335  87.9833398  70.6218402 146.0294267  83.9265656
  69.8550798 145.4752754  84.0722339  71.0329107 146.1016136  84.7879808
   6.5925662  29.1481579  73.3977041   5.8389370  28.5788977  73.2421046
   6.7273203  29.1144243  74.3447676   0.6959187  31.3686742  75.5190456
   1.1295693  31.2762031  76.3673510   1.4090767  31.3444243  74.8810472
   1.5574736  31.4110443  78.0523341   1.7510626  32.3156254  78.2982616
   1.4575355  30.9517862  78.8861926   2.8116799  27.9684110  74.6971245
   2.8006676  28.8508825  74.3265178   1.9434179  27.6155660  74.5025782
   3.4141409  29.1184329  71.3020708   3.8572555  28.3691654  70.9039831
   2.5367920  29.1094465  70.9194440   0.4468614  33.1214376  68.3114637
   0.9719938  33.4601649  67.5863957   0.3590966  32.1861391  68.1277772
   1.7578592  33.0236688  81.1740585   1.4663400  33.3866668  82.0104046
   1.1450723  32.3103696  80.9953917   2.9574274  30.5889567  73.6943156
   3.7921166  31.0279371  73.8580716   3.0933403  30.1128221  72.8751401
   1.1855527  28.2441182  76.9891249   1.1531847  27.3057183  77.1750932
   1.7956150  28.3225219  76.2557074   1.3350015  25.0352225  77.0349532
   0.8189064  24.2510682  76.8479461   2.2189964  24.7070942  77.1996051
   7.0032077  29.3057189  76.1297285   7.7335465  29.0442477  76.6904989
   6.3939022  28.5685911  76.1699353   5.0847374  27.4465051  76.7271737
   4.3580537  27.3121016  76.1188228   4.6694661  27.7541880  77.5328455
   2.7025169  23.6676904  74.0805168   3.2969660  23.4272640  73.3698476
   2.7751752  22.9484034  74.7078705   5.0096241  26.9743104  72.8548589
   4.4495799  27.0436294  73.6280152   4.4039745  26.7984089  72.1348086
   6.5952260  43.6499618  75.5478545   7.2330670  43.5306366  74.8441885
   6.4773103  44.5980462  75.6066497   3.4041966  43.6027046  75.4840070
   3.0660478  43.4868111  74.5960605   4.2731734  43.2018212  75.4641076
   3.8861749  44.7561898  81.4426275   3.8750390  44.3614696  80.5706779
   4.0482389  44.0227971  82.0360047   4.8428341  49.1233491  66.7851426
   4.1916320  49.7087571  66.3985440   5.6372703  49.6539685  66.8446463
   1.5325217  44.9175858  76.9806819   2.1288789  44.6931881  76.2663782
   1.5900189  44.1760604  77.5832267   6.1493528  41.3751072  72.6231753
   6.9356618  40.9570495  72.2722170   6.4132233  42.2797164  72.7913402
   6.3203606  46.8123922  67.3220410   5.6849439  46.8858549  68.0341315
   5.9901012  47.4017521  66.6439489  11.5501956  41.3126305  73.5264732
  12.2827128  40.7425522  73.7602561  10.7941311  40.9247906  73.9671237
   0.8246534  44.2743400  67.0181385   0.7082792  43.5988303  67.6862469
   0.9348794  43.7875774  66.2013538   3.1678075  43.7353547  70.7228074
   2.8036283  43.2084168  71.4340996   4.0245191  43.3452016  70.5494560
   9.0727376  35.0247879  77.9859340   8.7410701  35.8943290  77.7620555
   8.4772989  34.7084163  78.6653371   2.8083562  38.7643447  65.7189423
   2.9757965  39.6323683  66.0859894   2.6180731  38.9270728  64.7950712
   5.5658895  47.2260425  77.3855253   5.2659619  48.1285464  77.2771060
   5.2209955  46.9592609  78.2376406   8.9656039  39.7442966  75.0652690
   8.0572917  39.6758374  74.7711451   8.9143635  40.2214911  75.8934516
   2.7872783  41.2201104  66.7036090   2.6672408  41.6658155  67.5421570
   2.0925372  41.5686422  66.1449628   3.0396905  41.1632611  83.0087588
   2.2630239  41.7226531  82.9990452   3.6787468  41.6489394  83.5302458
  10.8317686  37.9459404  76.8430564  10.1892066  38.2391937  76.1970359
  10.3272614  37.8312324  77.6483761   8.4857849  41.6922577  67.5316424
   9.3975705  41.9249964  67.3564121   7.9767496  42.2759621  66.9691502
   1.2943277  43.9718065  82.5705555   2.0357962  44.5103109  82.2940378
   0.5880263  44.5984353  82.7277106   6.7698617  46.1147205  81.1677716
   7.1781973  45.6729616  80.4232349   6.0475878  45.5399833  81.4211909
   3.1229687  41.0519812  78.5411273   3.9690882  41.4759225  78.6845922
   3.0628325  40.3953436  79.2349836   7.0927432  46.6748396  74.9230005
   6.4636294  46.8394110  74.2206073   6.7053094  47.0890005  75.6940969
  10.9716664  47.6102834  72.2774369  10.2867702  47.9901735  71.7271402
  11.0560513  48.2198160  73.0106317   6.2729132  38.7124180  80.1992447
   6.0290064  39.4666241  79.6626722   6.5489063  39.0909528  81.0339694
   8.2267595  45.2562793  78.8769712   8.4384490  45.8994552  78.2004093
   8.1797343  44.4225109  78.4091642   5.8293824  37.8680613  75.7806284
   4.9678303  38.1661867  76.0723022   5.8556259  38.0851012  74.8487317
   2.6455393  46.4122804  72.1880090   3.1093739  46.6910507  71.3984713
   2.3812192  45.5106248  72.0053181   1.5824280  42.5345956  68.9969655
   2.2848323  42.9867000  69.4643582   1.2504908  41.8929775  69.6249548
   9.3413423  48.1334748  77.0492070  10.1630867  47.7314935  76.7674751
   9.3375826  48.0302982  78.0008185   3.1070026  47.6818791  79.2052780
   3.1714459  48.1439199  80.0410952   2.3980950  47.0516156  79.3335090
  17.4319416  44.4773496  73.3977041  16.6783124  43.9080895  73.2421046
  17.5666957  44.4436161  74.3447676   2.8218044  49.3486899  69.0731760
   2.6863719  50.1938435  69.5016608   3.3627857  49.5506176  68.3097694
   2.2253345  36.8436358  83.3266372   2.9663058  37.4443511  83.2470835
   2.4571268  36.1013996  82.7684415   4.4486521  49.9710465  83.2032103
   4.0050375  49.1846844  82.8853007   5.1103734  50.1589616  82.5375993
   6.5467759  50.2513265  81.2313504   6.5286234  51.0722146  80.7393773
   7.4687679  50.1267340  81.4563645   3.0040813  47.7657395  82.0737012
   3.5369150  47.0045683  81.8436320   2.4754894  47.4731047  82.8161167
   6.1710508  32.8717461  77.6030654   5.8274777  33.7619102  77.5269765
   6.5389470  32.6819118  76.7400239   6.1360790  42.8626072  66.1103089
   5.6207414  43.6330676  66.3491476   5.8638099  42.1891208  66.7336151
   3.7207901  37.7075773  71.1688327   2.8649498  37.3182623  70.9893966
   4.1334853  37.7867733  70.3088113   5.2507048  35.2422116  75.5679887
   4.7471844  35.2052251  74.7547692   5.5437655  36.1514859  75.6276544
   1.4949934  35.3260846  74.5746069   2.3602931  35.1303654  74.2151958
   1.5627443  35.0971197  75.5015426  11.1095065  45.6158426  68.0456263
  10.3324507  45.2769586  67.6011425  11.7886546  45.6211050  67.3711228
   5.9247094  40.7353164  67.9362870   5.6197229  41.0499313  68.7873013
   6.8777536  40.8134584  67.9790203   4.3693525  46.8943387  69.5855824
   3.8414887  46.1596147  69.2729062   3.8681028  47.6718064  69.3395793
   9.3486371  45.0892408  74.7022871   8.6910046  45.7791669  74.7902999
  10.1526771  45.4788840  75.0456857   8.1591830  43.4436780  72.7526812
   8.6723712  44.0766772  73.2548522   8.8093054  42.8437976  72.3870172
   1.4034921  34.4304302  70.6737505   0.7499333  34.1153320  70.0494120
   1.3615395  33.8080043  71.3997328   2.5146126  44.7123597  62.5890797
   1.6073187  44.4812851  62.7881946   3.0117158  43.9161217  62.7764779
   5.4214205  53.4221105  65.5087483   4.7475903  53.7252801  66.1172441
   5.8080026  54.2250185  65.1592940   4.6372661  40.9186236  74.9985153
   3.7195223  41.1401183  74.8406841   5.0532805  40.9932546  74.1396860
   5.4207709  42.3177652  70.1287833   6.1679528  42.8299049  69.8194955
   5.6899298  41.9961704  70.9892227   3.6934359  44.8136192  67.1114787
   2.7845578  44.5295225  67.2087257   3.7229443  45.2335271  66.2518094
   8.9253626  48.4242782  70.8805955   8.4715954  47.5833692  70.9371145
   8.2947593  49.0604180  71.2180735   7.8686546  39.3534768  72.1106622
   7.1309303  38.8412154  72.4416865   8.1213320  38.9135149  71.2989899
   7.3686566  50.2619279  71.8155773   7.6609540  50.8224336  71.0968139
   7.8785186  50.5547840  72.5708932   7.9698173  32.1311020  72.7048392
   8.2757050  31.2708383  72.4174307   8.6950778  32.7228640  72.5047386
   2.2419253  42.4264813  73.2124583   2.2967863  41.4738649  73.1367059
   1.4310455  42.5824252  73.6965881   3.3910447  46.3544936  64.4502866
   2.9529877  45.6380795  63.9908503   4.1320888  46.5821051  63.8887957
   2.3320191  51.0399630  72.9049226   2.2896370  51.2660476  71.9757758
   3.2482890  50.8063004  73.0535027   5.7785825  41.5083697  79.8029855
   6.1335212  41.7355170  80.6624321   6.4257956  41.8402074  79.1807111
  11.5083562  44.6302133  70.5079184  11.3701460  44.8203729  69.5800374
  11.1519780  45.3921516  70.9647236  11.5352941  46.6978660  75.5190456
  11.9689448  46.6053949  76.3673510  12.2484522  46.6736160  74.8810472
   5.2680836  50.2980754  77.0523557   5.3217858  50.8671690  77.8201273
   4.3995618  50.4682639  76.6877594  12.3968491  46.7402361  78.0523341
  12.5904381  47.6448171  78.2982616  12.2969109  46.2809780  78.8861926
   4.0504802  36.6260251  80.5513669   3.4032717  37.3250201  80.4578145
   4.8205817  37.0596395  80.9189917   7.4583600  46.8909103  83.6264222
   7.3069106  46.6619655  82.7094306   7.4488279  47.8479705  83.6395567
   4.2268936  44.4641016  78.6110488   5.1560996  44.6152176  78.4379456
   3.8059966  44.5525037  77.7559135   3.0257268  48.4891681  76.3809026
   2.8868353  48.1210465  77.2534964   2.2371864  49.0039320  76.2092984
   3.6205420  53.5900777  67.7234563   3.7957175  53.1188820  68.5380185
   2.9338208  54.2166543  67.9515823   4.5762483  47.8673283  73.7697864
   4.2412315  47.8274053  74.6655514   4.0766429  47.2017999  73.2968274
   7.5121674  45.2129318  64.0434924   6.8950845  44.4876146  63.9467976
   7.0438163  45.9738678  63.7001998   1.1789027  42.9860873  78.7834125
   1.8888646  42.3454065  78.7420743   1.1358336  43.2373767  79.7060305
   9.1675806  49.9228226  81.7040704   9.1088352  49.2387446  81.0371287
   9.5695325  50.6647216  81.2521330   9.1693213  47.8867810  79.9354684
   8.2819992  47.5493732  80.0581082   9.7391764  47.1550841  80.1723449
   2.6994367  52.5469262  76.9015927   2.6264538  53.3524234  77.4135231
   2.2571760  52.7461228  76.0763948   2.4884146  51.7841032  70.4118748
   1.7051668  52.3262712  70.5056973   3.1876892  52.3015012  70.8112989
   5.7980797  37.5935662  73.0552954   6.2949496  36.8405624  72.7354024
   5.0267778  37.6299978  72.4896163  13.6510554  43.2976027  74.6971245
  13.6400430  44.1800743  74.3265178  12.7827933  42.9447578  74.5025782
   5.1593050  52.4456096  79.0574085   5.8721023  53.0803561  78.9849987
   4.6683079  52.5419962  78.2414087   6.8810577  46.3507349  70.6291377
   5.9466856  46.4708811  70.4596081   7.0587246  45.4479816  70.3651387
   2.3815765  39.7353045  72.7824638   2.0113553  39.1824085  73.4705544
   2.8774858  39.1311178  72.2299638  10.2683129  42.1924668  71.1641411
  10.7343581  43.0252660  71.0901714  10.7190629  41.7269650  71.8686670
   8.3359360  48.5368490  68.1627563   8.6119204  48.4225084  69.0721437
   7.4663858  48.1385974  68.1239736   8.2399791  34.5605255  75.2032313
   7.3262871  34.7909482  75.3714519   8.6692893  34.6443699  76.0546345
   8.0106250  42.7495147  77.7032207   7.3577700  42.9971055  77.0484659
   8.3886630  41.9359285  77.3694684   4.9713424  52.7854840  71.8060377
   5.1535818  51.9676496  72.2688129   5.7946410  53.0022533  71.3685267
   5.3055589  51.7123026  69.0675425   5.8343356  51.2015480  68.4545587
   5.5683809  51.3965556  69.9320958   4.0593823  43.4914958  84.1898244
   3.3834460  43.3909088  84.8600619   4.8821457  43.3354172  84.6534241
   2.8016606  54.7981886  78.4255860   3.3534914  54.9613507  79.1904945
   3.1422799  55.3886324  77.7535885   7.6527480  49.6243143  84.2804514
   8.1967384  50.2373102  83.7859469   7.0714325  50.1822722  84.7971527
   5.9384993  52.7463861  75.4119542   5.8136132  51.9453601  74.9030487
   6.5964084  53.2410055  74.9233512   8.0019901  50.5472881  77.0399092
   7.0550237  50.4278233  76.9677419   8.3502675  49.6595379  77.1225353
   5.0066335  50.3425598  73.2403444   4.8591297  49.4142305  73.4211014
   5.8319828  50.3645688  72.7560519   8.6100457  51.1654156  74.3268317
   9.5347004  50.9597018  74.1892768   8.4415760  50.9170557  75.2357658
   1.5672020  37.3780715  78.5487004   1.2268840  36.5788528  78.9507684
   0.8611026  37.6782426  77.9763838   2.2188492  34.4630028  77.0014327
   3.0414561  33.9890506  76.8793218   2.4626555  35.2420512  77.5013014
   5.0027849  38.1963435  68.2335561   5.2191463  39.0788073  67.9324390
   4.5221916  37.8049649  67.5041203   1.6023453  38.1451696  74.8587196
   1.5885022  37.2492790  74.5219493   2.3195881  38.1522360  75.4925482
   3.4549584  38.5789037  76.9040323   3.1967362  39.5006107  76.9024653
   2.9234624  38.1819471  77.5940787   8.3995773  51.6839824  69.6830408
   8.5732650  51.1186246  68.9304261   8.8924664  52.4840719  69.5009898
   1.0060349  37.0266077  70.1274766   1.1276260  36.0982723  70.3265653
   0.7162392  37.0404763  69.2153081   3.8751540  34.7120987  73.2641486
   3.8973236  34.7760320  72.3093465   4.2919599  33.8725496  73.4581992
  14.2535164  44.4476247  71.3020708  14.6966310  43.6983572  70.9039831
  13.3761674  44.4386383  70.9194440   9.3870945  51.0006588  66.7827307
  10.0821850  51.6213281  67.0014621   9.7294095  50.1501939  67.0579685
  11.2862368  48.4506294  68.3114637  11.8113692  48.7893566  67.5863957
  11.1984721  47.5153309  68.1277772   2.9482417  52.3640367  80.4404514
   3.2569544  52.1189514  81.3127214   3.7457899  52.5687006  79.9523384
   2.9703029  54.5178277  72.6709891   2.5308019  54.0254656  73.3642747
   3.7211146  53.9751245  72.4301966   0.4901429  38.5398074  84.3364698
   0.5389584  39.4160197  83.9542468   1.0323943  37.9975467  83.7636341
  10.9756274  49.0839197  83.6165835  10.1851818  49.0663336  83.0770335
  10.7389629  49.6227491  84.3714872  11.0954149  45.9331664  80.9298564
  11.1452154  45.7681671  81.8714087  10.9868073  45.0658923  80.5396445
   8.3857912  41.9162592  82.2457871   9.2867775  41.7769057  81.9541868
   8.4605886  42.0817047  83.1856048   2.7200717  39.2929446  81.0911057
   1.8504027  39.5863013  80.8193645   2.9560198  39.8769891  81.8118321
  12.5972346  48.3528605  81.1740585  12.3057155  48.7158586  82.0104046
  11.9844478  47.6395613  80.9953917  13.7968029  45.9181485  73.6943156
  14.6314920  46.3571289  73.8580716  13.9327157  45.4420138  72.8751401
  10.8459535  43.4761220  79.6420643  11.3213656  43.6688866  78.8339495
   9.9225100  43.5320406  79.3964027   5.4239751  35.5109063  78.6076477
   5.9421695  36.2470090  78.2822966   5.0694884  35.8173057  79.4423236
   5.6752345  31.9309346  74.1277374   5.9554099  31.2632535  74.7537800
   6.4602952  32.1238442  73.6152038   3.4785814  51.1068340  65.6902400
   2.9059781  51.7258527  65.2372872   4.0518607  51.6567702  66.2242322
   9.5461204  40.3526980  77.8748949  10.4978626  40.4525078  77.8961173
   9.3764654  39.5605248  78.3847033   7.5675583  37.4382563  78.0608350
   6.9725515  37.7187576  77.3654839   7.2825280  37.9276464  78.8325091
   6.6983073  51.3905490  66.8210982   7.6313747  51.3251052  67.0243858
   6.6106286  52.2261757  66.3625515   9.3271090  50.7071360  63.7814930
   9.2484722  50.3731224  64.6750688  10.1480757  51.1993128  63.7806402
  12.0249281  43.5733100  76.9891249  11.9925601  42.6349100  77.1750932
  12.6349905  43.6517136  76.2557074   3.8632612  42.4429153  63.0318453
   4.8091717  42.3135361  63.1006871   3.4846857  41.7043814  63.5087881
  12.1743770  40.3644143  77.0349532  11.6582818  39.5802600  76.8479461
  13.0583718  40.0362860  77.1996051   9.8354497  34.1085159  72.9945345
   9.6379318  33.8000247  73.8788676  10.4454202  34.8346798  73.1243274
  17.8425831  44.6349106  76.1297285  18.5729220  44.3734395  76.6904989
  17.2332777  43.8977828  76.1699353  15.9241128  42.7756969  76.7271737
  15.1974292  42.6412934  76.1188228  15.5088415  43.0833798  77.5328455
   3.7471305  46.4946899  84.4919110   4.6674314  46.6725498  84.6859156
   3.7120888  45.5502944  84.3398809   2.0475529  40.3679129  62.9673338
   1.1406985  40.0712242  63.0436052   2.3251510  40.0708947  62.1007624
   3.6637595  34.9116019  69.1217579   2.8538323  34.5663104  69.4972825
   4.3522012  34.6023562  69.7105191   5.5928143  33.9894065  70.7441876
   6.1459182  34.4089519  71.4031899   5.8298230  33.0629814  70.7864832
   1.6161243  39.9781139  86.5244640   1.5157969  40.9275496  86.4556731
   1.3982785  39.6499378  85.6520710   0.8174314  37.2266064  63.1085317
   1.6793478  37.5520962  63.3681134   1.0024658  36.4397560  62.5958383
   8.9706950  36.0994591  70.2520540   8.3905620  36.7579395  69.8698593
   8.7042883  35.2771935  69.8407958   7.4210517  35.4999648  72.4541860
   7.9210295  35.6116183  71.6456179   8.0646125  35.1960701  73.0942669
   1.4792513  43.4078278  85.3409701   0.9959594  44.2078638  85.5473590
   1.5653452  43.4186223  84.3877145   7.7531828  38.2594681  69.3076888
   6.8657683  38.5444332  69.0897083   8.1685818  38.0988444  68.4604165
  11.1046365  38.2841202  73.0231228  11.8806755  38.7737654  73.2955844
  10.3794499  38.7099256  73.4803097  13.5418923  38.9968821  74.0805168
  14.1363414  38.7564557  73.3698476  13.6145507  38.2775952  74.7078705
   6.8975042  48.0239356  63.4024908   7.6010892  48.2289358  64.0182564
   6.1737691  48.5916118  63.6673992   7.7272852  43.7749217  69.5227179
   7.6708054  44.2317768  68.6834811   8.2801195  43.0139902  69.3450021
  11.5377658  39.5638949  70.3477298  11.2814592  39.1635584  71.1785506
  10.9130526  40.2782743  70.2227437  15.8489996  42.3035022  72.8548589
  15.2889554  42.3728211  73.6280152  15.2433499  42.1276007  72.1348086
   8.8061739  48.4621885  65.4523368   9.6407343  48.0303083  65.2700843
   8.6446082  48.2903899  66.3800263   8.4607632  44.9653998  66.8179708
   8.4056435  44.7998270  65.8768152   7.8353687  45.6730031  66.9741897
   5.7753539  47.2702910  86.1433271   6.6444698  47.4443562  85.7819905
   5.2960290  48.0897327  86.0209000   1.7703757  34.4662107  66.3965026
   1.7582427  35.4103947  66.5533297   2.6627179  34.2832253  66.1024487
   1.6993321  53.1430998  74.4832783   0.7488952  53.1432859  74.3697155
   2.0025807  52.3963732  73.9668817   5.5855876  31.0604884  70.6510963
   4.8188272  30.5063371  70.7967645   5.9966581  31.1326753  71.5125115
  17.4346014  58.9791536  75.5478545  18.0724424  58.8598283  74.8441885
  17.3166857  59.9272380  75.6066497  14.2435721  58.9318964  75.4840070
  13.9054232  58.8160029  74.5960605  15.1125489  58.5310129  75.4641076
  10.1022536  60.7854441  71.4736961   9.5387402  60.6944377  70.7053249
   9.9874931  59.9654345  71.9539453  14.7255504  60.0853816  81.4426275
  14.7144144  59.6906614  80.5706779  14.8876143  59.3519888  82.0360047
   7.6486968  62.2805632  74.3121181   8.4408260  61.9396457  73.8967481
   7.8883619  62.3900607  75.2323335  15.6822095  64.4525408  66.7851426
  15.0310075  65.0379489  66.3985440  16.4766458  64.9831603  66.8446463
   9.6077722  61.5414545  67.1838560  10.3808598  60.9943532  67.0451436
   9.9603121  62.4058795  67.3953021  11.4462765  62.8690928  80.3905459
  11.1552631  63.7736558  80.2752126  12.0819749  62.9107455  81.1049529
  12.3718972  60.2467776  76.9806819  12.9682544  60.0223799  76.2663782
  12.4293943  59.5052522  77.5832267  11.9444000  57.7007211  64.8157010
  12.1969521  57.1788733  64.0540473  11.0068559  57.5373357  64.9183694
  16.9887283  56.7042990  72.6231753  17.7750372  56.2862413  72.2722170
  17.2525987  57.6089082  72.7913402  17.1597360  62.1415840  67.3220410
  16.5243193  62.2150467  68.0341315  16.8294767  62.7309439  66.6439489
  22.3895710  56.6418223  73.5264732  23.1220882  56.0717440  73.7602561
  21.6335066  56.2539824  73.9671237  11.6640289  59.6035317  67.0181385
  11.5476547  58.9280221  67.6862469  11.7742549  59.1167691  66.2013538
  14.0071830  59.0645465  70.7228074  13.6430037  58.5376086  71.4340996
  14.8638946  58.6743934  70.5494560  19.9121130  50.3539797  77.9859340
  19.5804455  51.2235208  77.7620555  19.3166744  50.0376081  78.6653371
  13.6477317  54.0935364  65.7189423  13.8151719  54.9615601  66.0859894
  13.4574486  54.2562646  64.7950712  16.4052650  62.5552343  77.3855253
  16.1053373  63.4577382  77.2771060  16.0603709  62.2884526  78.2376406
   9.8565131  59.0066140  73.4191957   8.9315628  58.8742354  73.6269649
  10.1049545  59.7860359  73.9161900  19.8049794  55.0734883  75.0652690
  18.8966671  55.0050292  74.7711451  19.7537390  55.5506828  75.8934516
  13.6266538  56.5493022  66.7036090  13.5066163  56.9950073  67.5421570
  12.9319126  56.8978339  66.1449628   7.2173942  58.6499414  74.2535747
   7.3466324  58.9033892  75.1675158   6.5371394  59.2427122  73.9340402
  11.3873430  69.3196664  70.3526221  11.3097459  70.2704489  70.4314701
  10.7835073  68.9742536  71.0101147  13.8790659  56.4924529  83.0087588
  13.1023994  57.0518449  82.9990452  14.5181223  56.9781312  83.5302458
  21.6711440  53.2751322  76.8430564  21.0285820  53.5683855  76.1970359
  21.1666369  53.1604242  77.6483761  19.3251604  57.0214495  67.5316424
  20.2369460  57.2541882  67.3564121  18.8161251  57.6051539  66.9691502
  12.1337032  59.3009982  82.5705555  12.8751716  59.8395026  82.2940378
  11.4274017  59.9276271  82.7277106  17.6092371  61.4439123  81.1677716
  18.0175727  61.0021533  80.4232349  16.8869633  60.8691750  81.4211909
  13.9623441  56.3811730  78.5411273  14.8084637  56.8051143  78.6845922
  13.9022079  55.7245354  79.2349836  17.9321186  62.0040313  74.9230005
  17.3030049  62.1686028  74.2206073  17.5446848  62.4181923  75.6940969
  21.8110418  62.9394751  72.2774369  21.1261456  63.3193653  71.7271402
  21.8954267  63.5490078  73.0106317  17.1122887  54.0416098  80.1992447
  16.8683819  54.7958158  79.6626722  17.3882817  54.4201445  81.0339694
  19.0661350  60.5854710  78.8769712  19.2778245  61.2286470  78.2004093
  19.0191098  59.7517027  78.4091642  16.6687579  53.1972531  75.7806284
  15.8072058  53.4953784  76.0723022  16.6950013  53.4142930  74.8487317
  13.4849148  61.7414721  72.1880090  13.9487494  62.0202424  71.3984713
  13.2205946  60.8398166  72.0053181  10.3773229  61.2886203  75.1259853
  10.9474586  61.7173471  74.4877338  10.9681341  61.0068788  75.8244039
  12.4218034  57.8637874  68.9969655  13.1242077  58.3158918  69.4643582
  12.0898663  57.2221693  69.6249548  10.8698396  56.4549630  83.3720865
  10.2397056  57.1365911  83.6056261  10.7634483  56.3432712  82.4274003
   6.1643368  56.1221426  74.2986789   5.3742422  56.3778955  73.8226899
   6.6554615  56.9369764  74.4038829  20.1807178  63.4626666  77.0492070
  21.0024621  63.0606853  76.7674751  20.1769580  63.3594900  78.0008185
   8.1158113  56.4866006  71.2570266   7.3189277  56.5984700  71.7753761
   7.8883706  56.8252658  70.3911156  13.9463781  63.0110709  79.2052780
  14.0108214  63.4731116  80.0410952  13.2374705  62.3808074  79.3335090
   4.4481071  56.3751917  76.7301780   4.6989109  57.2598927  76.9959356
   4.9840619  56.1956518  75.9576871  13.6611799  64.6778816  69.0731760
  13.5257473  65.5230352  69.5016608  14.2021611  64.8798094  68.3097694
  10.1479138  50.7570396  85.7346116   9.7546084  50.2036595  86.4093760
  10.9645279  51.0680975  86.1252633   7.1141196  62.1954254  69.6459686
   7.6265717  62.9897505  69.7965250   7.7663909  61.4980545  69.5793287
   8.9236081  65.3120011  71.7282439   9.1002709  66.2337975  71.5403423
   9.7192914  64.9978430  72.1576819  13.0647099  52.1728275  83.3266372
  13.8056813  52.7735429  83.2470835  13.2965022  51.4305913  82.7684415
   8.2088437  57.3584643  81.6044602   8.0941952  56.4569900  81.9051701
   7.3532955  57.6048339  81.2529418  15.2880275  65.3002383  83.2032103
  14.8444129  64.5138762  82.8853007  15.9497489  65.4881533  82.5375993
  10.0467396  66.8298185  77.7292781  10.5974821  66.7015248  76.9569775
   9.2078872  67.1293074  77.3787674  17.3861513  65.5805183  81.2313504
  17.3679988  66.4014064  80.7393773  18.3081433  65.4559258  81.4563645
  13.8434567  63.0949312  82.0737012  14.3762904  62.3337601  81.8436320
  13.3148648  62.8022964  82.8161167  17.0104262  48.2009378  77.6030654
  16.6668532  49.0911020  77.5269765  17.3783225  48.0111036  76.7400239
   5.0790113  60.5242909  70.4219256   5.9165335  60.9339917  70.2052964
   5.2568381  59.5842351  70.3919450  16.9754545  58.1917989  66.1103089
  16.4601168  58.9622594  66.3491476  16.7031853  57.5183126  66.7336151
  14.5601656  53.0367690  71.1688327  13.7043252  52.6474541  70.9893966
  14.9728608  53.1159651  70.3088113  16.0900803  50.5714034  75.5679887
  15.5865598  50.5344169  74.7547692  16.3831409  51.4806776  75.6276544
  12.3343688  50.6552763  74.5746069  13.1996685  50.4595572  74.2151958
  12.4021197  50.4263115  75.5015426  21.9488819  60.9450344  68.0456263
  21.1718262  60.6061504  67.6011425  22.6280300  60.9502967  67.3711228
  16.7640848  56.0645082  67.9362870  16.4590984  56.3791231  68.7873013
  17.7171290  56.1426501  67.9790203  15.2087280  62.2235305  69.5855824
  14.6808642  61.4888064  69.2729062  14.7074783  63.0009981  69.3395793
  20.1880126  60.4184325  74.7022871  19.5303800  61.1083587  74.7902999
  20.9920525  60.8080757  75.0456857   9.9406008  52.8854971  71.9462436
  10.5149759  52.6630153  71.2135629  10.5276990  52.9543666  72.6991037
  18.9985585  58.7728698  72.7526812  19.5117467  59.4058690  73.2548522
  19.6486809  58.1729894  72.3870172  10.2675595  54.9159432  65.9658321
   9.4312907  55.2534119  66.2867596  10.1280364  54.7808412  65.0285458
  12.2428675  49.7596220  70.6737505  11.5893088  49.4445237  70.0494120
  12.2009149  49.1371961  71.3997328  13.3539880  60.0415515  62.5890797
  12.4466942  59.8104769  62.7881946  13.8510912  59.2453134  62.7764779
  16.2607959  68.7513022  65.5087483  15.5869658  69.0544719  66.1172441
  16.6473781  69.5542103  65.1592940  15.4766416  56.2478154  74.9985153
  14.5588977  56.4693101  74.8406841  15.8926559  56.3224464  74.1396860
  16.2601463  57.6469569  70.1287833  17.0073282  58.1590966  69.8194955
  16.5293053  57.3253622  70.9892227  14.5328114  60.1428110  67.1114787
  13.6239333  59.8587143  67.2087257  14.5623197  60.5627189  66.2518094
  19.7647381  63.7534699  70.8805955  19.3109708  62.9125609  70.9371145
  19.1341348  64.3896098  71.2180735  18.7080301  54.6826686  72.1106622
  17.9703057  54.1704072  72.4416865  18.9607074  54.2427067  71.2989899
  18.2080320  65.5911196  71.8155773  18.5003295  66.1516253  71.0968139
  18.7178941  65.8839757  72.5708932  18.8091928  47.4602938  72.7048392
  19.1150805  46.6000301  72.4174307  19.5344533  48.0520558  72.5047386
   5.1016284  57.8633624  71.0929990   4.9040684  57.2702985  70.3681056
   4.5462948  57.5585834  71.8105928  13.0813008  57.7556731  73.2124583
  13.1361617  56.8030567  73.1367059  12.2704210  57.9116170  73.6965881
  14.2304201  61.6836854  64.4502866  13.7923631  60.9672713  63.9908503
  14.9714642  61.9112968  63.8887957  11.0205368  56.3733790  70.9714962
  10.2073233  56.6727961  71.3780154  11.5164362  55.9789479  71.6889444
  13.1713945  66.3691547  72.9049226  13.1290124  66.5952394  71.9757758
  14.0876644  66.1354922  73.0535027  16.6179579  56.8375615  79.8029855
  16.9728967  57.0647088  80.6624321  17.2651710  57.1693992  79.1807111
  22.3477316  59.9594051  70.5079184  22.2095215  60.1495647  69.5800374
  21.9913535  60.7213434  70.9647236  10.5119442  53.9452146  76.5876197
  11.1518822  53.8040905  75.8899160   9.6796973  53.6586659  76.2114799
  22.3746696  62.0270578  75.5190456  22.8083202  61.9345867  76.3673510
  23.0878276  62.0028078  74.8810472  11.2879746  63.2454576  72.7011189
  12.0820345  62.7504896  72.4993764  10.5771439  62.7172439  72.3378895
  16.1074591  65.6272672  77.0523557  16.1611613  66.1963608  77.8201273
  15.2389372  65.7974557  76.6877594   7.5962510  57.3897658  68.7770942
   6.6660098  57.3282114  68.9940904   7.6919982  56.8673611  67.9807583
   7.5148059  53.9152471  71.3649183   7.7754876  54.8297804  71.2558344
   8.3365231  53.4476913  71.5145796   8.9872984  55.3290228  78.5348008
   9.6596037  55.1207590  77.8860657   8.1602771  55.1312314  78.0953240
  14.8898556  51.9552169  80.5513669  14.2426471  52.6542119  80.4578145
  15.6599571  52.3888313  80.9189917  18.2977354  62.2201021  83.6264222
  18.1462860  61.9911573  82.7094306  18.2882033  63.1771623  83.6395567
  15.0662690  59.7932934  78.6110488  15.9954750  59.9444093  78.4379456
  14.6453720  59.8816955  77.7559135  13.8651022  63.8183598  76.3809026
  13.7262108  63.4502383  77.2534964  13.0765618  64.3331238  76.2092984
  14.4599174  68.9192695  67.7234563  14.6350930  68.4480738  68.5380185
  13.7731962  69.5458461  67.9515823  15.4156237  63.1965201  73.7697864
  15.0806070  63.1565971  74.6655514  14.9160183  62.5309917  73.2968274
   9.3900481  58.6032831  79.2950445   9.2520279  57.8713070  79.8961984
  10.3005405  58.5141731  79.0134633  18.3515429  60.5421235  64.0434924
  17.7344600  59.8168063  63.9467976  17.8831917  61.3030596  63.7001998
  12.0182782  58.3152790  78.7834125  12.7282400  57.6745983  78.7420743
  11.9752090  58.5665685  79.7060305  20.0069561  65.2520144  81.7040704
  19.9482107  64.5679364  81.0371287  20.4089079  65.9939134  81.2521330
  10.7311716  55.3018008  80.6029764  10.1949073  54.8508747  81.2551360
  10.1428424  55.4363917  79.8600228   9.0260259  72.0682058  74.4974423
   9.2656858  72.7000582  75.1753441   8.1829456  71.7170098  74.7839782
  10.1413975  54.7606660  63.1656228   9.2643441  54.6395460  62.8018474
  10.6171728  53.9692738  62.9135116  20.0086968  63.2159728  79.9354684
  19.1213747  62.8785649  80.0581082  20.5785519  62.4842759  80.1723449
   1.6616115  59.5483819  73.2597735   2.3487155  59.2345549  72.6718750
   1.5064244  60.4525184  72.9864986   6.4650837  54.4374016  77.6882759
   6.3809026  53.8299685  76.9533169   5.6433544  54.9283034  77.6892255
  13.5388121  67.8761180  76.9015927  13.4658293  68.6816151  77.4135231
  13.0965514  68.0753146  76.0763948  13.3277901  67.1132950  70.4118748
  12.5445423  67.6554630  70.5056973  14.0270646  67.6306930  70.8112989
  16.6374551  52.9227579  73.0552954  17.1343251  52.1697542  72.7354024
  15.8661533  52.9591896  72.4896163  24.4904308  58.6267945  74.6971245
  24.4794185  59.5092660  74.3265178  23.6221688  58.2739496  74.5025782
  15.9986805  67.7748014  79.0574085  16.7114777  68.4095479  78.9849987
  15.5076833  67.8711880  78.2414087  17.7204332  61.6799267  70.6291377
  16.7860610  61.8000729  70.4596081  17.8981000  60.7771733  70.3651387
  13.2209520  55.0644962  72.7824638  12.8507307  54.5116003  73.4705544
  13.7168612  54.4603096  72.2299638  21.1076883  57.5216586  71.1641411
  21.5737335  58.3544578  71.0901714  21.5584384  57.0561568  71.8686670
  11.0498718  65.5242457  79.8779656  11.7508178  66.1578940  80.0309050
  10.5793833  65.8657189  79.1175296  19.1753114  63.8660407  68.1627563
  19.4512958  63.7517002  69.0721437  18.3057613  63.4677892  68.1239736
  19.0793546  49.8897173  75.2032313  18.1656626  50.1201400  75.3714519
  19.5086647  49.9735617  76.0546345  18.8500004  58.0787065  77.7032207
  18.1971455  58.3262972  77.0484659  19.2280384  57.2651203  77.3694684
  15.8107178  68.1146758  71.8060377  15.9929573  67.2968414  72.2688129
  16.6340164  68.3314450  71.3685267  16.1449344  67.0414943  69.0675425
  16.6737110  66.5307398  68.4545587  16.4077563  66.7257473  69.9320958
  14.8987577  58.8206876  84.1898244  14.2228214  58.7201005  84.8600619
  15.7215211  58.6646090  84.6534241   6.6466436  65.0578812  76.8110759
   7.2319873  64.3122500  76.9438663   6.4491275  65.3682769  77.6947423
   9.5005092  68.0930060  71.8273201   8.8315467  68.5776188  71.3437241
   9.3617961  68.3399280  72.7416580   1.2384091  57.6284413  75.5315202
   1.2768191  57.0948003  76.3252320   0.7324384  57.1019618  74.9126179
  13.6410360  70.1273803  78.4255860  14.1928668  70.2905425  79.1904945
  13.9816554  70.7178241  77.7535885   8.6174853  52.4748953  79.0277744
   8.6816180  53.3363784  78.6155142   8.5541974  51.8622955  78.2950103
   8.0927126  54.5472086  82.6750779   8.7199165  54.1649163  83.2888303
   7.2355045  54.3286288  83.0406471  18.4921235  64.9535061  84.2804514
  19.0361139  65.5665019  83.7859469  17.9108079  65.5114639  84.7971527
   4.8692669  56.3548515  68.6069133   5.1646110  55.4459193  68.5536187
   3.9680705  56.3336254  68.2850136  16.7778748  68.0755779  75.4119542
  16.6529887  67.2745519  74.9030487  17.4357839  68.5701972  74.9233512
   8.3986916  54.4304511  74.5896682   7.6773501  55.0440479  74.4504155
   9.1880172  54.9662276  74.5113328  18.8413656  65.8764799  77.0399092
  17.8943991  65.7570150  76.9677419  19.1896429  64.9887297  77.1225353
  11.2013229  51.7658938  80.8637334  11.7247631  52.0121234  81.6263643
  10.9825563  52.5978973  80.4440471   6.5980510  54.0362613  68.7308459
   6.2693216  53.1559991  68.5483565   6.9519881  53.9810281  69.6184848
  15.8460089  65.6717515  73.2403444  15.6985052  64.7434223  73.4211014
  16.6713583  65.6937606  72.7560519   9.7122333  54.3235582  69.0983936
  10.0518406  54.8521504  68.3762545  10.1594454  54.6615988  69.8742503
  19.4494211  66.4946074  74.3268317  20.3740759  66.2888935  74.1892768
  19.2809514  66.2462475  75.2357658  12.4065774  52.7072633  78.5487004
  12.0662595  51.9080446  78.9507684  11.7004781  53.0074344  77.9763838
  13.0582246  49.7921945  77.0014327  13.8808315  49.3182424  76.8793218
  13.3020310  50.5712429  77.5013014  11.6990481  52.8210204  67.2977229
  12.4198843  53.1991457  66.7940946  11.0755785  53.5399081  67.4012207
  15.8421604  53.5255353  68.2335561  16.0585218  54.4079991  67.9324390
  15.3615671  53.1341566  67.5041203  10.5820825  56.4841066  74.8106306
  10.4365406  56.7981369  75.7030587  10.1046029  57.1025966  74.2577205
  12.4417208  53.4743614  74.8587196  12.4278777  52.5784707  74.5219493
  13.1589636  53.4814278  75.4925482  14.2943338  53.9080954  76.9040323
  14.0361116  54.8298025  76.9024653  13.7628379  53.5111389  77.5940787
  19.2389527  67.0131741  69.6830408  19.4126405  66.4478164  68.9304261
  19.7318418  67.8132636  69.5009898   5.0566487  59.0246410  77.7493967
   4.5119955  59.8006218  77.8814241   5.9345837  59.3717215  77.5913089
  11.8454104  52.3557994  70.1274766  11.9670015  51.4274641  70.3265653
  11.5556146  52.3696680  69.2153081  14.7145294  50.0412905  73.2641486
  14.7366991  50.1052238  72.3093465  15.1313353  49.2017413  73.4581992
  25.0928918  59.7768164  71.3020708  25.5360064  59.0275490  70.9039831
  24.2155429  59.7678301  70.9194440  20.2264700  66.3298506  66.7827307
  20.9215604  66.9505198  67.0014621  20.5687850  65.4793857  67.0579685
   5.8432509  58.1516307  80.6424124   5.1014245  58.2998942  81.2288754
   5.5225253  58.4124572  79.7790873  22.1256123  63.7798211  68.3114637
  22.6507447  64.1185484  67.5863957  22.0378475  62.8445227  68.1277772
  13.7876172  67.6932285  80.4404514  14.0963298  67.4481432  81.3127214
  14.5851654  67.8978923  79.9523384  13.8096784  69.8470195  72.6709891
  13.3701774  69.3546573  73.3642747  14.5604901  69.3043162  72.4301966
   6.2889123  66.0381735  72.6734519   7.1147142  65.7385507  72.2933162
   5.9383175  65.2689358  73.1224307  11.2570656  65.3908204  74.7432192
  10.6350665  64.7278909  74.4434420  11.9275523  65.4169336  74.0605840
   4.4897728  63.9568062  73.6323452   3.6529636  63.5290236  73.4507454
   4.4621373  64.1500505  74.5694243  11.3295183  53.8689992  84.3364698
  11.3783339  54.7452115  83.9542468  11.8717697  53.3267385  83.7636341
  21.9347904  61.2623581  80.9298564  21.9845909  61.0973589  81.8714087
  21.8261827  60.3950840  80.5396445  10.8184163  63.9412127  68.2190653
  10.9672283  64.6247591  67.5657326  11.6250606  63.9217217  68.7340109
  19.2251666  57.2454509  82.2457871  20.1261529  57.1060974  81.9541868
  19.2999641  57.4108964  83.1856048  13.5594472  54.6221364  81.0911057
  12.6897781  54.9154930  80.8193645  13.7953952  55.2061809  81.8118321
  23.4366101  63.6820523  81.1740585  23.1450909  64.0450503  82.0104046
  22.8238232  62.9687531  80.9953917  24.6361783  61.2473403  73.6943156
  25.4708675  61.6863207  73.8580716  24.7720912  60.7712056  72.8751401
  21.6853289  58.8053137  79.6420643  22.1607411  58.9980784  78.8339495
  20.7618854  58.8612323  79.3964027   8.5736796  59.9677305  69.2251722
   8.3282838  59.0639635  69.4231932   8.7432710  59.9694455  68.2831200
  16.2633506  50.8400981  78.6076477  16.7815449  51.5762008  78.2822966
  15.9088638  51.1464974  79.4423236   7.8432443  55.7005662  66.7237883
   7.1501688  55.7750017  66.0677919   7.5984195  54.9366006  67.2459400
  16.5146100  47.2601264  74.1277374  16.7947853  46.5924453  74.7537800
  17.2996707  47.4530359  73.6152038  14.3179568  66.4360257  65.6902400
  13.7453535  67.0550445  65.2372872  14.8912362  66.9859619  66.2242322
  20.3854958  55.6818898  77.8748949  21.3372381  55.7816995  77.8961173
  20.2158408  54.8897166  78.3847033  18.4069338  52.7674481  78.0608350
  17.8119270  53.0479494  77.3654839  18.1219034  53.2568382  78.8325091
  17.5376828  66.7197408  66.8210982  18.4707501  66.6542969  67.0243858
  17.4500041  67.5553674  66.3625515  20.1664845  66.0363278  63.7814930
  20.0878476  65.7023142  64.6750688  20.9874511  66.5285046  63.7806402
  22.8643036  58.9025017  76.9891249  22.8319356  57.9641018  77.1750932
  23.4743659  58.9809054  76.2557074  14.7026367  57.7721070  63.0318453
  15.6485471  57.6427278  63.1006871  14.3240612  57.0335732  63.5087881
  23.0137524  55.6936061  77.0349532  22.4976573  54.9094517  76.8479461
  23.8977473  55.3654777  77.1996051  20.6748251  49.4377076  72.9945345
  20.4773072  49.1292164  73.8788676  21.2847957  50.1638715  73.1243274
  14.5865059  61.8238816  84.4919110  15.5068069  62.0017415  84.6859156
  14.5514642  60.8794862  84.3398809  12.8869284  55.6971047  62.9673338
  11.9800739  55.4004159  63.0436052  13.1645265  55.4000865  62.1007624
   3.8047224  57.0177410  73.4172384   3.4850009  56.1642718  73.1246758
   3.2580652  57.2325988  74.1730352   7.5827132  59.7339851  77.1341891
   7.8013142  60.6656959  77.1529925   7.9952906  59.3747825  77.9196695
  14.5031350  50.2407936  69.1217579  13.6932078  49.8955021  69.4972825
  15.1915766  49.9315480  69.7105191  16.4321898  49.3185983  70.7441876
  16.9852936  49.7381437  71.4031899  16.6691984  48.3921731  70.7864832
  12.4554997  55.3073057  86.5244640  12.3551724  56.2567414  86.4556731
  12.2376539  54.9791296  85.6520710  11.6568068  52.5557982  63.1085317
  12.5187232  52.8812880  63.3681134  11.8418413  51.7689478  62.5958383
   3.6735484  60.6380322  75.3865506   2.9798956  60.2234274  74.8735460
   4.4208475  60.6800858  74.7898925  19.8100705  51.4286508  70.2520540
  19.2299374  52.0871312  69.8698593  19.5436638  50.6063853  69.8407958
  18.2604271  50.8291566  72.4541860  18.7604050  50.9408101  71.6456179
  18.9039879  50.5252619  73.0942669  12.3186267  58.7370196  85.3409701
  11.8353349  59.5370556  85.5473590  12.4047206  58.7478141  84.3877145
   5.5872227  60.5698575  73.2631521   5.5642915  60.6686263  72.3113404
   5.8972863  61.4163726  73.5848687   8.2459605  62.6274730  77.3778135
   9.2002858  62.5958673  77.3108067   8.0472128  62.1665354  78.1928361
   8.8358987  61.1975846  79.9448933   9.6551876  61.6919925  79.9683770
   9.1095794  60.2807815  79.9166500  18.5925583  53.5886599  69.3076888
  17.7051438  53.8736249  69.0897083  19.0079572  53.4280362  68.4604165
  21.9440119  53.6133120  73.0231228  22.7200509  54.1029572  73.2955844
  21.2188253  54.0391174  73.4803097  24.3812678  54.3260739  74.0805168
  24.9757169  54.0856475  73.3698476  24.4539261  53.6067869  74.7078705
   6.6009833  68.1694350  74.3948333   6.4664301  67.4094751  73.8286331
   6.1841896  68.8935250  73.9277122  17.7368796  63.3531273  63.4024908
  18.4404647  63.5581276  64.0182564  17.0131445  63.9208035  63.6673992
  18.5666607  59.1041135  69.5227179  18.5101808  59.5609686  68.6834811
  19.1194949  58.3431819  69.3450021  22.3771413  54.8930866  70.3477298
  22.1208347  54.4927502  71.1785506  21.7524281  55.6074660  70.2227437
  26.6883750  57.6326940  72.8548589  26.1283308  57.7020129  73.6280152
  26.0827254  57.4567924  72.1348086   9.7578959  69.0663667  74.6066776
   9.6411343  70.0109099  74.5045466   8.9371406  68.7637228  74.9952575
  19.6455494  63.7913803  65.4523368  20.4801098  63.3595001  65.2700843
  19.4839837  63.6195816  66.3800263  19.3001386  60.2945916  66.8179708
  19.2450190  60.1290187  65.8768152  18.6747441  61.0021949  66.9741897
   4.0893901  55.5313980  80.6441130   4.7352765  55.0212934  81.1328355
   3.8811052  56.2682662  81.2184555  16.6147293  62.5994828  86.1433271
  17.4838453  62.7735480  85.7819905  16.1354045  63.4189245  86.0209000
  12.6097511  49.7954025  66.3965026  12.5976181  50.7395865  66.5533297
  13.5020933  49.6124170  66.1024487  10.7833473  69.7191929  77.8222704
  11.6860720  69.7515539  78.1389199  10.5570843  68.7892380  77.8369040
  12.5387075  68.4722915  74.4832783  11.5882706  68.4724777  74.3697155
  12.8419562  67.7255650  73.9668817  16.4249631  46.3896802  70.6510963
  15.6582027  45.8355288  70.7967645  16.8360336  46.4618670  71.5125115
   8.4291392  52.6781597  84.7416144   9.2922854  52.3218402  84.9519469
   7.8556803  52.3395492  85.4291548  25.0829475  74.2610882  75.4840070
  24.7447987  74.1451946  74.5960605  25.9519243  73.8602047  75.4641076
  20.9416291  76.1146358  71.4736961  20.3781156  76.0236295  70.7053249
  20.8268686  75.2946263  71.9539453  25.5649258  75.4145734  81.4426275
  25.5537899  75.0198532  80.5706779  25.7269898  74.6811806  82.0360047
  18.4880723  77.6097550  74.3121181  19.2802015  77.2688374  73.8967481
  18.7277373  77.7192525  75.2323335  26.5215850  79.7817326  66.7851426
  25.8703829  80.3671406  66.3985440  27.3160212  80.3123521  66.8446463
  20.4471477  76.8706463  67.1838560  21.2202353  76.3235450  67.0451436
  20.7996876  77.7350712  67.3953021  22.2856519  78.1982845  80.3905459
  21.9946385  79.1028476  80.2752126  22.9213504  78.2399373  81.1049529
  23.2112726  75.5759694  76.9806819  23.8076298  75.3515716  76.2663782
  23.2687698  74.8344439  77.5832267  22.7837755  73.0299129  64.8157010
  23.0363275  72.5080650  64.0540473  21.8462314  72.8665275  64.9183694
  27.9991115  77.4707758  67.3220410  27.3636948  77.5442384  68.0341315
  27.6688521  78.0601357  66.6439489  22.5034043  74.9327235  67.0181385
  22.3870301  74.2572139  67.6862469  22.6136303  74.4459609  66.2013538
  24.8465584  74.3937382  70.7228074  24.4823791  73.8668003  71.4340996
  25.7032700  74.0035851  70.5494560  24.4871071  69.4227282  65.7189423
  24.6545474  70.2907518  66.0859894  24.2968240  69.5854564  64.7950712
  27.2446404  77.8844261  77.3855253  26.9447128  78.7869300  77.2771060
  26.8997464  77.6176444  78.2376406  20.6958886  74.3358058  73.4191957
  19.7709382  74.2034272  73.6269649  20.9443299  75.1152277  73.9161900
  24.4660292  71.8784939  66.7036090  24.3459917  72.3241990  67.5421570
  23.7712880  72.2270257  66.1449628  18.0567697  73.9791331  74.2535747
  18.1860078  74.2325810  75.1675158  17.3765148  74.5719039  73.9340402
  22.2267184  84.6488581  70.3526221  22.1491214  85.5996406  70.4314701
  21.6228828  84.3034454  71.0101147  24.7184414  71.8216447  83.0087588
  23.9417748  72.3810367  82.9990452  25.3574977  72.3073230  83.5302458
  22.9730786  74.6301900  82.5705555  23.7145471  75.1686944  82.2940378
  22.2667772  75.2568189  82.7277106  28.4486126  76.7731040  81.1677716
  28.8569482  76.3313451  80.4232349  27.7263387  76.1983668  81.4211909
  24.8017196  71.7103647  78.5411273  25.6478391  72.1343061  78.6845922
  24.7415834  71.0537272  79.2349836  28.7714941  77.3332231  74.9230005
  28.1423803  77.4977945  74.2206073  28.3840603  77.7473841  75.6940969
  32.6504172  78.2686669  72.2774369  31.9655211  78.6485570  71.7271402
  32.7348022  78.8781996  73.0106317  27.9516641  69.3708016  80.1992447
  27.7077573  70.1250076  79.6626722  28.2276572  69.7493363  81.0339694
  29.9055104  75.9146628  78.8769712  30.1171999  76.5578388  78.2004093
  29.8584852  75.0808944  78.4091642  24.3242902  77.0706639  72.1880090
  24.7881248  77.3494342  71.3984713  24.0599701  76.1690084  72.0053181
  21.2166984  76.6178121  75.1259853  21.7868341  77.0465389  74.4877338
  21.8075095  76.3360705  75.8244039  23.2611789  73.1929792  68.9969655
  23.9635832  73.6450835  69.4643582  22.9292417  72.5513610  69.6249548
  21.7092150  71.7841548  83.3720865  21.0790811  72.4657829  83.6056261
  21.6028238  71.6724630  82.4274003  17.0037122  71.4513344  74.2986789
  16.2136176  71.7070873  73.8226899  17.4948370  72.2661682  74.4038829
  31.0200932  78.7918583  77.0492070  31.8418376  78.3898771  76.7674751
  31.0163335  78.6886818  78.0008185  18.9551868  71.8157923  71.2570266
  18.1583031  71.9276618  71.7753761  18.7277460  72.1544576  70.3911156
  24.7857535  78.3402627  79.2052780  24.8501968  78.8023034  80.0410952
  24.0768459  77.7099992  79.3335090  15.2874825  71.7043835  76.7301780
  15.5382864  72.5890845  76.9959356  15.8234374  71.5248436  75.9576871
  39.1106925  75.1357332  73.3977041  38.3570633  74.5664730  73.2421046
  39.2454466  75.1019996  74.3447676  24.5005553  80.0070734  69.0731760
  24.3651228  80.8522270  69.5016608  25.0415366  80.2090012  68.3097694
  17.9534951  77.5246172  69.6459686  18.4659471  78.3189422  69.7965250
  18.6057663  76.8272463  69.5793287  19.7629835  80.6411928  71.7282439
  19.9396464  81.5629893  71.5403423  20.5586669  80.3270348  72.1576819
  23.9040854  67.5020193  83.3266372  24.6450567  68.1027346  83.2470835
  24.1358777  66.7597831  82.7684415  19.0482192  72.6876560  81.6044602
  18.9335707  71.7861818  81.9051701  18.1926710  72.9340257  81.2529418
  26.1274030  80.6294301  83.2032103  25.6837884  79.8430679  82.8853007
  26.7891243  80.8173451  82.5375993  20.8861151  82.1590102  77.7292781
  21.4368576  82.0307166  76.9569775  20.0472627  82.4584991  77.3787674
  28.2255268  80.9097101  81.2313504  28.2073743  81.7305982  80.7393773
  29.1475188  80.7851176  81.4563645  24.6828322  78.4241230  82.0737012
  25.2156659  77.6629518  81.8436320  24.1542403  78.1314882  82.8161167
  15.9183867  75.8534826  70.4219256  16.7559089  76.2631835  70.2052964
  16.0962135  74.9134269  70.3919450  27.8148299  73.5209907  66.1103089
  27.2994923  74.2914512  66.3491476  27.5425608  72.8475043  66.7336151
  25.3995410  68.3659608  71.1688327  24.5437007  67.9766458  70.9893966
  25.8122362  68.4451569  70.3088113  23.1737443  65.9844681  74.5746069
  24.0390440  65.7887490  74.2151958  23.2414952  65.7555033  75.5015426
  32.7882574  76.2742262  68.0456263  32.0112016  75.9353421  67.6011425
  33.4674055  76.2794885  67.3711228  26.0481034  77.5527223  69.5855824
  25.5202396  76.8179982  69.2729062  25.5468537  78.3301899  69.3395793
  31.0273880  75.7476243  74.7022871  30.3697555  76.4375504  74.7902999
  31.8314280  76.1372675  75.0456857  20.7799762  68.2146889  71.9462436
  21.3543514  67.9922070  71.2135629  21.3670744  68.2835583  72.6991037
  21.1069349  70.2451350  65.9658321  20.2706661  70.5826036  66.2867596
  20.9674119  70.1100330  65.0285458  23.0822430  65.0888138  70.6737505
  22.4286842  64.7737155  70.0494120  23.0402904  64.4663878  71.3997328
  24.1933635  75.3707433  62.5890797  23.2860696  75.1396686  62.7881946
  24.6904667  74.5745052  62.7764779  27.1001714  84.0804940  65.5087483
  26.4263412  84.3836637  66.1172441  27.4867535  84.8834020  65.1592940
  26.3160170  71.5770071  74.9985153  25.3982731  71.7985018  74.8406841
  26.7320314  71.6516382  74.1396860  25.3721868  75.4720028  67.1114787
  24.4633087  75.1879060  67.2087257  25.4016952  75.8919106  66.2518094
  30.6041135  79.0826617  70.8805955  30.1503463  78.2417527  70.9371145
  29.9735102  79.7188016  71.2180735  29.0474075  80.9203114  71.8155773
  29.3397049  81.4808171  71.0968139  29.5572695  81.2131675  72.5708932
  15.9410038  73.1925542  71.0929990  15.7434438  72.5994903  70.3681056
  15.3856702  72.8877752  71.8105928  23.9206762  73.0848648  73.2124583
  23.9755372  72.1322485  73.1367059  23.1097964  73.2408087  73.6965881
  25.0697956  77.0128771  64.4502866  24.6317386  76.2964630  63.9908503
  25.8108397  77.2404886  63.8887957  21.8599122  71.7025708  70.9714962
  21.0466988  72.0019879  71.3780154  22.3558116  71.3081397  71.6889444
  24.0107700  81.6983465  72.9049226  23.9683879  81.9244311  71.9757758
  24.9270399  81.4646840  73.0535027  27.4573334  72.1667532  79.8029855
  27.8122721  72.3939006  80.6624321  28.1045465  72.4985909  79.1807111
  33.1871071  75.2885968  70.5079184  33.0488969  75.4787564  69.5800374
  32.8307289  76.0505351  70.9647236  21.3513197  69.2744064  76.5876197
  21.9912576  69.1332823  75.8899160  20.5190727  68.9878577  76.2114799
  33.2140450  77.3562495  75.5190456  33.6476957  77.2637784  76.3673510
  33.9272031  77.3319996  74.8810472  22.1273501  78.5746494  72.7011189
  22.9214099  78.0796814  72.4993764  21.4165193  78.0464357  72.3378895
  26.9468345  80.9564589  77.0523557  27.0005367  81.5255526  77.8201273
  26.0783127  81.1266475  76.6877594  18.4356264  72.7189576  68.7770942
  17.5053852  72.6574031  68.9940904  18.5313736  72.1965528  67.9807583
  18.3541813  69.2444389  71.3649183  18.6148631  70.1589722  71.2558344
  19.1758986  68.7768831  71.5145796  19.8266739  70.6582146  78.5348008
  20.4989792  70.4499508  77.8860657  18.9996525  70.4604232  78.0953240
  34.0756000  77.3986196  78.0523341  34.2691890  78.3032007  78.2982616
  33.9756618  76.9393615  78.8861926  25.7292311  67.2844087  80.5513669
  25.0820226  67.9834036  80.4578145  26.4993326  67.7180231  80.9189917
  29.1371108  77.5492939  83.6264222  28.9856615  77.3203490  82.7094306
  29.1275788  78.5063540  83.6395567  25.9056445  75.1224852  78.6110488
  26.8348505  75.2736011  78.4379456  25.4847475  75.2108872  77.7559135
  24.7044777  79.1475516  76.3809026  24.5655862  78.7794300  77.2534964
  23.9159373  79.6623155  76.2092984  25.2992929  84.2484612  67.7234563
  25.4744684  83.7772656  68.5380185  24.6125717  84.8750379  67.9515823
  26.2549992  78.5257119  73.7697864  25.9199824  78.4857889  74.6655514
  25.7553938  77.8601835  73.2968274  20.2294236  73.9324749  79.2950445
  20.0914034  73.2004988  79.8961984  21.1399159  73.8433649  79.0134633
  29.1909183  75.8713153  64.0434924  28.5738354  75.1459981  63.9467976
  28.7225672  76.6322513  63.7001998  22.8576536  73.6444708  78.7834125
  23.5676155  73.0037900  78.7420743  22.8145845  73.8957603  79.7060305
  30.8463315  80.5812061  81.7040704  30.7875861  79.8971281  81.0371287
  31.2482834  81.3231051  81.2521330  21.5705470  70.6309926  80.6029764
  21.0342827  70.1800664  81.2551360  20.9822179  70.7655835  79.8600228
  19.8654014  87.3973975  74.4974423  20.1050612  88.0292499  75.1753441
  19.0223210  87.0462015  74.7839782  20.9807729  70.0898577  63.1656228
  20.1037196  69.9687378  62.8018474  21.4565482  69.2984656  62.9135116
  30.8480722  78.5451645  79.9354684  29.9607501  78.2077567  80.0581082
  31.4179273  77.8134677  80.1723449  12.5009870  74.8775737  73.2597735
  13.1880909  74.5637467  72.6718750  12.3457998  75.7817102  72.9864986
  17.3044592  69.7665934  77.6882759  17.2202780  69.1591603  76.9533169
  16.4827298  70.2574952  77.6892255  24.3781876  83.2053098  76.9015927
  24.3052047  84.0108069  77.4135231  23.9359269  83.4045063  76.0763948
  24.1671655  82.4424868  70.4118748  23.3839177  82.9846548  70.5056973
  24.8664401  82.9598847  70.8112989  35.3298063  73.9559863  74.6971245
  35.3187939  74.8384578  74.3265178  34.4615442  73.6031413  74.5025782
  26.8380559  83.1039932  79.0574085  27.5508532  83.7387396  78.9849987
  26.3470588  83.2003798  78.2414087  28.5598086  77.0091184  70.6291377
  27.6254365  77.1292647  70.4596081  28.7374755  76.1063651  70.3651387
  24.0603274  70.3936880  72.7824638  23.6901062  69.8407920  73.4705544
  24.5562367  69.7895014  72.2299638  21.8892473  80.8534375  79.8779656
  22.5901932  81.4870858  80.0309050  21.4187588  81.1949107  79.1175296
  30.0146869  79.1952325  68.1627563  30.2906713  79.0808919  69.0721437
  29.1451367  78.7969810  68.1239736  29.6893759  73.4078983  77.7032207
  29.0365209  73.6554890  77.0484659  30.0674139  72.5943121  77.3694684
  26.6500933  83.4438676  71.8060377  26.8323327  82.6260332  72.2688129
  27.4733919  83.6606368  71.3685267  26.9843098  82.3706861  69.0675425
  27.5130865  81.8599315  68.4545587  27.2471318  82.0549391  69.9320958
  25.7381332  74.1498794  84.1898244  25.0621969  74.0492923  84.8600619
  26.5608966  73.9938007  84.6534241  17.4860191  80.3870730  76.8110759
  18.0713628  79.6414418  76.9438663  17.2885029  80.6974687  77.6947423
  20.3398846  83.4221978  71.8273201  19.6709221  83.9068105  71.3437241
  20.2011716  83.6691198  72.7416580  12.0777846  72.9576330  75.5315202
  12.1161945  72.4239921  76.3252320  11.5718138  72.4311536  74.9126179
  24.4804115  85.4565721  78.4255860  25.0322423  85.6197343  79.1904945
  24.8210308  86.0470159  77.7535885  19.4568608  67.8040871  79.0277744
  19.5209934  68.6655702  78.6155142  19.3935728  67.1914873  78.2950103
  18.9320880  69.8764003  82.6750779  19.5592919  69.4941081  83.2888303
  18.0748799  69.6578205  83.0406471  29.3314989  80.2826979  84.2804514
  29.8754893  80.8956937  83.7859469  28.7501834  80.8406557  84.7971527
  15.7086423  71.6840433  68.6069133  16.0039864  70.7751111  68.5536187
  14.8074459  71.6628172  68.2850136  27.6172502  83.4047697  75.4119542
  27.4923641  82.6037436  74.9030487  28.2751593  83.8993890  74.9233512
  19.2380670  69.7596429  74.5896682  18.5167256  70.3732397  74.4504155
  20.0273926  70.2954194  74.5113328  29.6807410  81.2056717  77.0399092
  28.7337746  81.0862068  76.9677419  30.0290183  80.3179215  77.1225353
  22.0406984  67.0950856  80.8637334  22.5641386  67.3413152  81.6263643
  21.8219317  67.9270890  80.4440471  17.4374265  69.3654530  68.7308459
  17.1086971  68.4851909  68.5483565  17.7913636  69.3102199  69.6184848
  26.6853844  81.0009433  73.2403444  26.5378806  80.0726140  73.4211014
  27.5107337  81.0229524  72.7560519  20.5516088  69.6527500  69.0983936
  20.8912160  70.1813421  68.3762545  20.9988208  69.9907906  69.8742503
  30.2887966  81.8237992  74.3268317  31.2134513  81.6180853  74.1892768
  30.1203269  81.5754393  75.2357658  23.2459529  68.0364551  78.5487004
  22.9056349  67.2372364  78.9507684  22.5398535  68.3366262  77.9763838
  23.8976001  65.1213863  77.0014327  24.7202070  64.6474341  76.8793218
  24.1414064  65.9004347  77.5013014  22.5384235  68.1502122  67.2977229
  23.2592598  68.5283374  66.7940946  21.9149539  68.8690998  67.4012207
  26.6815358  68.8547271  68.2335561  26.8978972  69.7371908  67.9324390
  26.2009425  68.4633484  67.5041203  21.4214579  71.8132984  74.8106306
  21.2759160  72.1273287  75.7030587  20.9439783  72.4317884  74.2577205
  23.2810962  68.8035532  74.8587196  23.2672531  67.9076625  74.5219493
  23.9983390  68.8106196  75.4925482  25.1337093  69.2372872  76.9040323
  24.8754871  70.1589943  76.9024653  24.6022133  68.8403307  77.5940787
  30.0783282  82.3423659  69.6830408  30.2520159  81.7770082  68.9304261
  30.5712173  83.1424554  69.5009898  15.8960242  74.3538328  77.7493967
  15.3513710  75.1298136  77.8814241  16.7739591  74.7009133  77.5913089
  22.6847858  67.6849912  70.1274766  22.8063769  66.7566558  70.3265653
  22.3949901  67.6988598  69.2153081  35.9322673  75.1060082  71.3020708
  36.3753819  74.3567407  70.9039831  35.0549183  75.0970218  70.9194440
  31.0658454  81.6590423  66.7827307  31.7609359  82.2797116  67.0014621
  31.4081604  80.8085775  67.0579685  16.6826263  73.4808224  80.6424124
  15.9407999  73.6290860  81.2288754  16.3619008  73.7416490  79.7790873
  32.9649877  79.1090129  68.3114637  33.4901201  79.4477402  67.5863957
  32.8772230  78.1737144  68.1277772  24.6269926  83.0224203  80.4404514
  24.9357052  82.7773349  81.3127214  25.4245408  83.2270841  79.9523384
  24.6490538  85.1762112  72.6709891  24.2095528  84.6838491  73.3642747
  25.3998655  84.6335080  72.4301966  17.1282877  81.3673653  72.6734519
  17.9540897  81.0677425  72.2933162  16.7776929  80.5981276  73.1224307
  22.0964410  80.7200121  74.7432192  21.4744420  80.0570826  74.4434420
  22.7669277  80.7461253  74.0605840  15.3291482  79.2859980  73.6323452
  14.4923390  78.8582154  73.4507454  15.3015128  79.4792423  74.5694243
  22.1688938  69.1981909  84.3364698  22.2177093  70.0744032  83.9542468
  22.7111452  68.6559302  83.7636341  32.6543783  79.7423033  83.6165835
  31.8639327  79.7247172  83.0770335  32.4177138  80.2811326  84.3714872
  32.7741658  76.5915499  80.9298564  32.8239663  76.4265506  81.8714087
  32.6655582  75.7242758  80.5396445  21.6577917  79.2704045  68.2190653
  21.8066038  79.9539509  67.5657326  22.4644361  79.2509135  68.7340109
  30.0645421  72.5746427  82.2457871  30.9655284  72.4352892  81.9541868
  30.1393395  72.7400882  83.1856048  24.3988226  69.9513282  81.0911057
  23.5291536  70.2446848  80.8193645  24.6347707  70.5353727  81.8118321
  34.2759855  79.0112441  81.1740585  33.9844664  79.3742421  82.0104046
  33.6631987  78.2979449  80.9953917  35.4755538  76.5765320  73.6943156
  36.3102429  77.0155124  73.8580716  35.6114666  76.1003974  72.8751401
  32.5247044  74.1345055  79.6420643  33.0001165  74.3272701  78.8339495
  31.6012609  74.1904241  79.3964027  19.4130550  75.2969222  69.2251722
  19.1676592  74.3931552  69.4231932  19.5826465  75.2986373  68.2831200
  18.6826198  71.0297580  66.7237883  17.9895443  71.1041935  66.0677919
  18.4377950  70.2657924  67.2459400  25.1573323  81.7652175  65.6902400
  24.5847290  82.3842362  65.2372872  25.7306116  82.3151537  66.2242322
  29.2463092  68.0966398  78.0608350  28.6513024  68.3771411  77.3654839
  28.9612789  68.5860299  78.8325091  28.3770582  82.0489325  66.8210982
  29.3101256  81.9834887  67.0243858  28.2893795  82.8845592  66.3625515
  31.0058599  81.3655196  63.7814930  30.9272231  81.0315059  64.6750688
  31.8268266  81.8576964  63.7806402  33.7036790  74.2316935  76.9891249
  33.6713110  73.2932936  77.1750932  34.3137414  74.3100972  76.2557074
  25.5420121  73.1012988  63.0318453  26.4879226  72.9719196  63.1006871
  25.1634366  72.3627650  63.5087881  39.5213340  75.2932942  76.1297285
  40.2516729  75.0318230  76.6904989  38.9120286  74.5561664  76.1699353
  37.6028637  73.4340804  76.7271737  36.8761801  73.2996769  76.1188228
  37.1875924  73.7417633  77.5328455  25.4258814  77.1530734  84.4919110
  26.3461823  77.3309333  84.6859156  25.3908397  76.2086779  84.3398809
  23.7263038  71.0262964  62.9673338  22.8194494  70.7296077  63.0436052
  24.0039019  70.7292782  62.1007624  14.6440979  72.3469328  73.4172384
  14.3243763  71.4934636  73.1246758  14.0974407  72.5617906  74.1730352
  18.4220886  75.0631769  77.1341891  18.6406896  75.9948877  77.1529925
  18.8346660  74.7039743  77.9196695  25.3425104  65.5699854  69.1217579
  24.5325832  65.2246939  69.4972825  26.0309521  65.2607398  69.7105191
  23.2948752  70.6364974  86.5244640  23.1945478  71.5859331  86.4556731
  23.0770294  70.3083213  85.6520710  22.4961823  67.8849900  63.1085317
  23.3580987  68.2104798  63.3681134  22.6812167  67.0981395  62.5958383
  14.5129239  75.9672239  75.3865506  13.8192710  75.5526192  74.8735460
  15.2602230  76.0092776  74.7898925  23.1580022  74.0662113  85.3409701
  22.6747103  74.8662473  85.5473590  23.2440961  74.0770058  84.3877145
  16.4265981  75.8990493  73.2631521  16.4036669  75.9978180  72.3113404
  16.7366618  76.7455644  73.5848687  19.0853359  77.9566648  77.3778135
  20.0396613  77.9250590  77.3108067  18.8865883  77.4957272  78.1928361
  19.6752741  76.5267764  79.9448933  20.4945630  77.0211843  79.9683770
  19.9489549  75.6099732  79.9166500  17.4403588  83.4986268  74.3948333
  17.3058056  82.7386668  73.8286331  17.0235650  84.2227167  73.9277122
  28.5762551  78.6823191  63.4024908  29.2798401  78.8873194  64.0182564
  27.8525200  79.2499953  63.6673992  20.5972714  84.3955585  74.6066776
  20.4805098  85.3401017  74.5045466  19.7765160  84.0929146  74.9952575
  30.4849248  79.1205720  65.4523368  31.3194852  78.6886919  65.2700843
  30.3233591  78.9487734  66.3800263  30.1395141  75.6237834  66.8179708
  30.0843944  75.4582105  65.8768152  29.5141196  76.3313866  66.9741897
  14.9287655  70.8605898  80.6441130  15.5746519  70.3504852  81.1328355
  14.7204807  71.5974580  81.2184555  27.4541048  77.9286745  86.1433271
  28.3232207  78.1027398  85.7819905  26.9747799  78.7481162  86.0209000
  23.4491266  65.1245943  66.3965026  23.4369936  66.0687782  66.5533297
  24.3414688  64.9416088  66.1024487  21.6227228  85.0483846  77.8222704
  22.5254475  85.0807457  78.1389199  21.3964598  84.1184297  77.8369040
  23.3780830  83.8014833  74.4832783  22.4276461  83.8016695  74.3697155
  23.6813316  83.0547568  73.9668817  19.2685146  68.0073515  84.7416144
  20.1316608  67.6510320  84.9519469  18.6950557  67.6687410  85.4291548
  39.1133523  89.6375371  75.5478545  39.7511933  89.5182119  74.8441885
  38.9954366  90.5856215  75.6066497  35.9223230  89.5902799  75.4840070
  35.5841741  89.4743864  74.5960605  36.7912998  89.1893965  75.4641076
  31.7810045  91.4438276  71.4736961  31.2174911  91.3528213  70.7053249
  31.6662440  90.6238180  71.9539453  36.4043013  90.7437651  81.4426275
  36.3931653  90.3490449  80.5706779  36.5663652  90.0103724  82.0360047
  29.3274477  92.9389467  74.3121181  30.1195769  92.5980292  73.8967481
  29.5671127  93.0484443  75.2323335  37.3609604  95.1109244  66.7851426
  36.7097584  95.6963324  66.3985440  38.1553967  95.6415438  66.8446463
  31.2865231  92.1998381  67.1838560  32.0596107  91.6527368  67.0451436
  31.6390630  93.0642630  67.3953021  33.1250274  93.5274763  80.3905459
  32.8340140  94.4320394  80.2752126  33.7607258  93.5691291  81.1049529
  34.0506481  90.9051612  76.9806819  34.6470053  90.6807634  76.2663782
  34.1081452  90.1636357  77.5832267  33.6231509  88.3591047  64.8157010
  33.8757030  87.8372568  64.0540473  32.6856068  88.1957192  64.9183694
  38.6674792  87.3626825  72.6231753  39.4537881  86.9446248  72.2722170
  38.9313496  88.2672917  72.7913402  38.8384869  92.7999676  67.3220410
  38.2030702  92.8734302  68.0341315  38.5082276  93.3893274  66.6439489
  44.0683219  87.3002058  73.5264732  44.8008391  86.7301275  73.7602561
  43.3122575  86.9123659  73.9671237  33.3427798  90.2619153  67.0181385
  33.2264056  89.5864056  67.6862469  33.4530058  89.7751527  66.2013538
  35.6859339  89.7229300  70.7228074  35.3217546  89.1959921  71.4340996
  36.5426455  89.3327769  70.5494560  41.5908639  81.0123633  77.9859340
  41.2591964  81.8819043  77.7620555  40.9954253  80.6959917  78.6653371
  35.3264826  84.7519200  65.7189423  35.4939228  85.6199436  66.0859894
  35.1361995  84.9146481  64.7950712  38.0840159  93.2136179  77.3855253
  37.7840882  94.1161217  77.2771060  37.7391218  92.9468362  78.2376406
  31.5352640  89.6649975  73.4191957  30.6103137  89.5326189  73.6269649
  31.7837054  90.4444195  73.9161900  41.4837303  85.7318719  75.0652690
  40.5754180  85.6634127  74.7711451  41.4324898  86.2090664  75.8934516
  35.3054047  87.2076857  66.7036090  35.1853672  87.6533908  67.5421570
  34.6106635  87.5562175  66.1449628  28.8961451  89.3083249  74.2535747
  29.0253833  89.5617728  75.1675158  28.2158903  89.9010957  73.9340402
  33.0660939  99.9780499  70.3526221  32.9884968 100.9288324  70.4314701
  32.4622582  99.6326371  71.0101147  35.5578168  87.1508364  83.0087588
  34.7811503  87.7102284  82.9990452  36.1968732  87.6365147  83.5302458
  43.3498949  83.9335157  76.8430564  42.7073329  84.2267690  76.1970359
  42.8453878  83.8188077  77.6483761  41.0039113  87.6798330  67.5316424
  41.9156969  87.9125717  67.3564121  40.4948760  88.2635374  66.9691502
  33.8124541  89.9593818  82.5705555  34.5539225  90.4978862  82.2940378
  33.1061526  90.5860106  82.7277106  39.2879880  92.1022958  81.1677716
  39.6963236  91.6605369  80.4232349  38.5657142  91.5275586  81.4211909
  35.6410950  87.0395565  78.5411273  36.4872146  87.4634978  78.6845922
  35.5809588  86.3829189  79.2349836  39.6108695  92.6624149  74.9230005
  38.9817558  92.8269863  74.2206073  39.2234357  93.0765758  75.6940969
  43.4897927  93.5978587  72.2774369  42.8048965  93.9777488  71.7271402
  43.5741776  94.2073913  73.0106317  38.7910396  84.6999933  80.1992447
  38.5471328  85.4541994  79.6626722  39.0670326  85.0785281  81.0339694
  40.7448859  91.2438546  78.8769712  40.9565754  91.8870306  78.2004093
  40.6978607  90.4100862  78.4091642  38.3475088  83.8556366  75.7806284
  37.4859567  84.1537620  76.0723022  38.3737522  84.0726765  74.8487317
  35.1636657  92.3998557  72.1880090  35.6275002  92.6786260  71.3984713
  34.8993455  91.4982001  72.0053181  32.0560738  91.9470038  75.1259853
  32.6262095  92.3757307  74.4877338  32.6468850  91.6652623  75.8244039
  34.1005543  88.5221709  68.9969655  34.8029586  88.9742753  69.4643582
  33.7686172  87.8805528  69.6249548  32.5485905  87.1133466  83.3720865
  31.9184565  87.7949747  83.6056261  32.4421992  87.0016547  82.4274003
  27.8430877  86.7805262  74.2986789  27.0529931  87.0362790  73.8226899
  28.3342124  87.5953600  74.4038829  41.8594687  94.1210501  77.0492070
  42.6812130  93.7190688  76.7674751  41.8557089  94.0178735  78.0008185
  29.7945622  87.1449841  71.2570266  28.9976786  87.2568535  71.7753761
  29.5671215  87.4836493  70.3911156  35.6251290  93.6694544  79.2052780
  35.6895722  94.1314952  80.0410952  34.9162214  93.0391909  79.3335090
  26.1268580  87.0335752  76.7301780  26.3776618  87.9182762  76.9959356
  26.6628128  86.8540354  75.9576871  35.3399308  95.3362652  69.0731760
  35.2044982  96.1814188  69.5016608  35.8809120  95.5381929  68.3097694
  31.8266647  81.4154232  85.7346116  31.4333593  80.8620430  86.4093760
  32.6432788  81.7264810  86.1252633  28.7928705  92.8538090  69.6459686
  29.3053226  93.6481340  69.7965250  29.4451418  92.1564380  69.5793287
  30.6023590  95.9703846  71.7282439  30.7790218  96.8921811  71.5403423
  31.3980423  95.6562265  72.1576819  34.7434608  82.8312111  83.3266372
  35.4844322  83.4319264  83.2470835  34.9752531  82.0889749  82.7684415
  29.8875946  88.0168478  81.6044602  29.7729461  87.1153735  81.9051701
  29.0320464  88.2632175  81.2529418  36.9667784  95.9586218  83.2032103
  36.5231638  95.1722597  82.8853007  37.6284998  96.1465369  82.5375993
  31.7254905  97.4882020  77.7292781  32.2762330  97.3599083  76.9569775
  30.8866381  97.7876909  77.3787674  39.0649022  96.2389018  81.2313504
  39.0467497  97.0597899  80.7393773  39.9868942  96.1143093  81.4563645
  35.5222076  93.7533148  82.0737012  36.0550413  92.9921436  81.8436320
  34.9936157  93.4606800  82.8161167  38.6891771  78.8593214  77.6030654
  38.3456041  79.7494855  77.5269765  39.0570734  78.6694871  76.7400239
  26.7577622  91.1826744  70.4219256  27.5952844  91.5923753  70.2052964
  26.9355890  90.2426186  70.3919450  38.6542054  88.8501825  66.1103089
  38.1388677  89.6206429  66.3491476  38.3819362  88.1766961  66.7336151
  36.2389165  83.6951526  71.1688327  35.3830761  83.3058376  70.9893966
  36.6516117  83.7743486  70.3088113  37.7688312  81.2297869  75.5679887
  37.2653107  81.1928004  74.7547692  38.0618918  82.1390612  75.6276544
  34.0131197  81.3136599  74.5746069  34.8784194  81.1179407  74.2151958
  34.0808706  81.0846950  75.5015426  43.6276328  91.6034179  68.0456263
  42.8505771  91.2645339  67.6011425  44.3067809  91.6086803  67.3711228
  38.4428357  86.7228917  67.9362870  38.1378493  87.0375066  68.7873013
  39.3958799  86.8010337  67.9790203  36.8874789  92.8819140  69.5855824
  36.3596151  92.1471900  69.2729062  36.3862292  93.6593817  69.3395793
  41.8667635  91.0768161  74.7022871  41.2091309  91.7667422  74.7902999
  42.6708034  91.4664593  75.0456857  31.6193517  83.5438807  71.9462436
  32.1937268  83.3213988  71.2135629  32.2064499  83.6127501  72.6991037
  40.6773094  89.4312533  72.7526812  41.1904976  90.0642525  73.2548522
  41.3274318  88.8313729  72.3870172  31.9463104  85.5743268  65.9658321
  31.1100416  85.9117954  66.2867596  31.8067873  85.4392247  65.0285458
  33.9216184  80.4180055  70.6737505  33.2680597  80.1029073  70.0494120
  33.8796658  79.7955796  71.3997328  35.0327389  90.6999350  62.5890797
  34.1254451  90.4688604  62.7881946  35.5298421  89.9036970  62.7764779
  37.9395468  99.4096858  65.5087483  37.2657167  99.7128554  66.1172441
  38.3261290 100.2125938  65.1592940  37.1553925  86.9061989  74.9985153
  36.2376486  87.1276936  74.8406841  37.5714068  86.9808299  74.1396860
  37.9388972  88.3053405  70.1287833  38.6860791  88.8174802  69.8194955
  38.2080562  87.9837457  70.9892227  36.2115623  90.8011945  67.1114787
  35.3026842  90.5170978  67.2087257  36.2410706  91.2211024  66.2518094
  41.4434890  94.4118535  70.8805955  40.9897217  93.5709445  70.9371145
  40.8128857  95.0479933  71.2180735  40.3867810  85.3410521  72.1106622
  39.6490566  84.8287907  72.4416865  40.6394583  84.9010902  71.2989899
  39.8867829  96.2495032  71.8155773  40.1790804  96.8100089  71.0968139
  40.3966450  96.5423593  72.5708932  40.4879437  78.1186773  72.7048392
  40.7938314  77.2584136  72.4174307  41.2132042  78.7104393  72.5047386
  26.7803793  88.5217459  71.0929990  26.5828193  87.9286820  70.3681056
  26.2250457  88.2169670  71.8105928  34.7600517  88.4140566  73.2124583
  34.8149126  87.4614402  73.1367059  33.9491719  88.5700005  73.6965881
  35.9091710  92.3420689  64.4502866  35.4711140  91.6256548  63.9908503
  36.6502151  92.5696804  63.8887957  32.6992877  87.0317626  70.9714962
  31.8860742  87.3311796  71.3780154  33.1951871  86.6373314  71.6889444
  34.8501454  97.0275383  72.9049226  34.8077633  97.2536229  71.9757758
  35.7664153  96.7938757  73.0535027  38.2967088  87.4959450  79.8029855
  38.6516476  87.7230923  80.6624321  38.9439219  87.8277827  79.1807111
  44.0264825  90.6177886  70.5079184  43.8882724  90.8079482  69.5800374
  43.6701044  91.3797269  70.9647236  32.1906951  84.6035981  76.5876197
  32.8306331  84.4624740  75.8899160  31.3584482  84.3170495  76.2114799
  44.0534205  92.6854413  75.5190456  44.4870711  92.5929702  76.3673510
  44.7665785  92.6611914  74.8810472  32.9667255  93.9038412  72.7011189
  33.7607854  93.4088732  72.4993764  32.2558948  93.3756275  72.3378895
  37.7862100  96.2856507  77.0523557  37.8399122  96.8547443  77.8201273
  36.9176881  96.4558392  76.6877594  29.2750019  88.0481493  68.7770942
  28.3447607  87.9865949  68.9940904  29.3707491  87.5257446  67.9807583
  29.1935568  84.5736306  71.3649183  29.4542385  85.4881639  71.2558344
  30.0152740  84.1060749  71.5145796  30.6660493  85.9874063  78.5348008
  31.3383546  85.7791426  77.8860657  29.8390280  85.7896149  78.0953240
  44.9149754  92.7278114  78.0523341  45.1085644  93.6323924  78.2982616
  44.8150372  92.2685533  78.8861926  36.5686065  82.6136004  80.5513669
  35.9213980  83.3125954  80.4578145  37.3387080  83.0472148  80.9189917
  39.9764863  92.8784856  83.6264222  39.8250369  92.6495408  82.7094306
  39.9669542  93.8355458  83.6395567  36.7450199  90.4516769  78.6110488
  37.6742259  90.6027929  78.4379456  36.3241229  90.5400790  77.7559135
  35.5438531  94.4767434  76.3809026  35.4049617  94.1086218  77.2534964
  34.7553127  94.9915073  76.2092984  36.1386683  99.5776530  67.7234563
  36.3138439  99.1064573  68.5380185  35.4519471 100.2042296  67.9515823
  37.0943746  93.8549036  73.7697864  36.7593579  93.8149806  74.6655514
  36.5947692  93.1893752  73.2968274  31.0687990  89.2616666  79.2950445
  30.9307788  88.5296905  79.8961984  31.9792914  89.1725566  79.0134633
  40.0302938  91.2005071  64.0434924  39.4132109  90.4751899  63.9467976
  39.5619426  91.9614431  63.7001998  33.6970291  88.9736626  78.7834125
  34.4069909  88.3329818  78.7420743  33.6539599  89.2249521  79.7060305
  41.6857070  95.9103979  81.7040704  41.6269616  95.2263199  81.0371287
  42.0876588  96.6522969  81.2521330  32.4099225  85.9601844  80.6029764
  31.8736582  85.5092582  81.2551360  31.8215933  86.0947752  79.8600228
  30.7047768 102.7265893  74.4974423  30.9444367 103.3584417  75.1753441
  29.8616965 102.3753933  74.7839782  31.8201484  85.4190495  63.1656228
  30.9430950  85.2979296  62.8018474  32.2959237  84.6276573  62.9135116
  41.6874477  93.8743563  79.9354684  40.8001256  93.5369485  80.0581082
  42.2573028  93.1426594  80.1723449  23.3403624  90.2067655  73.2597735
  24.0274664  89.8929385  72.6718750  23.1851753  91.1109019  72.9864986
  28.1438346  85.0957851  77.6882759  28.0596535  84.4883521  76.9533169
  27.3221053  85.5866870  77.6892255  35.2175630  98.5345015  76.9015927
  35.1445802  99.3399987  77.4135231  34.7753023  98.7336981  76.0763948
  35.0065410  97.7716785  70.4118748  34.2232932  98.3138466  70.5056973
  35.7058155  98.2890765  70.8112989  38.3162060  83.5811415  73.0552954
  38.8130760  82.8281377  72.7354024  37.5449042  83.6175731  72.4896163
  46.1691817  89.2851780  74.6971245  46.1581694  90.1676496  74.3265178
  45.3009197  88.9323331  74.5025782  37.6774314  98.4331849  79.0574085
  38.3902286  99.0679314  78.9849987  37.1864342  98.5295715  78.2414087
  39.3991841  92.3383102  70.6291377  38.4648119  92.4584564  70.4596081
  39.5768509  91.4355569  70.3651387  34.8997029  85.7228798  72.7824638
  34.5294816  85.1699838  73.4705544  35.3956121  85.1186931  72.2299638
  42.7864392  88.1800421  71.1641411  43.2524844  89.0128413  71.0901714
  43.2371893  87.7145403  71.8686670  32.7286227  96.1826293  79.8779656
  33.4295687  96.8162776  80.0309050  32.2581342  96.5241024  79.1175296
  40.8540623  94.5244243  68.1627563  41.1300467  94.4100837  69.0721437
  39.9845122  94.1261727  68.1239736  40.7581055  80.5481008  75.2032313
  39.8444135  80.7785235  75.3714519  41.1874156  80.6319452  76.0546345
  40.5287513  88.7370900  77.7032207  39.8758964  88.9846808  77.0484659
  40.9067893  87.9235038  77.3694684  37.4894687  98.7730593  71.8060377
  37.6717082  97.9552249  72.2688129  38.3127673  98.9898286  71.3685267
  37.8236853  97.6998779  69.0675425  38.3524619  97.1891233  68.4545587
  38.0865072  97.3841309  69.9320958  36.5775086  89.4790711  84.1898244
  35.9015723  89.3784841  84.8600619  37.4002720  89.3229925  84.6534241
  28.3253945  95.7162648  76.8110759  28.9107382  94.9706336  76.9438663
  28.1278784  96.0266605  77.6947423  31.1792601  98.7513895  71.8273201
  30.5102976  99.2360023  71.3437241  31.0405470  98.9983116  72.7416580
  22.9171600  88.2868248  75.5315202  22.9555700  87.7531839  76.3252320
  22.4111893  87.7603454  74.9126179  35.3197869 100.7857639  78.4255860
  35.8716177 100.9489260  79.1904945  35.6604063 101.3762077  77.7535885
  30.2962362  83.1332789  79.0277744  30.3603689  83.9947619  78.6155142
  30.2329483  82.5206790  78.2950103  29.7714635  85.2055921  82.6750779
  30.3986674  84.8232998  83.2888303  28.9142554  84.9870123  83.0406471
  40.1708744  95.6118896  84.2804514  40.7148648  96.2248855  83.7859469
  39.5895588  96.1698475  84.7971527  26.5480178  87.0132350  68.6069133
  26.8433619  86.1043029  68.5536187  25.6468213  86.9920090  68.2850136
  38.4566256  98.7339614  75.4119542  38.3317396  97.9329354  74.9030487
  39.1145348  99.2285808  74.9233512  30.0774425  85.0888347  74.5896682
  29.3561010  85.7024314  74.4504155  30.8667680  85.6246112  74.5113328
  40.5201165  96.5348634  77.0399092  39.5731500  96.4153986  76.9677419
  40.8683938  95.6471132  77.1225353  32.8800738  82.4242773  80.8637334
  33.4035140  82.6705070  81.6263643  32.6613072  83.2562808  80.4440471
  28.2768019  84.6946448  68.7308459  27.9480725  83.8143827  68.5483565
  28.6307390  84.6394117  69.6184848  37.5247598  96.3301351  73.2403444
  37.3772561  95.4018058  73.4211014  38.3501092  96.3521441  72.7560519
  31.3909842  84.9819418  69.0983936  31.7305915  85.5105339  68.3762545
  31.8381963  85.3199824  69.8742503  41.1281720  97.1529909  74.3268317
  42.0528267  96.9472771  74.1892768  40.9597023  96.9046310  75.2357658
  34.0853283  83.3656468  78.5487004  33.7450104  82.5664281  78.9507684
  33.3792290  83.6658179  77.9763838  34.7369755  80.4505781  77.0014327
  35.5595824  79.9766259  76.8793218  34.9807819  81.2296265  77.5013014
  33.3777990  83.4794039  67.2977229  34.0986352  83.8575292  66.7940946
  32.7543294  84.1982916  67.4012207  37.5209112  84.1839188  68.2335561
  37.7372727  85.0663826  67.9324390  37.0403180  83.7925402  67.5041203
  32.2608334  87.1424901  74.8106306  32.1152915  87.4565205  75.7030587
  31.7833537  87.7609802  74.2577205  34.1204717  84.1327449  74.8587196
  34.1066286  83.2368543  74.5219493  34.8377145  84.1398113  75.4925482
  35.9730847  84.5664790  76.9040323  35.7148625  85.4881860  76.9024653
  35.4415888  84.1695224  77.5940787  40.9177036  97.6715577  69.6830408
  41.0913914  97.1061999  68.9304261  41.4105927  98.4716472  69.5009898
  26.7353996  89.6830246  77.7493967  26.1907464  90.4590054  77.8814241
  27.6133346  90.0301050  77.5913089  33.5241613  83.0141830  70.1274766
  33.6457524  82.0858476  70.3265653  33.2343655  83.0280516  69.2153081
  36.3932803  80.6996740  73.2641486  36.4154500  80.7636073  72.3093465
  36.8100862  79.8601249  73.4581992  41.9052209  96.9882341  66.7827307
  42.6003113  97.6089034  67.0014621  42.2475359  96.1377692  67.0579685
  27.5220018  88.8100142  80.6424124  26.7801754  88.9582777  81.2288754
  27.2012762  89.0708408  79.7790873  43.8043632  94.4382047  68.3114637
  44.3294956  94.7769319  67.5863957  43.7165984  93.5029062  68.1277772
  35.4663681  98.3516120  80.4404514  35.7750807  98.1065267  81.3127214
  36.2639163  98.5562759  79.9523384  35.4884293 100.5054030  72.6709891
  35.0489283 100.0130409  73.3642747  36.2392410  99.9626998  72.4301966
  27.9676632  96.6965571  72.6734519  28.7934651  96.3969343  72.2933162
  27.6170684  95.9273193  73.1224307  32.9358165  96.0492039  74.7432192
  32.3138174  95.3862744  74.4434420  33.6063032  96.0753171  74.0605840
  26.1685237  94.6151897  73.6323452  25.3317145  94.1874072  73.4507454
  26.1408882  94.8084341  74.5694243  33.0082692  84.5273827  84.3364698
  33.0570848  85.4035950  83.9542468  33.5505206  83.9851220  83.7636341
  43.4937538  95.0714950  83.6165835  42.7033082  95.0539089  83.0770335
  43.2570892  95.6103244  84.3714872  43.6135413  91.9207417  80.9298564
  43.6633418  91.7557424  81.8714087  43.5049336  91.0534676  80.5396445
  32.4971672  94.5995962  68.2190653  32.6459792  95.2831427  67.5657326
  33.3038115  94.5801052  68.7340109  40.9039175  87.9038345  82.2457871
  41.8049038  87.7644810  81.9541868  40.9787150  88.0692800  83.1856048
  35.2381981  85.2805199  81.0911057  34.3685290  85.5738766  80.8193645
  35.4741461  85.8645644  81.8118321  45.1153610  94.3404358  81.1740585
  44.8238418  94.7034339  82.0104046  44.5025741  93.6271367  80.9953917
  46.3149292  91.9057238  73.6943156  47.1496183  92.3447042  73.8580716
  46.4508421  91.4295891  72.8751401  43.3640798  89.4636973  79.6420643
  43.8394920  89.6564619  78.8339495  42.4406363  89.5196159  79.3964027
  30.2524305  90.6261140  69.2251722  30.0070347  89.7223470  69.4231932
  30.4220219  90.6278290  68.2831200  37.9421015  81.4984816  78.6076477
  38.4602958  82.2345843  78.2822966  37.5876147  81.8048810  79.4423236
  29.5219952  86.3589498  66.7237883  28.8289197  86.4333853  66.0677919
  29.2771704  85.5949841  67.2459400  38.1933609  77.9185099  74.1277374
  38.4735362  77.2508288  74.7537800  38.9784216  78.1114195  73.6152038
  35.9967077  97.0944093  65.6902400  35.4241044  97.7134280  65.2372872
  36.5699871  97.6443455  66.2242322  42.0642467  86.3402733  77.8748949
  43.0159890  86.4400831  77.8961173  41.8945917  85.5481001  78.3847033
  40.0856846  83.4258316  78.0608350  39.4906779  83.7063329  77.3654839
  39.8006543  83.9152217  78.8325091  39.2164337  97.3781243  66.8210982
  40.1495010  97.3126805  67.0243858  39.1287550  98.2137510  66.3625515
  41.8452354  96.6947113  63.7814930  41.7665985  96.3606977  64.6750688
  42.6662020  97.1868881  63.7806402  44.5430545  89.5608853  76.9891249
  44.5106865  88.6224853  77.1750932  45.1531168  89.6392889  76.2557074
  36.3813876  88.4304906  63.0318453  37.3272980  88.3011114  63.1006871
  36.0028121  87.6919568  63.5087881  44.6925033  86.3519896  77.0349532
  44.1764082  85.5678353  76.8479461  45.5764982  86.0238613  77.1996051
  42.3535760  80.0960912  72.9945345  42.1560581  79.7876000  73.8788676
  42.9635466  80.8222551  73.1243274  50.3607095  90.6224859  76.1297285
  51.0910483  90.3610148  76.6904989  49.7514040  89.8853581  76.1699353
  48.4422392  88.7632722  76.7271737  47.7155555  88.6288687  76.1188228
  48.0269679  89.0709551  77.5328455  36.2652568  92.4822652  84.4919110
  37.1855578  92.6601251  84.6859156  36.2302151  91.5378697  84.3398809
  34.5656793  86.3554882  62.9673338  33.6588248  86.0587995  63.0436052
  34.8432774  86.0584700  62.1007624  25.4834733  87.6761245  73.4172384
  25.1637518  86.8226554  73.1246758  24.9368161  87.8909824  74.1730352
  29.2614641  90.3923686  77.1341891  29.4800651  91.3240794  77.1529925
  29.6740415  90.0331661  77.9196695  36.1818859  80.8991772  69.1217579
  35.3719587  80.5538857  69.4972825  36.8703275  80.5899315  69.7105191
  38.1109407  79.9769819  70.7441876  38.6640445  80.3965272  71.4031899
  38.3479493  79.0505567  70.7864832  34.1342506  85.9656892  86.5244640
  34.0339233  86.9151249  86.4556731  33.9164048  85.6375131  85.6520710
  33.3355577  83.2141817  63.1085317  34.1974741  83.5396716  63.3681134
  33.5205922  82.4273313  62.5958383  25.3522993  91.2964157  75.3865506
  24.6586465  90.8818110  74.8735460  26.0995984  91.3384693  74.7898925
  41.4888214  82.0870344  70.2520540  40.9086883  82.7455148  69.8698593
  41.2224147  81.2647688  69.8407958  39.9391780  81.4875401  72.4541860
  40.4391559  81.5991936  71.6456179  40.5827388  81.1836454  73.0942669
  33.9973776  89.3954031  85.3409701  33.5140858  90.1954391  85.5473590
  34.0834715  89.4061976  84.3877145  27.2659736  91.2282411  73.2631521
  27.2430424  91.3270098  72.3113404  27.5760372  92.0747561  73.5848687
  29.9247114  93.2858566  77.3778135  30.8790367  93.2542508  77.3108067
  29.7259637  92.8249189  78.1928361  30.5146496  91.8559682  79.9448933
  31.3339385  92.3503760  79.9683770  30.7883303  90.9391650  79.9166500
  40.2713092  84.2470434  69.3076888  39.3838947  84.5320085  69.0897083
  40.6867081  84.0864197  68.4604165  43.6227628  84.2716955  73.0231228
  44.3988018  84.7613407  73.2955844  42.8975762  84.6975009  73.4803097
  46.0600187  84.9844574  74.0805168  46.6544678  84.7440310  73.3698476
  46.1326770  84.2651705  74.7078705  28.2797342  98.8278185  74.3948333
  28.1451810  98.0678586  73.8286331  27.8629405  99.5519085  73.9277122
  39.4156305  94.0115109  63.4024908  40.1192156  94.2165111  64.0182564
  38.6918954  94.5791871  63.6673992  40.2454116  89.7624970  69.5227179
  40.1889317  90.2193521  68.6834811  40.7982458  89.0015655  69.3450021
  44.0558922  85.5514702  70.3477298  43.7995856  85.1511338  71.1785506
  43.4311790  86.2658496  70.2227437  48.3671259  88.2910775  72.8548589
  47.8070817  88.3603964  73.6280152  47.7614763  88.1151760  72.1348086
  31.4366468  99.7247502  74.6066776  31.3198852 100.6692935  74.5045466
  30.6158915  99.4221064  74.9952575  41.3243003  94.4497638  65.4523368
  42.1588607  94.0178836  65.2700843  41.1627346  94.2779652  66.3800263
  40.9788895  90.9529751  66.8179708  40.9237699  90.7874023  65.8768152
  40.3534950  91.6605784  66.9741897  25.7681410  86.1897816  80.6441130
  26.4140274  85.6796770  81.1328355  25.5598561  86.9266497  81.2184555
  38.2934802  93.2578663  86.1433271  39.1625962  93.4319315  85.7819905
  37.8141554  94.0773080  86.0209000  34.2885020  80.4537860  66.3965026
  34.2763690  81.3979700  66.5533297  35.1808442  80.2708006  66.1024487
  32.4620982 100.3775764  77.8222704  33.3648229 100.4099374  78.1389199
  32.2358352  99.4476215  77.8369040  34.2174584  99.1306751  74.4832783
  33.2670215  99.1308612  74.3697155  34.5207071  98.3839485  73.9668817
  38.1037140  77.0480637  70.6510963  37.3369536  76.4939124  70.7967645
  38.5147845  77.1202506  71.5125115  30.1078901  83.3365433  84.7416144
  30.9710363  82.9802238  84.9519469  29.5344312  82.9979328  85.4291548
  49.9527278 104.9667289  75.5478545  50.5905688 104.8474036  74.8441885
  49.8348121 105.9148133  75.6066497  46.7616984 104.9194717  75.4840070
  46.4235496 104.8035782  74.5960605  47.6306752 104.5185882  75.4641076
  42.6203800 106.7730194  71.4736961  42.0568665 106.6820130  70.7053249
  42.5056195 105.9530098  71.9539453  47.2436767 106.0729569  81.4426275
  47.2325408 105.6782367  80.5706779  47.4057407 105.3395641  82.0360047
  40.1668232 108.2681385  74.3121181  40.9589524 107.9272210  73.8967481
  40.4064882 108.3776360  75.2323335  48.2003359 110.4401161  66.7851426
  47.5491338 111.0255242  66.3985440  48.9947721 110.9707356  66.8446463
  42.1258986 107.5290298  67.1838560  42.8989862 106.9819285  67.0451436
  42.4784385 108.3934548  67.3953021  43.9644028 108.8566681  80.3905459
  43.6733894 109.7612312  80.2752126  44.6001013 108.8983208  81.1049529
  44.8900235 106.2343529  76.9806819  45.4863807 106.0099552  76.2663782
  44.9475207 105.4928275  77.5832267  44.4625264 103.6882965  64.8157010
  44.7150784 103.1664486  64.0540473  43.5249823 103.5249110  64.9183694
  49.5068546 102.6918743  72.6231753  50.2931636 102.2738166  72.2722170
  49.7707251 103.5964835  72.7913402  49.6778624 108.1291593  67.3220410
  49.0424457 108.2026220  68.0341315  49.3476030 108.7185192  66.6439489
  44.1821552 105.5911070  67.0181385  44.0657810 104.9155974  67.6862469
  44.2923812 105.1043444  66.2013538  46.5253093 105.0521218  70.7228074
  46.1611300 104.5251839  71.4340996  47.3820209 104.6619687  70.5494560
  52.4302394  96.3415550  77.9859340  52.0985719  97.2110961  77.7620555
  51.8348007  96.0251834  78.6653371  46.1658580 100.0811117  65.7189423
  46.3332983 100.9491354  66.0859894  45.9755749 100.2438399  64.7950712
  48.9233913 108.5428096  77.3855253  48.6234636 109.4453135  77.2771060
  48.5784973 108.2760279  78.2376406  42.3746395 104.9941893  73.4191957
  41.4496891 104.8618107  73.6269649  42.6230808 105.7736112  73.9161900
  52.3231057 101.0610636  75.0652690  51.4147935 100.9926045  74.7711451
  52.2718653 101.5382581  75.8934516  46.1447801 102.5368775  66.7036090
  46.0247426 102.9825826  67.5421570  45.4500389 102.8854092  66.1449628
  39.7355206 104.6375167  74.2535747  39.8647587 104.8909646  75.1675158
  39.0552657 105.2302875  73.9340402  43.9054693 115.3072417  70.3526221
  43.8278723 116.2580242  70.4314701  43.3016337 114.9618289  71.0101147
  46.3971923 102.4800282  83.0087588  45.6205257 103.0394202  82.9990452
  47.0362486 102.9657065  83.5302458  51.8432867 103.0090248  67.5316424
  52.7550723 103.2417635  67.3564121  51.3342514 103.5927292  66.9691502
  44.6518295 105.2885735  82.5705555  45.3932980 105.8270779  82.2940378
  43.9455281 105.9152024  82.7277106  50.1273635 107.4314876  81.1677716
  50.5356991 106.9897286  80.4232349  49.4050896 106.8567503  81.4211909
  46.4804705 102.3687483  78.5411273  47.3265900 102.7926896  78.6845922
  46.4203343 101.7121107  79.2349836  50.4502450 107.9916066  74.9230005
  49.8211312 108.1561781  74.2206073  50.0628112 108.4057676  75.6940969
  49.6304150 100.0291851  80.1992447  49.3865082 100.7833911  79.6626722
  49.9064081 100.4077199  81.0339694  51.5842613 106.5730463  78.8769712
  51.7959508 107.2162223  78.2004093  51.5372361 105.7392780  78.4091642
  49.1868842  99.1848284  75.7806284  48.3253321  99.4829538  76.0723022
  49.2131277  99.4018683  74.8487317  46.0030411 107.7290475  72.1880090
  46.4668757 108.0078177  71.3984713  45.7387210 106.8273919  72.0053181
  42.8954493 107.2761956  75.1259853  43.4655850 107.7049224  74.4877338
  43.4862604 106.9944541  75.8244039  44.9399298 103.8513627  68.9969655
  45.6423341 104.3034671  69.4643582  44.6079926 103.2097446  69.6249548
  43.3879659 102.4425383  83.3720865  42.7578320 103.1241664  83.6056261
  43.2815747 102.3308465  82.4274003  38.6824631 102.1097180  74.2986789
  37.8923685 102.3654708  73.8226899  39.1735879 102.9245517  74.4038829
  52.6988441 109.4502419  77.0492070  53.5205885 109.0482606  76.7674751
  52.6950844 109.3470653  78.0008185  40.6339377 102.4741759  71.2570266
  39.8370540 102.5860453  71.7753761  40.4064969 102.8128411  70.3911156
  46.4645044 108.9986462  79.2052780  46.5289477 109.4606869  80.0410952
  45.7555968 108.3683827  79.3335090  36.9662334 102.3627670  76.7301780
  37.2170373 103.2474680  76.9959356  37.5021883 102.1832272  75.9576871
  46.1793062 110.6654569  69.0731760  46.0438737 111.5106105  69.5016608
  46.7202875 110.8673847  68.3097694  42.6660402  96.7446149  85.7346116
  42.2727347  96.1912348  86.4093760  43.4826542  97.0556728  86.1252633
  39.6322460 108.1830008  69.6459686  40.1446980 108.9773258  69.7965250
  40.2845172 107.4856298  69.5793287  41.4417344 111.2995764  71.7282439
  41.6183973 112.2213729  71.5403423  42.2374178 110.9854183  72.1576819
  45.5828363  98.1604028  83.3266372  46.3238076  98.7611182  83.2470835
  45.8146286  97.4181666  82.7684415  40.7269701 103.3460396  81.6044602
  40.6123216 102.4445653  81.9051701  39.8714219 103.5924092  81.2529418
  47.8061539 111.2878136  83.2032103  47.3625393 110.5014515  82.8853007
  48.4678752 111.4757287  82.5375993  42.5648660 112.8173938  77.7292781
  43.1156085 112.6891001  76.9569775  41.7260136 113.1168827  77.3787674
  49.9042777 111.5680936  81.2313504  49.8861252 112.3889817  80.7393773
  50.8262697 111.4435011  81.4563645  46.3615831 109.0825065  82.0737012
  46.8944168 108.3213354  81.8436320  45.8329912 108.7898717  82.8161167
  49.5285526  94.1885131  77.6030654  49.1849795  95.0786773  77.5269765
  49.8964488  93.9986789  76.7400239  37.5971376 106.5118662  70.4219256
  38.4346598 106.9215670  70.2052964  37.7749644 105.5718104  70.3919450
  49.4935808 104.1793742  66.1103089  48.9782432 104.9498347  66.3491476
  49.2213117 103.5058879  66.7336151  47.0782919  99.0243443  71.1688327
  46.2224516  98.6350294  70.9893966  47.4909871  99.1035404  70.3088113
  48.6082066  96.5589787  75.5679887  48.1046862  96.5219922  74.7547692
  48.9012673  97.4682529  75.6276544  44.8524952  96.6428516  74.5746069
  45.7177949  96.4471325  74.2151958  44.9202461  96.4138868  75.5015426
  49.2822112 102.0520835  67.9362870  48.9772247 102.3666984  68.7873013
  50.2352554 102.1302254  67.9790203  47.7268543 108.2111058  69.5855824
  47.1989905 107.4763817  69.2729062  47.2256046 108.9885734  69.3395793
  52.7061389 106.4060078  74.7022871  52.0485064 107.0959340  74.7902999
  53.5101789 106.7956510  75.0456857  42.4587271  98.8730724  71.9462436
  43.0331023  98.6505906  71.2135629  43.0458253  98.9419419  72.6991037
  51.5166848 104.7604451  72.7526812  52.0298730 105.3934443  73.2548522
  52.1668072 104.1605647  72.3870172  42.7856858 100.9035185  65.9658321
  41.9494170 101.2409872  66.2867596  42.6461628 100.7684165  65.0285458
  44.7609939  95.7471973  70.6737505  44.1074351  95.4320990  70.0494120
  44.7190413  95.1247714  71.3997328  45.8721144 106.0291268  62.5890797
  44.9648205 105.7980522  62.7881946  46.3692176 105.2328887  62.7764779
  48.7789222 114.7388775  65.5087483  48.1050921 115.0420472  66.1172441
  49.1655044 115.5417856  65.1592940  47.9947679 102.2353907  74.9985153
  47.0770240 102.4568854  74.8406841  48.4107823 102.3100217  74.1396860
  48.7782727 103.6345322  70.1287833  49.5254546 104.1466720  69.8194955
  49.0474316 103.3129375  70.9892227  47.0509377 106.1303863  67.1114787
  46.1420596 105.8462896  67.2087257  47.0804461 106.5502942  66.2518094
  51.2261564 100.6702439  72.1106622  50.4884321 100.1579825  72.4416865
  51.4788338 100.2302820  71.2989899  37.6197547 103.8509377  71.0929990
  37.4221947 103.2578738  70.3681056  37.0644211 103.5461587  71.8105928
  45.5994271 103.7432484  73.2124583  45.6542881 102.7906320  73.1367059
  44.7885473 103.8991923  73.6965881  46.7485465 107.6712607  64.4502866
  46.3104895 106.9548466  63.9908503  47.4895906 107.8988722  63.8887957
  43.5386631 102.3609543  70.9714962  42.7254497 102.6603714  71.3780154
  44.0345625 101.9665232  71.6889444  45.6895209 112.3567300  72.9049226
  45.6471388 112.5828147  71.9757758  46.6057908 112.1230675  73.0535027
  49.1360843 102.8251368  79.8029855  49.4910230 103.0522841  80.6624321
  49.7832974 103.1569745  79.1807111  43.0300706  99.9327899  76.5876197
  43.6700085  99.7916658  75.8899160  42.1978236  99.6462412  76.2114799
  54.8927959 108.0146331  75.5190456  55.3264466 107.9221620  76.3673510
  55.6059540 107.9903831  74.8810472  43.8061010 109.2330329  72.7011189
  44.6001608 108.7380649  72.4993764  43.0952702 108.7048192  72.3378895
  48.6255854 111.6148425  77.0523557  48.6792876 112.1839361  77.8201273
  47.7570636 111.7850310  76.6877594  40.1143773 103.3773411  68.7770942
  39.1841361 103.3157867  68.9940904  40.2101245 102.8549364  67.9807583
  40.0329322  99.9028224  71.3649183  40.2936139 100.8173557  71.2558344
  40.8546495  99.4352666  71.5145796  41.5054248 101.3165981  78.5348008
  42.1777301 101.1083343  77.8860657  40.6784034 101.1188067  78.0953240
  55.7543509 108.0570031  78.0523341  55.9479399 108.9615842  78.2982616
  55.6544127 107.5977450  78.8861926  47.4079820  97.9427922  80.5513669
  46.7607735  98.6417872  80.4578145  48.1780835  98.3764066  80.9189917
  50.8158617 108.2076774  83.6264222  50.6644124 107.9787326  82.7094306
  50.8063297 109.1647376  83.6395567  47.5843954 105.7808687  78.6110488
  48.5136014 105.9319846  78.4379456  47.1634984 105.8692708  77.7559135
  46.3832286 109.8059351  76.3809026  46.2443371 109.4378136  77.2534964
  45.5946882 110.3206991  76.2092984  46.9780438 114.9068448  67.7234563
  47.1532193 114.4356491  68.5380185  46.2913226 115.5334214  67.9515823
  47.9337501 109.1840954  73.7697864  47.5987333 109.1441724  74.6655514
  47.4341446 108.5185670  73.2968274  41.9081745 104.5908584  79.2950445
  41.7701543 103.8588823  79.8961984  42.8186668 104.5017484  79.0134633
  44.5364045 104.3028543  78.7834125  45.2463664 103.6621736  78.7420743
  44.4933354 104.5541438  79.7060305  52.5250824 111.2395897  81.7040704
  52.4663370 110.5555117  81.0371287  52.9270343 111.9814887  81.2521330
  43.2492979 101.2893761  80.6029764  42.7130336 100.8384500  81.2551360
  42.6609688 101.4239670  79.8600228  41.5441523 118.0557811  74.4974423
  41.7838121 118.6876335  75.1753441  40.7010719 117.7045851  74.7839782
  42.6595238 100.7482413  63.1656228  41.7824705 100.6271213  62.8018474
  43.1352991  99.9568491  62.9135116  52.5268231 109.2035481  79.9354684
  51.6395010 108.8661402  80.0581082  53.0966782 108.4718512  80.1723449
  34.1797379 105.5359572  73.2597735  34.8668418 105.2221302  72.6718750
  34.0245507 106.4400937  72.9864986  38.9832101 100.4249769  77.6882759
  38.8990289  99.8175438  76.9533169  38.1614807 100.9158787  77.6892255
  46.0569385 113.8636933  76.9015927  45.9839556 114.6691904  77.4135231
  45.6146778 114.0628899  76.0763948  45.8459164 113.1008703  70.4118748
  45.0626686 113.6430383  70.5056973  46.5451910 113.6182683  70.8112989
  49.1555815  98.9103332  73.0552954  49.6524514  98.1573295  72.7354024
  48.3842796  98.9467649  72.4896163  48.5168068 113.7623767  79.0574085
  49.2296041 114.3971232  78.9849987  48.0258097 113.8587633  78.2414087
  50.2385595 107.6675020  70.6291377  49.3041874 107.7876482  70.4596081
  50.4162264 106.7647486  70.3651387  45.7390783 101.0520715  72.7824638
  45.3688571 100.4991756  73.4705544  46.2349876 100.4478849  72.2299638
  53.6258147 103.5092339  71.1641411  54.0918599 104.3420331  71.0901714
  54.0765647 103.0437321  71.8686670  43.5679982 111.5118210  79.8779656
  44.2689441 112.1454693  80.0309050  43.0975097 111.8532942  79.1175296
  51.3681268 104.0662818  77.7032207  50.7152718 104.3138725  77.0484659
  51.7461648 103.2526956  77.3694684  48.3288442 114.1022511  71.8060377
  48.5110836 113.2844167  72.2688129  49.1521428 114.3190203  71.3685267
  48.6630607 113.0290696  69.0675425  49.1918374 112.5183151  68.4545587
  48.9258827 112.7133226  69.9320958  47.4168841 104.8082629  84.1898244
  46.7409478 104.7076758  84.8600619  48.2396475 104.6521843  84.6534241
  39.1647700 111.0454566  76.8110759  39.7501137 110.2998253  76.9438663
  38.9672538 111.3558522  77.6947423  42.0186355 114.0805813  71.8273201
  41.3496730 114.5651941  71.3437241  41.8799225 114.3275033  72.7416580
  33.7565355 103.6160166  75.5315202  33.7949454 103.0823756  76.3252320
  33.2505647 103.0895371  74.9126179  46.1591624 116.1149556  78.4255860
  46.7109932 116.2781178  79.1904945  46.4997817 116.7053994  77.7535885
  41.1356117  98.4624706  79.0277744  41.1997443  99.3239537  78.6155142
  41.0723237  97.8498708  78.2950103  40.6108389 100.5347839  82.6750779
  41.2380428 100.1524916  83.2888303  39.7536308 100.3162041  83.0406471
  51.0102498 110.9410814  84.2804514  51.5542402 111.5540772  83.7859469
  50.4289343 111.4990392  84.7971527  37.3873932 102.3424268  68.6069133
  37.6827373 101.4334946  68.5536187  36.4861968 102.3212007  68.2850136
  49.2960011 114.0631532  75.4119542  49.1711150 113.2621272  74.9030487
  49.9539102 114.5577725  74.9233512  40.9168179 100.4180264  74.5896682
  40.1954765 101.0316232  74.4504155  41.7061435 100.9538029  74.5113328
  51.3594919 111.8640552  77.0399092  50.4125255 111.7445903  76.9677419
  51.7077692 110.9763050  77.1225353  43.7194493  97.7534691  80.8637334
  44.2428895  97.9996987  81.6263643  43.5006826  98.5854726  80.4440471
  39.1161774 100.0238366  68.7308459  38.7874480  99.1435744  68.5483565
  39.4701144  99.9686034  69.6184848  48.3641353 111.6593268  73.2403444
  48.2166315 110.7309976  73.4211014  49.1894846 111.6813359  72.7560519
  42.2303597 100.3111335  69.0983936  42.5699669 100.8397257  68.3762545
  42.6775717 100.6491741  69.8742503  51.9675475 112.4821827  74.3268317
  52.8922022 112.2764688  74.1892768  51.7990778 112.2338228  75.2357658
  44.9247038  98.6948386  78.5487004  44.5843858  97.8956199  78.9507684
  44.2186044  98.9950097  77.9763838  45.5763510  95.7797698  77.0014327
  46.3989579  95.3058177  76.8793218  45.8201573  96.5588182  77.5013014
  44.2171744  98.8085957  67.2977229  44.9380107  99.1867210  66.7940946
  43.5937048  99.5274834  67.4012207  48.3602867  99.5131106  68.2335561
  48.5766481 100.3955744  67.9324390  47.8796934  99.1217319  67.5041203
  43.1002088 102.4716819  74.8106306  42.9546669 102.7857122  75.7030587
  42.6227292 103.0901719  74.2577205  44.9598471  99.4619367  74.8587196
  44.9460040  98.5660460  74.5219493  45.6770899  99.4690031  75.4925482
  46.8124602  99.8956707  76.9040323  46.5542380 100.8173778  76.9024653
  46.2809642  99.4987142  77.5940787  37.5747751 105.0122164  77.7493967
  37.0301219 105.7881971  77.8814241  38.4527100 105.3592968  77.5913089
  44.3635367  98.3433747  70.1274766  44.4851278  97.4150394  70.3265653
  44.0737410  98.3572433  69.2153081  47.2326558  96.0288658  73.2641486
  47.2548254  96.0927991  72.3093465  47.6494617  95.1893166  73.4581992
  38.3613772 104.1392060  80.6424124  37.6195508 104.2874695  81.2288754
  38.0406517 104.4000325  79.7790873  46.3057435 113.6808038  80.4404514
  46.6144561 113.4357185  81.3127214  47.1032917 113.8854676  79.9523384
  46.3278047 115.8345948  72.6709891  45.8883037 115.3422326  73.3642747
  47.0786164 115.2918915  72.4301966  38.8070386 112.0257489  72.6734519
  39.6328406 111.7261260  72.2933162  38.4564438 111.2565111  73.1224307
  43.7751919 111.3783957  74.7432192  43.1531929 110.7154662  74.4434420
  44.4456786 111.4045089  74.0605840  37.0078991 109.9443815  73.6323452
  36.1710899 109.5165989  73.4507454  36.9802637 110.1376258  74.5694243
  43.8476447  99.8565745  84.3364698  43.8964602 100.7327868  83.9542468
  44.3898961  99.3143138  83.7636341  54.3331292 110.4006868  83.6165835
  53.5426836 110.3831007  83.0770335  54.0964647 110.9395162  84.3714872
  54.4529167 107.2499334  80.9298564  54.5027172 107.0849342  81.8714087
  54.3443091 106.3826593  80.5396445  43.3365426 109.9287880  68.2190653
  43.4853547 110.6123344  67.5657326  44.1431870 109.9092970  68.7340109
  51.7432930 103.2330262  82.2457871  52.6442793 103.0936727  81.9541868
  51.8180904 103.3984717  83.1856048  46.0775735 100.6097117  81.0911057
  45.2079045 100.9030683  80.8193645  46.3135216 101.1937562  81.8118321
  55.9547364 109.6696276  81.1740585  55.6632173 110.0326256  82.0104046
  55.3419496 108.9563284  80.9953917  54.2034553 104.7928891  79.6420643
  54.6788674 104.9856537  78.8339495  53.2800118 104.8488076  79.3964027
  41.0918059 105.9553058  69.2251722  40.8464101 105.0515388  69.4231932
  41.2613974 105.9570208  68.2831200  48.7814769  96.8276734  78.6076477
  49.2996713  97.5637761  78.2822966  48.4269902  97.1340727  79.4423236
  40.3613707 101.6881415  66.7237883  39.6682952 101.7625770  66.0677919
  40.1165459 100.9241759  67.2459400  46.8360832 112.4236011  65.6902400
  46.2634799 113.0426198  65.2372872  47.4093625 112.9735372  66.2242322
  52.9036222 101.6694651  77.8748949  53.8553644 101.7692748  77.8961173
  52.7339672 100.8772919  78.3847033  50.9250601  98.7550234  78.0608350
  50.3300533  99.0355247  77.3654839  50.6400298  99.2444135  78.8325091
  50.0558091 112.7073161  66.8210982  50.9888765 112.6418722  67.0243858
  49.9681304 113.5429428  66.3625515  55.3824299 104.8900770  76.9891249
  55.3500619 103.9516771  77.1750932  55.9924923 104.9684807  76.2557074
  47.2207630 103.7596823  63.0318453  48.1666735 103.6303031  63.1006871
  46.8421875 103.0211485  63.5087881  61.2000849 105.9516777  76.1297285
  61.9304238 105.6902065  76.6904989  60.5907795 105.2145499  76.1699353
  59.2816146 104.0924640  76.7271737  58.5549310 103.9580605  76.1188228
  58.8663433 104.4001468  77.5328455  47.1046323 107.8114569  84.4919110
  48.0249332 107.9893168  84.6859156  47.0695906 106.8670615  84.3398809
  45.4050547 101.6846800  62.9673338  44.4982003 101.3879912  63.0436052
  45.6826528 101.3876618  62.1007624  36.3228488 103.0053163  73.4172384
  36.0031272 102.1518471  73.1246758  35.7761916 103.2201741  74.1730352
  40.1008395 105.7215604  77.1341891  40.3194405 106.6532712  77.1529925
  40.5134169 105.3623578  77.9196695  47.0212613  96.2283689  69.1217579
  46.2113341  95.8830774  69.4972825  47.7097030  95.9191233  69.7105191
  44.9736261 101.2948810  86.5244640  44.8732987 102.2443167  86.4556731
  44.7557803 100.9667049  85.6520710  44.1749332  98.5433735  63.1085317
  45.0368496  98.8688633  63.3681134  44.3599676  97.7565231  62.5958383
  36.1916748 106.6256075  75.3865506  35.4980219 106.2110027  74.8735460
  36.9389739 106.6676611  74.7898925  44.8367531 104.7245949  85.3409701
  44.3534612 105.5246309  85.5473590  44.9228470 104.7353894  84.3877145
  38.1053490 106.5574328  73.2631521  38.0824178 106.6562016  72.3113404
  38.4154127 107.4039479  73.5848687  40.7640868 108.6150483  77.3778135
  41.7184122 108.5834426  77.3108067  40.5653392 108.1541107  78.1928361
  41.3540250 107.1851599  79.9448933  42.1733139 107.6795678  79.9683770
  41.6277058 106.2683568  79.9166500  51.1106846  99.5762352  69.3076888
  50.2232701  99.8612002  69.0897083  51.5260836  99.4156115  68.4604165
  39.1191097 114.1570103  74.3948333  38.9845565 113.3970504  73.8286331
  38.7023159 114.8811003  73.9277122  50.2550060 109.3407026  63.4024908
  50.9585910 109.5457029  64.0182564  49.5312709 109.9083788  63.6673992
  51.0847870 105.0916888  69.5227179  51.0283072 105.5485439  68.6834811
  51.6376213 104.3307572  69.3450021  42.2760223 115.0539420  74.6066776
  42.1592607 115.9984852  74.5045466  41.4552669 114.7512981  74.9952575
  36.6075164 101.5189733  80.6441130  37.2534028 101.0088687  81.1328355
  36.3992316 102.2558415  81.2184555  49.1328557 108.5870581  86.1433271
  50.0019716 108.7611233  85.7819905  48.6535308 109.4064998  86.0209000
  45.1278775  95.7829778  66.3965026  45.1157445  96.7271618  66.5533297
  46.0202197  95.5999923  66.1024487  43.3014737 115.7067682  77.8222704
  44.2041984 115.7391292  78.1389199  43.0752107 114.7768133  77.8369040
  45.0568339 114.4598668  74.4832783  44.1063970 114.4600530  74.3697155
  45.3600825 113.7131403  73.9668817  40.9472655  98.6657350  84.7416144
  41.8104117  98.3094155  84.9519469  40.3738066  98.3271245  85.4291548
  60.7921032 120.2959207  75.5478545  61.4299442 120.1765954  74.8441885
  60.6741875 121.2440051  75.6066497  57.6010739 120.2486635  75.4840070
  57.2629250 120.1327700  74.5960605  58.4700507 119.8477800  75.4641076
  53.4597554 122.1022111  71.4736961  52.8962420 122.0112048  70.7053249
  53.3449949 121.2822016  71.9539453  58.0830522 121.4021487  81.4426275
  58.0719162 121.0074285  80.5706779  58.2451161 120.6687559  82.0360047
  51.0061986 123.5973303  74.3121181  51.7983278 123.2564127  73.8967481
  51.2458636 123.7068278  75.2323335  59.0397113 125.7693079  66.7851426
  58.3885093 126.3547159  66.3985440  59.8341476 126.2999274  66.8446463
  52.9652740 122.8582216  67.1838560  53.7383616 122.3111203  67.0451436
  53.3178139 123.7226465  67.3953021  54.8037783 124.1858598  80.3905459
  54.5127649 125.0904229  80.2752126  55.4394767 124.2275126  81.1049529
  55.7293990 121.5635447  76.9806819  56.3257562 121.3391469  76.2663782
  55.7868961 120.8220192  77.5832267  55.3019018 119.0174882  64.8157010
  55.5544539 118.4956403  64.0540473  54.3643577 118.8541028  64.9183694
  60.3462301 118.0210661  72.6231753  61.1325390 117.6030084  72.2722170
  60.6101005 118.9256753  72.7913402  60.5172378 123.4583511  67.3220410
  59.8818211 123.5318137  68.0341315  60.1869785 124.0477110  66.6439489
  65.7470728 117.9585894  73.5264732  66.4795900 117.3885111  73.7602561
  64.9910084 117.5707494  73.9671237  55.0215307 120.9202988  67.0181385
  54.9051565 120.2447892  67.6862469  55.1317567 120.4335362  66.2013538
  57.3646848 120.3813135  70.7228074  57.0005055 119.8543756  71.4340996
  58.2213964 119.9911604  70.5494560  63.2696148 111.6707468  77.9859340
  62.9379473 112.5402879  77.7620555  62.6741762 111.3543752  78.6653371
  57.0052335 115.4103035  65.7189423  57.1726737 116.2783271  66.0859894
  56.8149504 115.5730317  64.7950712  59.7627668 123.8720014  77.3855253
  59.4628391 124.7745053  77.2771060  59.4178727 123.6052197  78.2376406
  53.2140149 120.3233811  73.4191957  52.2890646 120.1910025  73.6269649
  53.4624563 121.1028030  73.9161900  63.1624812 116.3902554  75.0652690
  62.2541689 116.3217962  74.7711451  63.1112407 116.8674499  75.8934516
  56.9841556 117.8660692  66.7036090  56.8641181 118.3117743  67.5421570
  56.2894144 118.2146010  66.1449628  50.5748960 119.9667084  74.2535747
  50.7041342 120.2201563  75.1675158  49.8946412 120.5594792  73.9340402
  54.7448448 130.6364334  70.3526221  54.6672477 131.5872159  70.4314701
  54.1410091 130.2910207  71.0101147  57.2365677 117.8092200  83.0087588
  56.4599012 118.3686120  82.9990452  57.8756241 118.2948983  83.5302458
  65.0286458 114.5918992  76.8430564  64.3860838 114.8851526  76.1970359
  64.5241387 114.4771913  77.6483761  62.6826622 118.3382166  67.5316424
  63.5944478 118.5709552  67.3564121  62.1736269 118.9219210  66.9691502
  55.4912050 120.6177653  82.5705555  56.2326734 121.1562697  82.2940378
  54.7849035 121.2443942  82.7277106  60.9667389 122.7606793  81.1677716
  61.3750745 122.3189204  80.4232349  60.2444651 122.1859421  81.4211909
  57.3198459 117.6979400  78.5411273  58.1659655 118.1218814  78.6845922
  57.2597097 117.0413025  79.2349836  61.2896204 123.3207984  74.9230005
  60.6605066 123.4853698  74.2206073  60.9021866 123.7349594  75.6940969
  65.1685436 124.2562422  72.2774369  64.4836474 124.6361323  71.7271402
  65.2529285 124.8657749  73.0106317  60.4697905 115.3583769  80.1992447
  60.2258837 116.1125829  79.6626722  60.7457835 115.7369116  81.0339694
  62.4236368 121.9022381  78.8769712  62.6353263 122.5454141  78.2004093
  62.3766116 121.0684698  78.4091642  60.0262597 114.5140202  75.7806284
  59.1647076 114.8121455  76.0723022  60.0525031 114.7310601  74.8487317
  56.8424166 123.0582392  72.1880090  57.3062511 123.3370095  71.3984713
  56.5780964 122.1565837  72.0053181  53.7348247 122.6053874  75.1259853
  54.3049604 123.0341142  74.4877338  54.3256359 122.3236458  75.8244039
  55.7793052 119.1805545  68.9969655  56.4817095 119.6326588  69.4643582
  55.4473680 118.5389363  69.6249548  54.2273414 117.7717301  83.3720865
  53.5972074 118.4533582  83.6056261  54.1209501 117.6600383  82.4274003
  49.5218386 117.4389097  74.2986789  48.7317440 117.6946626  73.8226899
  50.0129633 118.2537435  74.4038829  63.5382196 124.7794336  77.0492070
  64.3599639 124.3774524  76.7674751  63.5344598 124.6762571  78.0008185
  51.4733131 117.8033676  71.2570266  50.6764295 117.9152371  71.7753761
  51.2458724 118.1420329  70.3911156  57.3038799 124.3278380  79.2052780
  57.3683231 124.7898787  80.0410952  56.5949723 123.6975745  79.3335090
  47.8056089 117.6919588  76.7301780  48.0564127 118.5766598  76.9959356
  48.3415637 117.5124189  75.9576871  71.6288189 121.1233085  73.3977041
  70.8751897 120.5540483  73.2421046  71.7635730 121.0895749  74.3447676
  57.0186817 125.9946487  69.0731760  56.8832491 126.8398023  69.5016608
  57.5596629 126.1965765  68.3097694  53.5054156 112.0738067  85.7346116
  53.1121102 111.5204266  86.4093760  54.3220297 112.3848645  86.1252633
  50.4716214 123.5121925  69.6459686  50.9840735 124.3065175  69.7965250
  51.1238927 122.8148216  69.5793287  52.2811099 126.6287681  71.7282439
  52.4577727 127.5505646  71.5403423  53.0767932 126.3146101  72.1576819
  56.4222117 113.4895946  83.3266372  57.1631831 114.0903099  83.2470835
  56.6540040 112.7473584  82.7684415  51.5663455 118.6752313  81.6044602
  51.4516970 117.7737571  81.9051701  50.7107973 118.9216010  81.2529418
  58.6455293 126.6170054  83.2032103  58.2019147 125.8306432  82.8853007
  59.3072507 126.8049204  82.5375993  53.4042414 128.1465855  77.7292781
  53.9549839 128.0182919  76.9569775  52.5653890 128.4460744  77.3787674
  60.7436531 126.8972854  81.2313504  60.7255006 127.7181735  80.7393773
  61.6656451 126.7726929  81.4563645  57.2009585 124.4116983  82.0737012
  57.7337922 123.6505271  81.8436320  56.6723666 124.1190635  82.8161167
  60.3679280 109.5177049  77.6030654  60.0243550 110.4078691  77.5269765
  60.7358243 109.3278707  76.7400239  48.4365131 121.8410580  70.4219256
  49.2740353 122.2507588  70.2052964  48.6143398 120.9010022  70.3919450
  60.3329563 119.5085660  66.1103089  59.8176186 120.2790265  66.3491476
  60.0606871 118.8350796  66.7336151  59.4475821 111.8881704  75.5679887
  58.9440616 111.8511839  74.7547692  59.7406427 112.7974447  75.6276544
  55.6918706 111.9720434  74.5746069  56.5571703 111.7763243  74.2151958
  55.7596215 111.7430786  75.5015426  65.3063837 122.2618015  68.0456263
  64.5293280 121.9229174  67.6011425  65.9855318 122.2670638  67.3711228
  60.1215866 117.3812752  67.9362870  59.8166002 117.6958901  68.7873013
  61.0746308 117.4594172  67.9790203  58.5662298 123.5402976  69.5855824
  58.0383659 122.8055735  69.2729062  58.0649801 124.3177652  69.3395793
  63.5455144 121.7351996  74.7022871  62.8878818 122.4251257  74.7902999
  64.3495543 122.1248428  75.0456857  62.3560603 120.0896369  72.7526812
  62.8692484 120.7226361  73.2548522  63.0061827 119.4897564  72.3870172
  53.6250613 116.2327103  65.9658321  52.7887925 116.5701789  66.2867596
  53.4855382 116.0976083  65.0285458  56.7114898 121.3583186  62.5890797
  55.8041960 121.1272439  62.7881946  57.2085930 120.5620805  62.7764779
  59.6182977 130.0680693  65.5087483  58.9444676 130.3712390  66.1172441
  60.0048799 130.8709773  65.1592940  58.8341434 117.5645824  74.9985153
  57.9163995 117.7860771  74.8406841  59.2501577 117.6392135  74.1396860
  59.6176481 118.9637240  70.1287833  60.3648300 119.4758637  69.8194955
  59.8868071 118.6421293  70.9892227  57.8903132 121.4595781  67.1114787
  56.9814351 121.1754814  67.2087257  57.9198215 121.8794859  66.2518094
  63.1222399 125.0702370  70.8805955  62.6684726 124.2293280  70.9371145
  62.4916366 125.7063769  71.2180735  62.0655319 115.9994356  72.1106622
  61.3278075 115.4871742  72.4416865  62.3182092 115.5594738  71.2989899
  61.5655338 126.9078867  71.8155773  61.8578313 127.4683924  71.0968139
  62.0753959 127.2007428  72.5708932  48.4591302 119.1801295  71.0929990
  48.2615702 118.5870656  70.3681056  47.9037966 118.8753505  71.8105928
  56.4388026 119.0724401  73.2124583  56.4936635 118.1198238  73.1367059
  55.6279228 119.2283840  73.6965881  57.5879219 123.0004524  64.4502866
  57.1498649 122.2840383  63.9908503  58.3289660 123.2280639  63.8887957
  54.3780385 117.6901461  70.9714962  53.5648251 117.9895632  71.3780154
  54.8739380 117.2957150  71.6889444  56.5288963 127.6859218  72.9049226
  56.4865142 127.9120064  71.9757758  57.4451662 127.4522593  73.0535027
  59.9754597 118.1543286  79.8029855  60.3303985 118.3814759  80.6624321
  60.6226728 118.4861662  79.1807111  65.7052334 121.2761721  70.5079184
  65.5670233 121.4663317  69.5800374  65.3488553 122.0381104  70.9647236
  53.8694460 115.2619817  76.5876197  54.5093840 115.1208576  75.8899160
  53.0371991 114.9754330  76.2114799  65.7321714 123.3438248  75.5190456
  66.1658220 123.2513538  76.3673510  66.4453294 123.3195749  74.8810472
  54.6454764 124.5622247  72.7011189  55.4395363 124.0672567  72.4993764
  53.9346457 124.0340110  72.3378895  59.4649609 126.9440343  77.0523557
  59.5186631 127.5131279  77.8201273  58.5964390 127.1142228  76.6877594
  50.9537528 118.7065329  68.7770942  50.0235116 118.6449784  68.9940904
  51.0495000 118.1841281  67.9807583  50.8723077 115.2320142  71.3649183
  51.1329894 116.1465475  71.2558344  51.6940249 114.7644584  71.5145796
  52.3448002 116.6457899  78.5348008  53.0171055 116.4375261  77.8860657
  51.5177789 116.4479985  78.0953240  66.5937263 123.3861949  78.0523341
  66.7873153 124.2907760  78.2982616  66.4937881 122.9269368  78.8861926
  58.2473574 113.2719840  80.5513669  57.6001489 113.9709789  80.4578145
  59.0174589 113.7055984  80.9189917  61.6552372 123.5368692  83.6264222
  61.5037878 123.3079244  82.7094306  61.6457051 124.4939293  83.6395567
  58.4237708 121.1100605  78.6110488  59.3529768 121.2611764  78.4379456
  58.0028738 121.1984625  77.7559135  57.2226040 125.1351269  76.3809026
  57.0837126 124.7670053  77.2534964  56.4340636 125.6498908  76.2092984
  57.8174192 130.2360365  67.7234563  57.9925948 129.7648409  68.5380185
  57.1306980 130.8626132  67.9515823  58.7731255 124.5132872  73.7697864
  58.4381088 124.4733642  74.6655514  58.2735201 123.8477588  73.2968274
  52.7475499 119.9200502  79.2950445  52.6095297 119.1880741  79.8961984
  53.6580423 119.8309402  79.0134633  61.7090447 121.8588906  64.0434924
  61.0919618 121.1335734  63.9467976  61.2406935 122.6198266  63.7001998
  55.3757800 119.6320461  78.7834125  56.0857418 118.9913653  78.7420743
  55.3327108 119.8833356  79.7060305  63.3644579 126.5687814  81.7040704
  63.3057125 125.8847034  81.0371287  63.7664097 127.3106804  81.2521330
  54.0886734 116.6185679  80.6029764  53.5524091 116.1676417  81.2551360
  53.5003442 116.7531588  79.8600228  52.3835277 133.3849728  74.4974423
  52.6231876 134.0168252  75.1753441  51.5404474 133.0337768  74.7839782
  53.4988993 116.0774330  63.1656228  52.6218459 115.9563131  62.8018474
  53.9746746 115.2860409  62.9135116  63.3661986 124.5327398  79.9354684
  62.4788765 124.1953320  80.0581082  63.9360537 123.8010430  80.1723449
  45.0191133 120.8651490  73.2597735  45.7062173 120.5513220  72.6718750
  44.8639262 121.7692855  72.9864986  49.8225855 115.7541687  77.6882759
  49.7384044 115.1467356  76.9533169  49.0008562 116.2450705  77.6892255
  56.8963139 129.1928851  76.9015927  56.8233311 129.9983822  77.4135231
  56.4540532 129.3920816  76.0763948  56.6852919 128.4300621  70.4118748
  55.9020441 128.9722301  70.5056973  57.3845664 128.9474600  70.8112989
  59.9949569 114.2395250  73.0552954  60.4918269 113.4865212  72.7354024
  59.2236551 114.2759567  72.4896163  67.8479326 119.9435616  74.6971245
  67.8369203 120.8260331  74.3265178  66.9796706 119.5907167  74.5025782
  59.3561823 129.0915685  79.0574085  60.0689795 129.7263150  78.9849987
  58.8651851 129.1879551  78.2414087  61.0779350 122.9966937  70.6291377
  60.1435628 123.1168400  70.4596081  61.2556018 122.0939404  70.3651387
  56.5784538 116.3812633  72.7824638  56.2082325 115.8283674  73.4705544
  57.0743630 115.7770767  72.2299638  64.4651901 118.8384257  71.1641411
  64.9312353 119.6712248  71.0901714  64.9159402 118.3729238  71.8686670
  54.4073736 126.8410128  79.8779656  55.1083196 127.4746611  80.0309050
  53.9368851 127.1824860  79.1175296  62.5328132 125.1828078  68.1627563
  62.8087976 125.0684673  69.0721437  61.6632631 124.7845563  68.1239736
  62.4368564 111.2064844  75.2032313  61.5231644 111.4369070  75.3714519
  62.8661665 111.2903288  76.0546345  62.2075022 119.3954736  77.7032207
  61.5546473 119.6430643  77.0484659  62.5855402 118.5818874  77.3694684
  59.1682196 129.4314429  71.8060377  59.3504591 128.6136085  72.2688129
  59.9915182 129.6482121  71.3685267  59.5024362 128.3582614  69.0675425
  60.0312128 127.8475068  68.4545587  59.7652581 128.0425144  69.9320958
  58.2562595 120.1374547  84.1898244  57.5803232 120.0368676  84.8600619
  59.0790229 119.9813760  84.6534241  50.0041454 126.3746483  76.8110759
  50.5894891 125.6290171  76.9438663  49.8066293 126.6850440  77.6947423
  52.8580110 129.4097731  71.8273201  52.1890485 129.8943858  71.3437241
  52.7192979 129.6566951  72.7416580  44.5959109 118.9452083  75.5315202
  44.6343209 118.4115674  76.3252320  44.0899402 118.4187289  74.9126179
  56.9985378 131.4441474  78.4255860  57.5503686 131.6073096  79.1904945
  57.3391572 132.0345912  77.7535885  51.9749871 113.7916624  79.0277744
  52.0391198 114.6531455  78.6155142  51.9116992 113.1790626  78.2950103
  51.4502144 115.8639756  82.6750779  52.0774183 115.4816834  83.2888303
  50.5930063 115.6453958  83.0406471  61.8496253 126.2702732  84.2804514
  62.3936156 126.8832690  83.7859469  61.2683097 126.8282310  84.7971527
  48.2267687 117.6716186  68.6069133  48.5221128 116.7626864  68.5536187
  47.3255722 117.6503925  68.2850136  60.1353765 129.3923450  75.4119542
  60.0104905 128.5913189  74.9030487  60.7932857 129.8869643  74.9233512
  51.7561934 115.7472182  74.5896682  51.0348519 116.3608150  74.4504155
  52.5455189 116.2829947  74.5113328  62.1988674 127.1932470  77.0399092
  61.2519009 127.0737821  76.9677419  62.5471447 126.3054968  77.1225353
  54.5588247 113.0826609  80.8637334  55.0822649 113.3288905  81.6263643
  54.3400580 113.9146643  80.4440471  49.9555528 115.3530283  68.7308459
  49.6268234 114.4727662  68.5483565  50.3094899 115.2977952  69.6184848
  59.2035107 126.9885186  73.2403444  59.0560070 126.0601893  73.4211014
  60.0288601 127.0105277  72.7560519  53.0697351 115.6403253  69.0983936
  53.4093424 116.1689174  68.3762545  53.5169472 115.9783659  69.8742503
  62.8069229 127.8113745  74.3268317  63.7315776 127.6056606  74.1892768
  62.6384532 127.5630146  75.2357658  55.7640792 114.0240304  78.5487004
  55.4237613 113.2248117  78.9507684  55.0579799 114.3242015  77.9763838
  56.4157264 111.1089616  77.0014327  57.2383333 110.6350094  76.8793218
  56.6595328 111.8880100  77.5013014  55.0565499 114.1377875  67.2977229
  55.7773861 114.5159127  66.7940946  54.4330803 114.8566751  67.4012207
  53.9395843 117.8008737  74.8106306  53.7940424 118.1149040  75.7030587
  53.4621046 118.4193637  74.2577205  55.7992226 114.7911285  74.8587196
  55.7853794 113.8952378  74.5219493  56.5164654 114.7981949  75.4925482
  57.6518356 115.2248625  76.9040323  57.3936134 116.1465696  76.9024653
  57.1203397 114.8279060  77.5940787  62.5964545 128.3299412  69.6830408
  62.7701423 127.7645835  68.9304261  63.0893436 129.1300307  69.5009898
  48.4141505 120.3414081  77.7493967  47.8694973 121.1173889  77.8814241
  49.2920855 120.6884886  77.5913089  68.4503936 121.0935835  71.3020708
  68.8935082 120.3443160  70.9039831  67.5730447 121.0845971  70.9194440
  63.5839718 127.6466177  66.7827307  64.2790622 128.2672869  67.0014621
  63.9262868 126.7961528  67.0579685  49.2007527 119.4683977  80.6424124
  48.4589263 119.6166613  81.2288754  48.8800271 119.7292243  79.7790873
  65.4831141 125.0965882  68.3114637  66.0082465 125.4353155  67.5863957
  65.3953493 124.1612897  68.1277772  57.1451190 129.0099956  80.4404514
  57.4538316 128.7649102  81.3127214  57.9426672 129.2146594  79.9523384
  57.1671802 131.1637865  72.6709891  56.7276792 130.6714244  73.3642747
  57.9179919 130.6210833  72.4301966  49.6464141 127.3549406  72.6734519
  50.4722160 127.0553178  72.2933162  49.2958193 126.5857029  73.1224307
  54.6145674 126.7075874  74.7432192  53.9925683 126.0446579  74.4434420
  55.2850541 126.7337006  74.0605840  47.8472746 125.2735733  73.6323452
  47.0104654 124.8457907  73.4507454  47.8196391 125.4668176  74.5694243
  54.6870201 115.1857662  84.3364698  54.7358357 116.0619785  83.9542468
  55.2292715 114.6435055  83.7636341  65.1725047 125.7298786  83.6165835
  64.3820591 125.7122925  83.0770335  64.9358401 126.2687079  84.3714872
  65.2922922 122.5791252  80.9298564  65.3420927 122.4141260  81.8714087
  65.1836845 121.7118511  80.5396445  54.1759181 125.2579798  68.2190653
  54.3247301 125.9415262  67.5657326  54.9825624 125.2384888  68.7340109
  62.5826684 118.5622180  82.2457871  63.4836547 118.4228645  81.9541868
  62.6574659 118.7276635  83.1856048  56.9169490 115.9389035  81.0911057
  56.0472799 116.2322601  80.8193645  57.1528970 116.5229480  81.8118321
  66.7941119 124.9988194  81.1740585  66.5025927 125.3618174  82.0104046
  66.1813250 124.2855202  80.9953917  67.9936801 122.5641073  73.6943156
  68.8283692 123.0030877  73.8580716  68.1295930 122.0879727  72.8751401
  65.0428307 120.1220808  79.6420643  65.5182429 120.3148455  78.8339495
  64.1193872 120.1779994  79.3964027  51.9311814 121.2844975  69.2251722
  51.6857856 120.3807305  69.4231932  52.1007728 121.2862126  68.2831200
  59.6208523 112.1568652  78.6076477  60.1390467 112.8929679  78.2822966
  59.2663656 112.4632645  79.4423236  51.2007461 117.0173333  66.7237883
  50.5076706 117.0917688  66.0677919  50.9559213 116.2533677  67.2459400
  57.6754586 127.7527928  65.6902400  57.1028553 128.3718115  65.2372872
  58.2487380 128.3027290  66.2242322  63.7429976 116.9986568  77.8748949
  64.6947399 117.0984666  77.8961173  63.5733426 116.2064837  78.3847033
  61.7644355 114.0842152  78.0608350  61.1694288 114.3647164  77.3654839
  61.4794052 114.5736052  78.8325091  60.8951846 128.0365078  66.8210982
  61.8282519 127.9710640  67.0243858  60.8075059 128.8721345  66.3625515
  63.5239863 127.3530949  63.7814930  63.4453494 127.0190812  64.6750688
  64.3449529 127.8452717  63.7806402  66.2218054 120.2192688  76.9891249
  66.1894374 119.2808689  77.1750932  66.8318677 120.2976725  76.2557074
  58.0601385 119.0888741  63.0318453  59.0060489 118.9594949  63.1006871
  57.6815630 118.3503403  63.5087881  66.3712542 117.0103731  77.0349532
  65.8551591 116.2262188  76.8479461  67.2552491 116.6822448  77.1996051
  72.0394604 121.2808695  76.1297285  72.7697992 121.0193983  76.6904989
  71.4301549 120.5437417  76.1699353  70.1209901 119.4216557  76.7271737
  69.3943064 119.2872522  76.1188228  69.7057188 119.7293386  77.5328455
  57.9440077 123.1406487  84.4919110  58.8643087 123.3185086  84.6859156
  57.9089660 122.1962532  84.3398809  56.2444302 117.0138717  62.9673338
  55.3375757 116.7171830  63.0436052  56.5220283 116.7168535  62.1007624
  47.1622242 118.3345081  73.4172384  46.8425027 117.4810389  73.1246758
  46.6155670 118.5493659  74.1730352  50.9402150 121.0507522  77.1341891
  51.1588160 121.9824630  77.1529925  51.3527924 120.6915496  77.9196695
  55.8130015 116.6240728  86.5244640  55.7126742 117.5735084  86.4556731
  55.5951557 116.2958966  85.6520710  55.0143086 113.8725653  63.1085317
  55.8762250 114.1980551  63.3681134  55.1993431 113.0857148  62.5958383
  47.0310502 121.9547992  75.3865506  46.3373974 121.5401945  74.8735460
  47.7783493 121.9968529  74.7898925  55.6761285 120.0537866  85.3409701
  55.1928367 120.8538226  85.5473590  55.7622224 120.0645811  84.3877145
  48.9447245 121.8866246  73.2631521  48.9217933 121.9853933  72.3113404
  49.2547881 122.7331397  73.5848687  51.6034623 123.9442401  77.3778135
  52.5577876 123.9126343  77.3108067  51.4047146 123.4833025  78.1928361
  52.1934005 122.5143517  79.9448933  53.0126894 123.0087596  79.9683770
  52.4670812 121.5975485  79.9166500  61.9500601 114.9054269  69.3076888
  61.0626456 115.1903920  69.0897083  62.3654590 114.7448033  68.4604165
  65.3015137 114.9300790  73.0231228  66.0775527 115.4197243  73.2955844
  64.5763271 115.3558845  73.4803097  67.7387696 115.6428410  74.0805168
  68.3332186 115.4024146  73.3698476  67.8114279 114.9235540  74.7078705
  49.9584851 129.4862021  74.3948333  49.8239319 128.7262421  73.8286331
  49.5416914 130.2102920  73.9277122  61.0943814 124.6698944  63.4024908
  61.7979665 124.8748947  64.0182564  60.3706463 125.2375706  63.6673992
  61.9241625 120.4208805  69.5227179  61.8676826 120.8777357  68.6834811
  62.4769967 119.6599490  69.3450021  65.7346431 116.2098537  70.3477298
  65.4783365 115.8095173  71.1785506  65.1099299 116.9242331  70.2227437
  70.0458768 118.9494610  72.8548589  69.4858326 119.0187800  73.6280152
  69.4402272 118.7735595  72.1348086  53.1153977 130.3831338  74.6066776
  52.9986361 131.3276770  74.5045466  52.2946424 130.0804899  74.9952575
  63.0030512 125.1081473  65.4523368  63.8376116 124.6762672  65.2700843
  62.8414855 124.9363487  66.3800263  62.6576404 121.6113587  66.8179708
  62.6025208 121.4457858  65.8768152  62.0322459 122.3189619  66.9741897
  47.4468919 116.8481651  80.6441130  48.0927783 116.3380605  81.1328355
  47.2386070 117.5850333  81.2184555  59.9722311 123.9162498  86.1433271
  60.8413471 124.0903151  85.7819905  59.4929063 124.7356915  86.0209000
  54.1408491 131.0359599  77.8222704  55.0435738 131.0683210  78.1389199
  53.9145861 130.1060050  77.8369040  55.8962093 129.7890586  74.4832783
  54.9457724 129.7892448  74.3697155  56.1994580 129.0423321  73.9668817
  51.7866410 113.9949268  84.7416144  52.6497872 113.6386073  84.9519469
  51.2131821 113.6563163  85.4291548  71.6314787 135.6251124  75.5478545
  72.2693197 135.5057872  74.8441885  71.5135630 136.5731968  75.6066497
  68.4404493 135.5778552  75.4840070  68.1023005 135.4619617  74.5960605
  69.3094261 135.1769718  75.4641076  64.2991309 137.4314029  71.4736961
  63.7356174 137.3403966  70.7053249  64.1843704 136.6113933  71.9539453
  68.9224276 136.7313404  81.4426275  68.9112917 136.3366202  80.5706779
  69.0844916 135.9979477  82.0360047  61.8455741 138.9265221  74.3121181
  62.6377033 138.5856045  73.8967481  62.0852391 139.0360196  75.2323335
  69.8790868 141.0984997  66.7851426  69.2278847 141.6839077  66.3985440
  70.6735230 141.6291192  66.8446463  63.8046495 138.1874134  67.1838560
  64.5777371 137.6403121  67.0451436  64.1571894 139.0518383  67.3953021
  65.6431537 139.5150516  80.3905459  65.3521403 140.4196147  80.2752126
  66.2788522 139.5567044  81.1049529  66.5687744 136.8927365  76.9806819
  67.1651316 136.6683387  76.2663782  66.6262716 136.1512110  77.5832267
  66.1412773 134.3466800  64.8157010  66.3938293 133.8248321  64.0540473
  65.2037332 134.1832945  64.9183694  71.1856055 133.3502578  72.6231753
  71.9719145 132.9322001  72.2722170  71.4494760 134.2548670  72.7913402
  71.3566133 138.7875429  67.3220410  70.7211966 138.8610055  68.0341315
  71.0263539 139.3769027  66.6439489  76.5864483 133.2877811  73.5264732
  77.3189654 132.7177028  73.7602561  75.8303838 132.8999412  73.9671237
  65.8609061 136.2494906  67.0181385  65.7445319 135.5739809  67.6862469
  65.9711321 135.7627280  66.2013538  68.2040602 135.7105053  70.7228074
  67.8398809 135.1835674  71.4340996  69.0607718 135.3203522  70.5494560
  74.1089903 126.9999386  77.9859340  73.7773228 127.8694797  77.7620555
  73.5135516 126.6835670  78.6653371  67.8446089 130.7394953  65.7189423
  68.0120492 131.6075189  66.0859894  67.6543258 130.9022234  64.7950712
  70.6021422 139.2011932  77.3855253  70.3022145 140.1036970  77.2771060
  70.2572482 138.9344115  78.2376406  64.0533904 135.6525728  73.4191957
  63.1284400 135.5201942  73.6269649  64.3018317 136.4319948  73.9161900
  74.0018566 131.7194472  75.0652690  73.0935444 131.6509880  74.7711451
  73.9506162 132.1966417  75.8934516  67.8235310 133.1952610  66.7036090
  67.7034935 133.6409661  67.5421570  67.1287898 133.5437928  66.1449628
  61.4142715 135.2959002  74.2535747  61.5435096 135.5493481  75.1675158
  60.7340166 135.8886710  73.9340402  65.5842202 145.9656252  70.3526221
  65.5066232 146.9164077  70.4314701  64.9803846 145.6202124  71.0101147
  68.0759432 133.1384117  83.0087588  67.2992766 133.6978037  82.9990452
  68.7149995 133.6240900  83.5302458  75.8680213 129.9210910  76.8430564
  75.2254593 130.2143443  76.1970359  75.3635141 129.8063830  77.6483761
  73.5220376 133.6674083  67.5316424  74.4338232 133.9001470  67.3564121
  73.0130023 134.2511128  66.9691502  66.3305804 135.9469571  82.5705555
  67.0720489 136.4854615  82.2940378  65.6242790 136.5735859  82.7277106
  71.8061144 138.0898711  81.1677716  72.2144500 137.6481122  80.4232349
  71.0838405 137.5151339  81.4211909  68.1592214 133.0271318  78.5411273
  69.0053409 133.4510731  78.6845922  68.0990852 132.3704942  79.2349836
  72.1289959 138.6499902  74.9230005  71.4998821 138.8145616  74.2206073
  71.7415621 139.0641511  75.6940969  76.0079190 139.5854340  72.2774369
  75.3230229 139.9653241  71.7271402  76.0923040 140.1949666  73.0106317
  71.3091659 130.6875686  80.1992447  71.0652591 131.4417747  79.6626722
  71.5851590 131.0661034  81.0339694  73.2630122 137.2314299  78.8769712
  73.4747017 137.8746059  78.2004093  73.2159870 136.3976615  78.4091642
  70.8656351 129.8432119  75.7806284  70.0040830 130.1413373  76.0723022
  70.8918786 130.0602518  74.8487317  67.6817920 138.3874310  72.1880090
  68.1456266 138.6662013  71.3984713  67.4174719 137.4857754  72.0053181
  64.5742001 137.9345791  75.1259853  65.1443359 138.3633060  74.4877338
  65.1650113 137.6528376  75.8244039  66.6186806 134.5097462  68.9969655
  67.3210850 134.9618506  69.4643582  66.2867435 133.8681281  69.6249548
  65.0667168 133.1009219  83.3720865  64.4365829 133.7825500  83.6056261
  64.9603256 132.9892300  82.4274003  60.3612140 132.7681015  74.2986789
  59.5711194 133.0238543  73.8226899  60.8523388 133.5829353  74.4038829
  74.3775950 140.1086254  77.0492070  75.1993394 139.7066441  76.7674751
  74.3738353 140.0054488  78.0008185  62.3126886 133.1325594  71.2570266
  61.5158049 133.2444288  71.7753761  62.0852478 133.4712246  70.3911156
  68.1432553 139.6570297  79.2052780  68.2076986 140.1190705  80.0410952
  67.4343477 139.0267662  79.3335090  58.6449843 133.0211505  76.7301780
  58.8957882 133.9058515  76.9959356  59.1809392 132.8416107  75.9576871
  67.8580571 141.3238405  69.0731760  67.7226246 142.1689941  69.5016608
  68.3990384 141.5257682  68.3097694  64.3447911 127.4029985  85.7346116
  63.9514856 126.8496183  86.4093760  65.1614051 127.7140563  86.1252633
  61.3109968 138.8413843  69.6459686  61.8234489 139.6357093  69.7965250
  61.9632681 138.1440133  69.5793287  63.1204853 141.9579599  71.7282439
  63.2971482 142.8797564  71.5403423  63.9161687 141.6438018  72.1576819
  67.2615872 128.8187864  83.3266372  68.0025585 129.4195017  83.2470835
  67.4933795 128.0765502  82.7684415  62.4057210 134.0044231  81.6044602
  62.2910725 133.1029488  81.9051701  61.5501727 134.2507928  81.2529418
  69.4849047 141.9461971  83.2032103  69.0412902 141.1598350  82.8853007
  70.1466261 142.1341122  82.5375993  64.2436169 143.4757773  77.7292781
  64.7943594 143.3474836  76.9569775  63.4047645 143.7752662  77.3787674
  71.5830286 142.2264771  81.2313504  71.5648761 143.0473652  80.7393773
  72.5050206 142.1018847  81.4563645  68.0403340 139.7408901  82.0737012
  68.5731676 138.9797189  81.8436320  67.5117421 139.4482553  82.8161167
  71.2073035 124.8468967  77.6030654  70.8637304 125.7370608  77.5269765
  71.5751997 124.6570624  76.7400239  59.2758885 137.1702497  70.4219256
  60.1134107 137.5799506  70.2052964  59.4537153 136.2301939  70.3919450
  71.1723317 134.8377578  66.1103089  70.6569941 135.6082182  66.3491476
  70.9000626 134.1642714  66.7336151  68.7570428 129.6827279  71.1688327
  67.9012025 129.2934129  70.9893966  69.1697380 129.7619239  70.3088113
  70.2869575 127.2173622  75.5679887  69.7834371 127.1803757  74.7547692
  70.5800182 128.1266365  75.6276544  66.5312461 127.3012352  74.5746069
  67.3965458 127.1055160  74.2151958  66.5989970 127.0722703  75.5015426
  76.1457592 137.5909932  68.0456263  75.3687034 137.2521092  67.6011425
  76.8249072 137.5962556  67.3711228  70.9609621 132.7104670  67.9362870
  70.6559756 133.0250819  68.7873013  71.9140063 132.7886090  67.9790203
  69.4056052 138.8694893  69.5855824  68.8777414 138.1347653  69.2729062
  68.9043555 139.6469570  69.3395793  74.3848898 137.0643914  74.7022871
  73.7272573 137.7543175  74.7902999  75.1889298 137.4540346  75.0456857
  64.1374780 129.5314560  71.9462436  64.7118532 129.3089741  71.2135629
  64.7245762 129.6003254  72.6991037  73.1954357 135.4188286  72.7526812
  73.7086239 136.0518278  73.2548522  73.8455581 134.8189482  72.3870172
  64.4644367 131.5619021  65.9658321  63.6281679 131.8993707  66.2867596
  64.3249137 131.4268000  65.0285458  66.4397448 126.4055808  70.6737505
  65.7861860 126.0904826  70.0494120  66.3977922 125.7831549  71.3997328
  67.5508653 136.6875104  62.5890797  66.6435714 136.4564357  62.7881946
  68.0479685 135.8912723  62.7764779  70.4576731 145.3972611  65.5087483
  69.7838430 145.7004307  66.1172441  70.8442553 146.2001691  65.1592940
  69.6735188 132.8937742  74.9985153  68.7557749 133.1152689  74.8406841
  70.0895332 132.9684052  74.1396860  70.4570236 134.2929158  70.1287833
  71.2042055 134.8050555  69.8194955  70.7261825 133.9713210  70.9892227
  68.7296886 136.7887698  67.1114787  67.8208105 136.5046731  67.2087257
  68.7591970 137.2086777  66.2518094  73.9616153 140.3994288  70.8805955
  73.5078481 139.5585198  70.9371145  73.3310120 141.0355686  71.2180735
  72.9049073 131.3286274  72.1106622  72.1671830 130.8163660  72.4416865
  73.1575847 130.8886656  71.2989899  72.4049093 142.2370785  71.8155773
  72.6972067 142.7975842  71.0968139  72.9147713 142.5299346  72.5708932
  73.0060700 124.1062526  72.7048392  73.3119577 123.2459889  72.4174307
  73.7313305 124.6980146  72.5047386  59.2985056 134.5093213  71.0929990
  59.1009456 133.9162573  70.3681056  58.7431720 134.2045423  71.8105928
  67.2781780 134.4016319  73.2124583  67.3330390 133.4490155  73.1367059
  66.4672982 134.5575758  73.6965881  68.4272974 138.3296442  64.4502866
  67.9892404 137.6132301  63.9908503  69.1683415 138.5572557  63.8887957
  65.2174140 133.0193379  70.9714962  64.4042006 133.3187549  71.3780154
  65.7133134 132.6249067  71.6889444  67.3682718 143.0151136  72.9049226
  67.3258897 143.2411982  71.9757758  68.2845417 142.7814510  73.0535027
  70.8148352 133.4835203  79.8029855  71.1697739 133.7106676  80.6624321
  71.4620483 133.8153580  79.1807111  76.5446089 136.6053639  70.5079184
  76.4063987 136.7955235  69.5800374  76.1882307 137.3673022  70.9647236
  64.7088215 130.5911734  76.5876197  65.3487594 130.4500493  75.8899160
  63.8765745 130.3046248  76.2114799  76.5715468 138.6730166  75.5190456
  77.0051975 138.5805455  76.3673510  77.2847049 138.6487667  74.8810472
  65.4848519 139.8914165  72.7011189  66.2789117 139.3964485  72.4993764
  64.7740211 139.3632028  72.3378895  70.3043363 142.2732260  77.0523557
  70.3580385 142.8423197  77.8201273  69.4358144 142.4434145  76.6877594
  61.7931282 134.0357246  68.7770942  60.8628870 133.9741702  68.9940904
  61.8888754 133.5133199  67.9807583  61.7116831 130.5612059  71.3649183
  61.9723648 131.4757392  71.2558344  62.5334003 130.0936502  71.5145796
  63.1841756 131.9749816  78.5348008  63.8564810 131.7667179  77.8860657
  62.3571543 131.7771902  78.0953240  77.4331018 138.7153867  78.0523341
  77.6266908 139.6199677  78.2982616  77.3331636 138.2561286  78.8861926
  69.0867329 128.6011757  80.5513669  68.4395244 129.3001707  80.4578145
  69.8568344 129.0347901  80.9189917  72.4946126 138.8660609  83.6264222
  72.3431633 138.6371161  82.7094306  72.4850806 139.8231211  83.6395567
  69.2631463 136.4392522  78.6110488  70.1923523 136.5903682  78.4379456
  68.8422493 136.5276543  77.7559135  68.0619795 140.4643187  76.3809026
  67.9230880 140.0961971  77.2534964  67.2734391 140.9790826  76.2092984
  68.6567947 145.5652283  67.7234563  68.8319702 145.0940326  68.5380185
  67.9700735 146.1918049  67.9515823  69.6125010 139.8424789  73.7697864
  69.2774842 139.8025559  74.6655514  69.1128955 139.1769505  73.2968274
  63.5869254 135.2492419  79.2950445  63.4489052 134.5172658  79.8961984
  64.4974177 135.1601319  79.0134633  72.5484201 137.1880824  64.0434924
  71.9313372 136.4627652  63.9467976  72.0800690 137.9490184  63.7001998
  66.2151554 134.9612379  78.7834125  66.9251173 134.3205571  78.7420743
  66.1720863 135.2125274  79.7060305  74.2038333 141.8979732  81.7040704
  74.1450879 141.2138952  81.0371287  74.6057851 142.6398722  81.2521330
  64.9280488 131.9477597  80.6029764  64.3917845 131.4968335  81.2551360
  64.3397197 132.0823505  79.8600228  64.3382747 131.4066248  63.1656228
  63.4612214 131.2855049  62.8018474  64.8140500 130.6152326  62.9135116
  74.2055740 139.8619316  79.9354684  73.3182519 139.5245238  80.0581082
  74.7754291 139.1302347  80.1723449  55.8584887 136.1943408  73.2597735
  56.5455927 135.8805138  72.6718750  55.7033016 137.0984772  72.9864986
  60.6619610 131.0833604  77.6882759  60.5777798 130.4759274  76.9533169
  59.8402316 131.5742623  77.6892255  67.7356894 144.5220768  76.9015927
  67.6627065 145.3275740  77.4135231  67.2934287 144.7212734  76.0763948
  67.5246673 143.7592538  70.4118748  66.7414195 144.3014219  70.5056973
  68.2239419 144.2766518  70.8112989  70.8343323 129.5687168  73.0552954
  71.3312023 128.8157130  72.7354024  70.0630305 129.6051484  72.4896163
  78.6873081 135.2727533  74.6971245  78.6762957 136.1552249  74.3265178
  77.8190460 134.9199084  74.5025782  70.1955577 144.4207602  79.0574085
  70.9083549 145.0555067  78.9849987  69.7045606 144.5171468  78.2414087
  71.9173104 138.3258855  70.6291377  70.9829383 138.4460317  70.4596081
  72.0949773 137.4231322  70.3651387  67.4178292 131.7104551  72.7824638
  67.0476080 131.1575591  73.4705544  67.9137385 131.1062684  72.2299638
  75.3045656 134.1676174  71.1641411  75.7706108 135.0004166  71.0901714
  75.7553156 133.7021156  71.8686670  65.2467491 142.1702046  79.8779656
  65.9476950 142.8038529  80.0309050  64.7762606 142.5116777  79.1175296
  73.3721887 140.5119996  68.1627563  73.6481731 140.3976590  69.0721437
  72.5026385 140.1137480  68.1239736  73.2762318 126.5356761  75.2032313
  72.3625398 126.7660988  75.3714519  73.7055420 126.6195205  76.0546345
  73.0468777 134.7246653  77.7032207  72.3940227 134.9722561  77.0484659
  73.4249157 133.9110791  77.3694684  70.0075951 144.7606346  71.8060377
  70.1898345 143.9428002  72.2688129  70.8308937 144.9774039  71.3685267
  70.3418116 143.6874532  69.0675425  70.8705883 143.1766986  68.4545587
  70.6046336 143.3717062  69.9320958  69.0956350 135.4666464  84.1898244
  68.4196987 135.3660594  84.8600619  69.9183984 135.3105678  84.6534241
  60.8435209 141.7038401  76.8110759  61.4288646 140.9582089  76.9438663
  60.6460047 142.0142358  77.6947423  63.6973864 144.7389648  71.8273201
  63.0284239 145.2235776  71.3437241  63.5586734 144.9858869  72.7416580
  55.4352864 134.2744001  75.5315202  55.4736963 133.7407592  76.3252320
  54.9293156 133.7479207  74.9126179  67.8379133 146.7733392  78.4255860
  68.3897441 146.9365013  79.1904945  68.1785326 147.3637830  77.7535885
  62.8143626 129.1208542  79.0277744  62.8784952 129.9823372  78.6155142
  62.7510746 128.5082543  78.2950103  62.2895898 131.1931674  82.6750779
  62.9167937 130.8108751  83.2888303  61.4323817 130.9745876  83.0406471
  72.6890007 141.5994649  84.2804514  73.2329911 142.2124608  83.7859469
  72.1076852 142.1574228  84.7971527  59.0661441 133.0008103  68.6069133
  59.3614882 132.0918782  68.5536187  58.1649477 132.9795843  68.2850136
  70.9747520 144.7215367  75.4119542  70.8498659 143.9205107  74.9030487
  71.6326611 145.2161561  74.9233512  62.5955688 131.0764100  74.5896682
  61.8742274 131.6900068  74.4504155  63.3848944 131.6121865  74.5113328
  73.0382428 142.5224387  77.0399092  72.0912764 142.4029739  76.9677419
  73.3865201 141.6346885  77.1225353  65.3982002 128.4118526  80.8637334
  65.9216404 128.6580823  81.6263643  65.1794335 129.2438561  80.4440471
  60.7949283 130.6822201  68.7308459  60.4661989 129.8019580  68.5483565
  61.1488653 130.6269870  69.6184848  70.0428862 142.3177104  73.2403444
  69.8953824 141.3893811  73.4211014  70.8682355 142.3397194  72.7560519
  63.9091106 130.9695171  69.0983936  64.2487178 131.4981092  68.3762545
  64.3563226 131.3075577  69.8742503  73.6462983 143.1405662  74.3268317
  74.5709531 142.9348524  74.1892768  73.4778287 142.8922064  75.2357658
  66.6034547 129.3532221  78.5487004  66.2631367 128.5540034  78.9507684
  65.8973553 129.6533932  77.9763838  67.2551019 126.4381534  77.0014327
  68.0777088 125.9642012  76.8793218  67.4989082 127.2172018  77.5013014
  65.8959253 129.4669792  67.2977229  66.6167616 129.8451045  66.7940946
  65.2724557 130.1858669  67.4012207  70.0390376 130.1714941  68.2335561
  70.2553990 131.0539579  67.9324390  69.5584443 129.7801155  67.5041203
  64.7789597 133.1300654  74.8106306  64.6334178 133.4440958  75.7030587
  64.3014801 133.7485555  74.2577205  66.6385980 130.1203202  74.8587196
  66.6247549 129.2244296  74.5219493  67.3558408 130.1273866  75.4925482
  68.4912111 130.5540543  76.9040323  68.2329889 131.4757613  76.9024653
  67.9597151 130.1570977  77.5940787  73.4358300 143.6591330  69.6830408
  73.6095177 143.0937752  68.9304261  73.9287191 144.4592225  69.5009898
  59.2535259 135.6705999  77.7493967  58.7088728 136.4465807  77.8814241
  60.1314609 136.0176803  77.5913089  66.0422876 129.0017583  70.1274766
  66.1638787 128.0734229  70.3265653  65.7524919 129.0156269  69.2153081
  68.9114067 126.6872493  73.2641486  68.9335763 126.7511826  72.3093465
  69.3282126 125.8477002  73.4581992  79.2897691 136.4227753  71.3020708
  79.7328837 135.6735078  70.9039831  78.4124201 136.4137889  70.9194440
  74.4233472 142.9758094  66.7827307  75.1184377 143.5964787  67.0014621
  74.7656622 142.1253445  67.0579685  60.0401281 134.7975895  80.6424124
  59.2983017 134.9458531  81.2288754  59.7194026 135.0584161  79.7790873
  76.3224895 140.4257800  68.3114637  76.8476219 140.7645072  67.5863957
  76.2347248 139.4904815  68.1277772  67.9844944 144.3391873  80.4404514
  68.2932070 144.0941020  81.3127214  68.7820426 144.5438512  79.9523384
  68.0065556 146.4929783  72.6709891  67.5670546 146.0006162  73.3642747
  68.7573673 145.9502751  72.4301966  60.4857895 142.6841324  72.6734519
  61.3115915 142.3845096  72.2933162  60.1351947 141.9148946  73.1224307
  65.4539428 142.0367792  74.7432192  64.8319437 141.3738497  74.4434420
  66.1244295 142.0628924  74.0605840  58.6866500 140.6027650  73.6323452
  57.8498408 140.1749825  73.4507454  58.6590146 140.7960094  74.5694243
  65.5263956 130.5149580  84.3364698  65.5752111 131.3911703  83.9542468
  66.0686470 129.9726973  83.7636341  76.0118801 141.0590703  83.6165835
  75.2214345 141.0414842  83.0770335  75.7752156 141.5978997  84.3714872
  76.1316676 137.9083170  80.9298564  76.1814681 137.7433177  81.8714087
  76.0230600 137.0410429  80.5396445  65.0152935 140.5871715  68.2190653
  65.1641055 141.2707180  67.5657326  65.8219379 140.5676805  68.7340109
  73.4220439 133.8914098  82.2457871  74.3230302 133.7520563  81.9541868
  73.4968413 134.0568553  83.1856048  67.7563244 131.2680953  81.0911057
  66.8866554 131.5614519  80.8193645  67.9922725 131.8521398  81.8118321
  77.6334873 140.3280111  81.1740585  77.3419682 140.6910092  82.0104046
  77.0207005 139.6147120  80.9953917  78.8330556 137.8932991  73.6943156
  79.6677447 138.3322795  73.8580716  78.9689684 137.4171644  72.8751401
  75.8822061 135.4512726  79.6420643  76.3576183 135.6440372  78.8339495
  74.9587627 135.5071912  79.3964027  62.7705568 136.6136893  69.2251722
  62.5251610 135.7099223  69.4231932  62.9401483 136.6154044  68.2831200
  70.4602278 127.4860569  78.6076477  70.9784222 128.2221596  78.2822966
  70.1057411 127.7924563  79.4423236  62.0401216 132.3465251  66.7237883
  61.3470461 132.4209606  66.0677919  61.7952968 131.5825594  67.2459400
  70.7114872 123.9060852  74.1277374  70.9916626 123.2384041  74.7537800
  71.4965479 124.0989948  73.6152038  68.5148341 143.0819846  65.6902400
  67.9422308 143.7010033  65.2372872  69.0881134 143.6319208  66.2242322
  74.5823730 132.3278486  77.8748949  75.5341153 132.4276584  77.8961173
  74.4127181 131.5356755  78.3847033  72.6038110 129.4134069  78.0608350
  72.0088042 129.6939082  77.3654839  72.3187807 129.9027970  78.8325091
  71.7345600 143.3656996  66.8210982  72.6676274 143.3002558  67.0243858
  71.6468813 144.2013263  66.3625515  74.3633617 142.6822866  63.7814930
  74.2847249 142.3482730  64.6750688  75.1843284 143.1744634  63.7806402
  77.0611808 135.5484606  76.9891249  77.0288128 134.6100606  77.1750932
  77.6712432 135.6268642  76.2557074  68.8995139 134.4180659  63.0318453
  69.8454244 134.2886867  63.1006871  68.5209384 133.6795321  63.5087881
  77.2106297 132.3395649  77.0349532  76.6945345 131.5554106  76.8479461
  78.0946245 132.0114366  77.1996051  74.8717024 126.0836665  72.9945345
  74.6741845 125.7751753  73.8788676  75.4816729 126.8098304  73.1243274
  68.7833832 138.4698405  84.4919110  69.7036841 138.6477004  84.6859156
  68.7483415 137.5254450  84.3398809  67.0838056 132.3430635  62.9673338
  66.1769512 132.0463748  63.0436052  67.3614037 132.0460453  62.1007624
  58.0015997 133.6636998  73.4172384  57.6818781 132.8102307  73.1246758
  57.4549425 133.8785577  74.1730352  61.7795904 136.3799439  77.1341891
  61.9981914 137.3116547  77.1529925  62.1921678 136.0207414  77.9196695
  68.7000122 126.8867525  69.1217579  67.8900850 126.5414610  69.4972825
  69.3884539 126.5775068  69.7105191  70.6290670 125.9645572  70.7441876
  71.1821709 126.3841025  71.4031899  70.8660757 125.0381320  70.7864832
  66.6523770 131.9532645  86.5244640  66.5520496 132.9027002  86.4556731
  66.4345312 131.6250884  85.6520710  65.8536841 129.2017570  63.1085317
  66.7156005 129.5272469  63.3681134  66.0387185 128.4149066  62.5958383
  57.8704257 137.2839910  75.3865506  57.1767728 136.8693863  74.8735460
  58.6177248 137.3260446  74.7898925  74.0069477 128.0746097  70.2520540
  73.4268146 128.7330901  69.8698593  73.7405410 127.2523441  69.8407958
  72.4573044 127.4751154  72.4541860  72.9572822 127.5867689  71.6456179
  73.1008652 127.1712207  73.0942669  66.5155040 135.3829784  85.3409701
  66.0322121 136.1830144  85.5473590  66.6015979 135.3937729  84.3877145
  59.7840999 137.2158164  73.2631521  59.7611687 137.3145851  72.3113404
  60.0941636 138.0623315  73.5848687  62.4428377 139.2734319  77.3778135
  63.3971631 139.2418261  77.3108067  62.2440901 138.8124942  78.1928361
  63.0327759 137.8435435  79.9448933  63.8520648 138.3379513  79.9683770
  63.3064567 136.9267403  79.9166500  72.7894355 130.2346187  69.3076888
  71.9020210 130.5195838  69.0897083  73.2048344 130.0739950  68.4604165
  76.1408892 130.2592708  73.0231228  76.9169282 130.7489161  73.2955844
  75.4157026 130.6850762  73.4803097  60.7978606 144.8153938  74.3948333
  60.6633074 144.0554339  73.8286331  60.3810668 145.5394838  73.9277122
  71.9337569 139.9990862  63.4024908  72.6373419 140.2040864  64.0182564
  71.2100218 140.5667624  63.6673992  72.7635379 135.7500723  69.5227179
  72.7070581 136.2069274  68.6834811  73.3163722 134.9891408  69.3450021
  76.5740185 131.5390455  70.3477298  76.3177119 131.1387091  71.1785506
  75.9493053 132.2534249  70.2227437  63.9547732 145.7123255  74.6066776
  63.8380116 146.6568688  74.5045466  63.1340178 145.4096817  74.9952575
  73.8424266 140.4373391  65.4523368  74.6769870 140.0054589  65.2700843
  73.6808609 140.2655405  66.3800263  73.4970158 136.9405504  66.8179708
  73.4418962 136.7749776  65.8768152  72.8716214 137.6481537  66.9741897
  58.2862673 132.1773569  80.6441130  58.9321537 131.6672523  81.1328355
  58.0779825 132.9142250  81.2184555  70.8116066 139.2454416  86.1433271
  71.6807225 139.4195068  85.7819905  70.3322817 140.0648833  86.0209000
  66.8066284 126.4413613  66.3965026  66.7944954 127.3855453  66.5533297
  67.6989706 126.2583759  66.1024487  64.9802246 146.3651517  77.8222704
  65.8829493 146.3975127  78.1389199  64.7539616 145.4351968  77.8369040
  66.7355848 145.1182504  74.4832783  65.7851479 145.1184365  74.3697155
  67.0388334 144.3715238  73.9668817  70.6218403 123.0356390  70.6510963
  69.8550799 122.4814877  70.7967645  71.0329108 123.1078259  71.5125115
  62.6260164 129.3241186  84.7416144  63.4891626 128.9677991  84.9519469
  62.0525575 128.9855081  85.4291548  82.4708541 150.9543042  75.5478545
  83.1086951 150.8349789  74.8441885  82.3529384 151.9023886  75.6066497
  79.2798248 150.9070470  75.4840070  78.9416759 150.7911535  74.5960605
  80.1488016 150.5061635  75.4641076  75.1385063 152.7605947  71.4736961
  74.5749928 152.6695884  70.7053249  75.0237458 151.9405851  71.9539453
  79.7618031 152.0605322  81.4426275  79.7506671 151.6658120  80.5706779
  79.9238670 151.3271395  82.0360047  77.4081499 152.2219282  76.9806819
  78.0045071 151.9975305  76.2663782  77.4656470 151.4804028  77.5832267
  76.9806527 149.6758718  64.8157010  77.2332048 149.1540239  64.0540473
  76.0431086 149.5124863  64.9183694  82.0249810 148.6794496  72.6231753
  82.8112899 148.2613919  72.2722170  82.2888514 149.5840588  72.7913402
  82.1959887 154.1167346  67.3220410  81.5605720 154.1901973  68.0341315
  81.8657294 154.7060945  66.6439489  87.4258237 148.6169729  73.5264732
  88.1583409 148.0468946  73.7602561  86.6697593 148.2291330  73.9671237
  76.7002816 151.5786824  67.0181385  76.5839074 150.9031727  67.6862469
  76.8105076 151.0919197  66.2013538  79.0434357 151.0396971  70.7228074
  78.6792564 150.5127592  71.4340996  79.9001473 150.6495440  70.5494560
  84.9483657 142.3291303  77.9859340  84.6166982 143.1986714  77.7620555
  84.3529271 142.0127587  78.6653371  78.6839844 146.0686870  65.7189423
  78.8514246 146.9367107  66.0859894  78.4937013 146.2314152  64.7950712
  74.8927658 150.9817646  73.4191957  73.9678155 150.8493860  73.6269649
  75.1412072 151.7611865  73.9161900  84.8412321 147.0486389  75.0652690
  83.9329198 146.9801798  74.7711451  84.7899916 147.5258334  75.8934516
  78.6629065 148.5244528  66.7036090  78.5428690 148.9701579  67.5421570
  77.9681653 148.8729845  66.1449628  72.2536469 150.6250920  74.2535747
  72.3828851 150.8785399  75.1675158  71.5733921 151.2178628  73.9340402
  78.9153186 148.4676035  83.0087588  78.1386521 149.0269955  82.9990452
  79.5543749 148.9532818  83.5302458  86.7073967 145.2502828  76.8430564
  86.0648347 145.5435361  76.1970359  86.2028896 145.1355748  77.6483761
  84.3614131 148.9966001  67.5316424  85.2731987 149.2293388  67.3564121
  83.8523778 149.5803045  66.9691502  77.1699559 151.2761488  82.5705555
  77.9114243 151.8146532  82.2940378  76.4636544 151.9027777  82.7277106
  82.6454898 153.4190629  81.1677716  83.0538254 152.9773039  80.4232349
  81.9232160 152.8443256  81.4211909  78.9985968 148.3563236  78.5411273
  79.8447164 148.7802649  78.6845922  78.9384606 147.6996860  79.2349836
  82.9683713 153.9791819  74.9230005  82.3392575 154.1437534  74.2206073
  82.5809375 154.3933429  75.6940969  86.8472945 154.9146257  72.2774369
  86.1623983 155.2945159  71.7271402  86.9316794 155.5241584  73.0106317
  82.1485414 146.0167604  80.1992447  81.9046346 146.7709664  79.6626722
  82.4245344 146.3952952  81.0339694  84.1023877 152.5606216  78.8769712
  84.3140772 153.2037976  78.2004093  84.0553625 151.7268533  78.4091642
  81.7050105 145.1724037  75.7806284  80.8434585 145.4705291  76.0723022
  81.7312540 145.3894436  74.8487317  78.5211675 153.7166228  72.1880090
  78.9850020 153.9953931  71.3984713  78.2568473 152.8149672  72.0053181
  77.4580561 149.8389380  68.9969655  78.1604604 150.2910424  69.4643582
  77.1261189 149.1973199  69.6249548  75.9060922 148.4301137  83.3720865
  75.2759583 149.1117417  83.6056261  75.7997010 148.3184218  82.4274003
  71.2005895 148.0972933  74.2986789  70.4104949 148.3530461  73.8226899
  71.6917142 148.9121270  74.4038829  85.2169704 155.4378172  77.0492070
  86.0387148 155.0358359  76.7674751  85.2132107 155.3346406  78.0008185
  73.1520640 148.4617512  71.2570266  72.3551804 148.5736206  71.7753761
  72.9246233 148.8004164  70.3911156  69.4843598 148.3503423  76.7301780
  69.7351636 149.2350433  76.9959356  70.0203146 148.1708025  75.9576871
  93.3075698 151.7816920  73.3977041  92.5539406 151.2124318  73.2421046
  93.4423239 151.7479585  74.3447676  75.1841665 142.7321902  85.7346116
  74.7908611 142.1788101  86.4093760  76.0007806 143.0432481  86.1252633
  78.1009626 144.1479781  83.3266372  78.8419340 144.7486935  83.2470835
  78.3327549 143.4057419  82.7684415  73.2450964 149.3336149  81.6044602
  73.1304479 148.4321406  81.9051701  72.3895482 149.5799845  81.2529418
  82.0466789 140.1760884  77.6030654  81.7031059 141.0662526  77.5269765
  82.4145752 139.9862542  76.7400239  82.0117072 150.1669496  66.1103089
  81.4963695 150.9374100  66.3491476  81.7394380 149.4934632  66.7336151
  79.5964183 145.0119196  71.1688327  78.7405779 144.6226047  70.9893966
  80.0091135 145.0911157  70.3088113  81.1263330 142.5465540  75.5679887
  80.6228125 142.5095675  74.7547692  81.4193936 143.4558282  75.6276544
  77.3706215 142.6304269  74.5746069  78.2359212 142.4347078  74.2151958
  77.4383724 142.4014621  75.5015426  86.9851346 152.9201850  68.0456263
  86.2080789 152.5813010  67.6011425  87.6642827 152.9254473  67.3711228
  81.8003375 148.0396588  67.9362870  81.4953511 148.3542737  68.7873013
  82.7533817 148.1178007  67.9790203  85.2242653 152.3935831  74.7022871
  84.5666327 153.0835093  74.7902999  86.0283052 152.7832263  75.0456857
  74.9768535 144.8606477  71.9462436  75.5512286 144.6381659  71.2135629
  75.5639517 144.9295172  72.6991037  84.0348112 150.7480204  72.7526812
  84.5479993 151.3810196  73.2548522  84.6849336 150.1481400  72.3870172
  75.3038122 146.8910938  65.9658321  74.4675434 147.2285625  66.2867596
  75.1642891 146.7559918  65.0285458  77.2791202 141.7347726  70.6737505
  76.6255615 141.4196743  70.0494120  77.2371676 141.1123467  71.3997328
  78.3902407 152.0167021  62.5890797  77.4829469 151.7856275  62.7881946
  78.8873439 151.2204640  62.7764779  80.5128943 148.2229660  74.9985153
  79.5951504 148.4444607  74.8406841  80.9289086 148.2975970  74.1396860
  81.2963990 149.6221075  70.1287833  82.0435809 150.1342473  69.8194955
  81.5655580 149.3005128  70.9892227  79.5690641 152.1179616  67.1114787
  78.6601860 151.8338649  67.2087257  79.5985724 152.5378695  66.2518094
  83.7442827 146.6578192  72.1106622  83.0065584 146.1455578  72.4416865
  83.9969601 146.2178573  71.2989899  70.1378811 149.8385130  71.0929990
  69.9403211 149.2454491  70.3681056  69.5825475 149.5337340  71.8105928
  78.1175535 149.7308237  73.2124583  78.1724144 148.7782073  73.1367059
  77.3066737 149.8867676  73.6965881  79.2666728 153.6588360  64.4502866
  78.8286158 152.9424219  63.9908503  80.0077169 153.8864475  63.8887957
  76.0567894 148.3485296  70.9714962  75.2435760 148.6479467  71.3780154
  76.5526889 147.9540985  71.6889444  81.6542106 148.8127121  79.8029855
  82.0091494 149.0398594  80.6624321  82.3014237 149.1445498  79.1807111
  87.3839843 151.9345557  70.5079184  87.2457742 152.1247153  69.5800374
  87.0276062 152.6964940  70.9647236  75.5481969 145.9203652  76.5876197
  76.1881349 145.7792411  75.8899160  74.7159500 145.6338165  76.2114799
  87.4109223 154.0022084  75.5190456  87.8445729 153.9097373  76.3673510
  88.1240803 153.9779584  74.8810472  72.6325037 149.3649164  68.7770942
  71.7022625 149.3033620  68.9940904  72.7282509 148.8425117  67.9807583
  72.5510586 145.8903977  71.3649183  72.8117403 146.8049310  71.2558344
  73.3727758 145.4228419  71.5145796  74.0235511 147.3041734  78.5348008
  74.6958564 147.0959096  77.8860657  73.1965298 147.1063820  78.0953240
  88.2724772 154.0445784  78.0523341  88.4660662 154.9491595  78.2982616
  88.1725390 153.5853203  78.8861926  79.9261083 143.9303675  80.5513669
  79.2788998 144.6293625  80.4578145  80.6962098 144.3639819  80.9189917
  83.3339881 154.1952527  83.6264222  83.1825387 153.9663079  82.7094306
  83.3244560 155.1523129  83.6395567  80.1025217 151.7684440  78.6110488
  81.0317277 151.9195600  78.4379456  79.6816247 151.8568461  77.7559135
  74.4263008 150.5784337  79.2950445  74.2882806 149.8464576  79.8961984
  75.3367932 150.4893237  79.0134633  83.3877956 152.5172741  64.0434924
  82.7707127 151.7919570  63.9467976  82.9194444 153.2782102  63.7001998
  77.0545309 150.2904296  78.7834125  77.7644927 149.6497489  78.7420743
  77.0114617 150.5417191  79.7060305  75.7674243 147.2769514  80.6029764
  75.2311600 146.8260253  81.2551360  75.1790951 147.4115423  79.8600228
  75.1776502 146.7358166  63.1656228  74.3005968 146.6146966  62.8018474
  75.6534255 145.9444244  62.9135116  85.0449495 155.1911234  79.9354684
  84.1576274 154.8537155  80.0581082  85.6148046 154.4594265  80.1723449
  71.5013364 146.4125522  77.6882759  71.4171553 145.8051192  76.9533169
  70.6796071 146.9034540  77.6892255  81.6737078 144.8979085  73.0552954
  82.1705778 144.1449048  72.7354024  80.9024059 144.9343402  72.4896163
  89.5266835 150.6019451  74.6971245  89.5156712 151.4844166  74.3265178
  88.6584215 150.2491002  74.5025782  82.7566859 153.6550773  70.6291377
  81.8223137 153.7752235  70.4596081  82.9343527 152.7523239  70.3651387
  78.2572047 147.0396468  72.7824638  77.8869834 146.4867509  73.4705544
  78.7531139 146.4354602  72.2299638  86.1439410 149.4968092  71.1641411
  86.6099862 150.3296084  71.0901714  86.5946911 149.0313074  71.8686670
  84.2115641 155.8411913  68.1627563  84.4875485 155.7268508  69.0721437
  83.3420140 155.4429398  68.1239736  83.8862531 150.0538571  77.7032207
  83.2333982 150.3014478  77.0484659  84.2642911 149.2402709  77.3694684
  79.9350104 150.7958382  84.1898244  79.2590741 150.6952511  84.8600619
  80.7577738 150.6397596  84.6534241  66.2746618 149.6035919  75.5315202
  66.3130718 149.0699509  76.3252320  65.7686911 149.0771124  74.9126179
  73.6537380 144.4500459  79.0277744  73.7178707 145.3115290  78.6155142
  73.5904501 143.8374461  78.2950103  73.1289653 146.5223592  82.6750779
  73.7561692 146.1400669  83.2888303  72.2717572 146.3037794  83.0406471
  69.9055196 148.3300021  68.6069133  70.2008637 147.4210699  68.5536187
  69.0043231 148.3087760  68.2850136  73.4349443 146.4056017  74.5896682
  72.7136028 147.0191985  74.4504155  74.2242698 146.9413782  74.5113328
  76.2375756 143.7410444  80.8637334  76.7610158 143.9872741  81.6263643
  76.0188089 144.5730479  80.4440471  71.6343037 146.0114119  68.7308459
  71.3055743 145.1311497  68.5483565  71.9882408 145.9561787  69.6184848
  74.7484860 146.2987088  69.0983936  75.0880933 146.8273010  68.3762545
  75.1956981 146.6367494  69.8742503  77.4428301 144.6824139  78.5487004
  77.1025122 143.8831952  78.9507684  76.7367308 144.9825850  77.9763838
  78.0944773 141.7673452  77.0014327  78.9170842 141.2933930  76.8793218
  78.3382837 142.5463935  77.5013014  76.7353008 144.7961710  67.2977229
  77.4561370 145.1742963  66.7940946  76.1118312 145.5150587  67.4012207
  80.8784130 145.5006859  68.2335561  81.0947745 146.3831497  67.9324390
  80.3978198 145.1093072  67.5041203  75.6183352 148.4592572  74.8106306
  75.4727933 148.7732875  75.7030587  75.1408555 149.0777472  74.2577205
  77.4779735 145.4495120  74.8587196  77.4641303 144.5536213  74.5219493
  78.1952163 145.4565784  75.4925482  79.3305865 145.8832460  76.9040323
  79.0723643 146.8049531  76.9024653  78.7990906 145.4862895  77.5940787
  76.8816631 144.3309500  70.1274766  77.0032542 143.4026147  70.3265653
  76.5918673 144.3448186  69.2153081  79.7507821 142.0164411  73.2641486
  79.7729518 142.0803744  72.3093465  80.1675880 141.1768920  73.4581992
  90.1291445 151.7519670  71.3020708  90.5722591 151.0026996  70.9039831
  89.2517956 151.7429807  70.9194440  70.8795036 150.1267813  80.6424124
  70.1376772 150.2750448  81.2288754  70.5587780 150.3876078  79.7790873
  87.1618650 155.7549717  68.3114637  87.6869974 156.0936990  67.5863957
  87.0741002 154.8196733  68.1277772  76.3657710 145.8441498  84.3364698
  76.4145866 146.7203621  83.9542468  76.9080224 145.3018891  83.7636341
  86.8512556 156.3882621  83.6165835  86.0608100 156.3706760  83.0770335
  86.6145910 156.9270915  84.3714872  86.9710431 153.2375087  80.9298564
  87.0208436 153.0725095  81.8714087  86.8624354 152.3702346  80.5396445
  84.2614193 149.2206015  82.2457871  85.1624056 149.0812480  81.9541868
  84.3362168 149.3860470  83.1856048  78.5956999 146.5972870  81.0911057
  77.7260308 146.8906436  80.8193645  78.8316479 147.1813315  81.8118321
  88.4728628 155.6572029  81.1740585  88.1813436 156.0202009  82.0104046
  87.8600759 154.9439037  80.9953917  89.6724310 153.2224909  73.6943156
  90.5071201 153.6614713  73.8580716  89.8083439 152.7463562  72.8751401
  86.7215816 150.7804644  79.6420643  87.1969938 150.9732290  78.8339495
  85.7981381 150.8363829  79.3964027  73.6099323 151.9428811  69.2251722
  73.3645365 151.0391141  69.4231932  73.7795237 151.9445961  68.2831200
  81.2996032 142.8152487  78.6076477  81.8177976 143.5513514  78.2822966
  80.9451165 143.1216480  79.4423236  72.8794970 147.6757168  66.7237883
  72.1864215 147.7501523  66.0677919  72.6346722 146.9117512  67.2459400
  85.4217485 147.6570404  77.8748949  86.3734908 147.7568501  77.8961173
  85.2520935 146.8648672  78.3847033  83.4431864 144.7425987  78.0608350
  82.8481797 145.0231000  77.3654839  83.1581561 145.2319888  78.8325091
  87.9005563 150.8776523  76.9891249  87.8681883 149.9392524  77.1750932
  88.5106186 150.9560560  76.2557074  79.7388894 149.7472576  63.0318453
  80.6847998 149.6178784  63.1006871  79.3603139 149.0087238  63.5087881
  88.0500051 147.6687567  77.0349532  87.5339100 146.8846023  76.8479461
  88.9340000 147.3406283  77.1996051  85.7110778 141.4128582  72.9945345
  85.5135599 141.1043671  73.8788676  86.3210484 142.1390221  73.1243274
  93.7182113 151.9392530  76.1297285  94.4485501 151.6777818  76.6904989
  93.1089058 151.2021252  76.1699353  91.7997410 150.0800393  76.7271737
  91.0730573 149.9456358  76.1188228  91.3844697 150.3877221  77.5328455
  79.6227586 153.7990322  84.4919110  80.5430596 153.9768921  84.6859156
  79.5877169 152.8546368  84.3398809  77.9231811 147.6722553  62.9673338
  77.0163266 147.3755665  63.0436052  78.2007792 147.3752371  62.1007624
  68.8409751 148.9928916  73.4172384  68.5212536 148.1394224  73.1246758
  68.2943179 149.2077494  74.1730352  79.5393877 142.2159442  69.1217579
  78.7294605 141.8706527  69.4972825  80.2278293 141.9066986  69.7105191
  81.4684425 141.2937489  70.7441876  82.0215463 141.7132943  71.4031899
  81.7054511 140.3673237  70.7864832  77.4917524 147.2824563  86.5244640
  77.3914251 148.2318920  86.4556731  77.2739066 146.9542802  85.6520710
  76.6930595 144.5309488  63.1085317  77.5549759 144.8564386  63.3681134
  76.8780940 143.7440984  62.5958383  84.8463232 143.4038014  70.2520540
  84.2661901 144.0622818  69.8698593  84.5799165 142.5815359  69.8407958
  83.2966798 142.8043072  72.4541860  83.7966577 142.9159607  71.6456179
  83.9402406 142.5004125  73.0942669  77.3548794 150.7121702  85.3409701
  76.8715876 151.5122062  85.5473590  77.4409733 150.7229647  84.3877145
  83.6288110 145.5638105  69.3076888  82.7413965 145.8487755  69.0897083
  84.0442099 145.4031868  68.4604165  86.9802646 145.5884626  73.0231228
  87.7563036 146.0781078  73.2955844  86.2550780 146.0142680  73.4803097
  89.4175205 146.3012245  74.0805168  90.0119695 146.0607981  73.3698476
  89.4901788 145.5819376  74.7078705  83.6029134 151.0792641  69.5227179
  83.5464335 151.5361192  68.6834811  84.1557476 150.3183325  69.3450021
  87.4133940 146.8682373  70.3477298  87.1570874 146.4679008  71.1785506
  86.7886808 147.5826166  70.2227437  91.7246277 149.6078446  72.8548589
  91.1645835 149.6771635  73.6280152  91.1189781 149.4319430  72.1348086
  84.6818021 155.7665309  65.4523368  85.5163625 155.3346507  65.2700843
  84.5202364 155.5947322  66.3800263  84.3363913 152.2697422  66.8179708
  84.2812717 152.1041693  65.8768152  83.7109968 152.9773455  66.9741897
  69.1256428 147.5065486  80.6441130  69.7715292 146.9964440  81.1328355
  68.9173579 148.2434168  81.2184555  77.6460038 141.7705531  66.3965026
  77.6338708 142.7147371  66.5533297  78.5383460 141.5875676  66.1024487
  81.4612158 138.3648308  70.6510963  80.6944554 137.8106794  70.7967645
  81.8722863 138.4370176  71.5125115  73.4653919 144.6533103  84.7416144
  74.3285380 144.2969908  84.9519469  72.8919330 144.3146998  85.4291548
  95.7877412 157.6583221  77.9859340  95.4560737 158.5278632  77.7620555
  95.1923025 157.3419505  78.6653371  92.8860544 155.5052802  77.6030654
  92.5424813 156.3954444  77.5269765  93.2539506 155.3154460  76.7400239
  91.9657084 157.8757457  75.5679887  91.4621880 157.8387592  74.7547692
  92.2587691 158.7850200  75.6276544  88.1184957 157.0639644  70.6737505
  87.4649369 156.7488661  70.0494120  88.0765431 156.4415384  71.3997328
  94.6848209 154.7646361  72.7048392  94.9907086 153.9043725  72.4174307
  95.4100814 155.3563981  72.5047386  94.9549827 157.1940597  75.2032313
  94.0412907 157.4244824  75.3714519  95.3842929 157.2779041  76.0546345
  88.9338528 157.0965369  77.0014327  89.7564597 156.6225847  76.8793218
  89.1776591 157.8755853  77.5013014  90.5901576 157.3456329  73.2641486
  90.6123272 157.4095662  72.3093465  91.0069635 156.5060837  73.4581992
  92.1389787 158.1444405  78.6076477  92.6571731 158.8805432  78.2822966
  91.7844920 158.4508398  79.4423236  92.3902381 154.5644687  74.1277374
  92.6704135 153.8967876  74.7537800  93.1752988 154.7573783  73.6152038
  96.5504533 156.7420500  72.9945345  96.3529354 156.4335588  73.8788676
  97.1604238 157.4682139  73.1243274  90.3787631 157.5451360  69.1217579
  89.5688359 157.1998445  69.4972825  91.0672048 157.2358904  69.7105191
  92.3078179 156.6229407  70.7441876  92.8609218 157.0424860  71.4031899
  92.5448266 155.6965155  70.7864832  95.6856986 158.7329932  70.2520540
  95.1055655 159.3914736  69.8698593  95.4192919 157.9107277  69.8407958
  94.1360553 158.1334990  72.4541860  94.6360331 158.2451524  71.6456179
  94.7796161 157.8296043  73.0942669  92.3005912 153.6940225  70.6510963
  91.5338308 153.1398712  70.7967645  92.7116617 153.7662094  71.5125115
   6.5952261  20.6561741  62.2723852   7.2330671  20.5368488  61.5687192
   6.4773104  21.6042585  62.3311804   3.4041967  20.6089169  62.2085377
   3.0660479  20.4930234  61.3205911   4.2731736  20.2080334  62.1886383
   3.8861750  21.7624021  68.1671582   3.8750391  21.3676819  67.2952086
   4.0482390  21.0290093  68.7605354   4.8428342  26.1295613  53.5096732
   4.1916322  26.7149694  53.1230746   5.6372705  26.6601808  53.5691770
   6.1493530  18.3813195  59.3477060   6.9356619  17.9632618  58.9967477
   6.4132234  19.2859287  59.5158708   6.3203607  23.8186045  54.0465717
   5.6849440  23.8920672  54.7586621   5.9901013  24.4079644  53.3684796
  11.5501957  18.3188428  60.2510038  12.2827129  17.7487645  60.4847868
  10.7941313  17.9310028  60.6916544   5.5658897  24.2322548  64.1100560
   5.2659620  25.1347587  64.0016367   5.2209956  23.9654731  64.9621713
   8.4857851  18.6984700  54.2561730   9.3975707  18.9312087  54.0809428
   7.9767498  19.2821744  53.6936809   6.7698618  23.1209328  67.8923023
   7.1781974  22.6791738  67.1477655   6.0475880  22.5461955  68.1457216
   7.0927433  23.6810518  61.6475312   6.4636295  23.8456232  60.9451380
   6.7053095  24.0952128  62.4186276  10.9716665  24.6164956  59.0019675
  10.2867703  24.9963858  58.4516709  11.0560514  25.2260283  59.7351623
   8.2267596  22.2624915  65.6015019   8.4384492  22.9056675  64.9249400
   8.1797345  21.4287232  65.1336949   2.6455395  23.4184926  58.9125397
   3.1093740  23.6972629  58.1230019   2.3812193  22.5168371  58.7298487
   9.3413424  25.1396871  63.7737376  10.1630868  24.7377058  63.4920058
   9.3375827  25.0365105  64.7253492   3.1070028  24.6880914  65.9298087
   3.1714460  25.1501321  66.7656259   2.3980952  24.0578279  66.0580397
  17.4319417  21.4835619  60.1222348  16.6783126  20.9143017  59.9666352
  17.5666959  21.4498284  61.0692982   2.8218045  26.3549021  55.7977067
   2.6863720  27.2000557  56.2261915   3.3627858  26.5568299  55.0343001
   4.4486522  26.9772588  69.9277409   4.0050376  26.1908966  69.6098314
   5.1103735  27.1651738  69.2621300   6.5467760  27.2575388  67.9558810
   6.5286235  28.0784269  67.4639080   7.4687680  27.1329463  68.1808952
   3.0040814  24.7719517  68.7982319   3.5369151  24.0107805  68.5681627
   2.4754895  24.4793169  69.5406473   6.1360792  19.8688194  52.8348396
   5.6207415  20.6392799  53.0736783   5.8638100  19.1953331  53.4581457
  11.1095066  22.6220549  54.7701569  10.3324509  22.2831709  54.3256731
  11.7886547  22.6273172  54.0956534   4.3693527  23.9005510  56.3101131
   3.8414888  23.1658269  55.9974368   3.8681029  24.6780186  56.0641099
   9.3486373  22.0954530  61.4268177   8.6910047  22.7853792  61.5148306
  10.1526772  22.4850962  61.7702164   8.1591832  20.4498903  59.4772119
   8.6723713  21.0828895  59.9793829   8.8093055  19.8500098  59.1115479
   2.5146127  21.7185720  49.3136104   1.6073189  21.4874973  49.5127253
   3.0117159  20.9223339  49.5010085   5.4214206  30.4283227  52.2332790
   4.7475905  30.7314924  52.8417748   5.8080028  31.2312308  51.8838247
   5.4207710  19.3239774  56.8533140   6.1679529  19.8361171  56.5440262
   5.6899300  19.0023827  57.7137533   3.6934360  21.8198315  53.8360094
   2.7845580  21.5357348  53.9332564   3.7229444  22.2397393  52.9763401
   8.9253628  25.4304904  57.6051262   8.4715955  24.5895814  57.6616452
   8.2947594  26.0666303  57.9426042   7.3686567  27.2681401  58.5401080
   7.6609541  27.8286458  57.8213445   7.8785188  27.5609962  59.2954239
   3.3910448  23.3607059  51.1748173   2.9529878  22.6442918  50.7153810
   4.1320889  23.5883173  50.6133264   2.3320192  28.0461752  59.6294533
   2.2896371  28.2722598  58.7003065   3.2482891  27.8125127  59.7780334
   5.7785826  18.5145820  66.5275162   6.1335214  18.7417293  67.3869628
   6.4257957  18.8464197  65.9052417  11.5083563  21.6364256  57.2324491
  11.3701462  21.8265852  56.3045680  11.1519782  22.3983638  57.6892542
  11.5352943  23.7040783  62.2435763  11.9689449  23.6116072  63.0918817
  12.2484523  23.6798283  61.6055779   5.2680837  27.3042877  63.7768863
   5.3217860  27.8733813  64.5446579   4.3995619  27.4744762  63.4122900
  12.3968492  23.7464483  64.7768648  12.5904382  24.6510294  65.0227923
  12.2969110  23.2871902  65.6107233   7.4583601  23.8971226  70.3509529
   7.3069107  23.6681778  69.4339612   7.4488280  24.8541827  70.3640874
   4.2268937  21.4703139  65.3355795   5.1560997  21.6214298  65.1624762
   3.8059967  21.5587160  64.4804442   3.0257269  25.4953803  63.1054333
   2.8868355  25.1272588  63.9780271   2.2371865  26.0101443  62.9338291
   3.6205421  30.5962900  54.4479869   3.7957177  30.1250943  55.2625492
   2.9338209  31.2228666  54.6761130   4.5762484  24.8735406  60.4943171
   4.2412317  24.8336176  61.3900820   4.0766430  24.2080122  60.0213581
   7.5121676  22.2191440  50.7680230   6.8950846  21.4938268  50.6713283
   7.0438164  22.9800801  50.4247304   9.1675807  26.9290349  68.4286011
   9.1088354  26.2449569  67.7616594   9.5695326  27.6709339  67.9766637
   9.1693215  24.8929933  66.6599990   8.2819993  24.5555854  66.7826389
   9.7391766  24.1612964  66.8968756   2.6994368  29.5531385  63.6261233
   2.6264540  30.3586356  64.1380538   2.2571761  29.7523351  62.8009255
   2.4884148  28.7903155  57.1364055   1.7051670  29.3324835  57.2302279
   3.1876893  29.3077135  57.5358296  13.6510555  20.3038150  61.4216552
  13.6400431  21.1862865  61.0510485  12.7827935  19.9509701  61.2271089
   5.1593052  29.4518219  65.7819392   5.8721024  30.0865684  65.7095294
   4.6683080  29.5482085  64.9659394   6.8810579  23.3569472  57.3536684
   5.9466857  23.4770934  57.1841388   7.0587247  22.4541938  57.0896694
  10.2683130  19.1986791  57.8886718  10.7343582  20.0314782  57.8147021
  10.7190630  18.7331772  58.5931976   8.3359361  25.5430612  54.8872870
   8.6119205  25.4287207  55.7966744   7.4663860  25.1448097  54.8485043
   8.0106251  19.7557270  64.4277513   7.3577701  20.0033177  63.7729966
   8.3886631  18.9421408  64.0939991   4.9713425  29.7916963  58.5305684
   5.1535820  28.9738619  58.9933436   5.7946411  30.0084655  58.0930574
   5.3055590  28.7185148  55.7920732   5.8343357  28.2077603  55.1790894
   5.5683810  28.4027678  56.6566265   4.0593824  20.4977081  70.9143550
   3.3834461  20.3971210  71.5845926   4.8821458  20.3416295  71.3779548
   2.8016607  31.8044008  65.1501166   3.3534915  31.9675630  65.9150252
   3.1422800  32.3948446  64.4781191   7.6527481  26.6305266  71.0049821
   8.1967385  27.2435224  70.5104776   7.0714326  27.1884844  71.5216834
   5.9384994  29.7525984  62.1364848   5.8136134  28.9515724  61.6275794
   6.5964085  30.2472177  61.6478818   8.0019903  27.5535004  63.7644399
   7.0550238  27.4340355  63.6922725   8.3502676  26.6657502  63.8470660
   5.0066336  27.3487720  59.9648751   4.8591298  26.4204428  60.1456321
   5.8319829  27.3707811  59.4805826   8.6100458  28.1716279  61.0513624
   9.5347005  27.9659140  60.9138075   8.4415761  27.9232680  61.9602965
   8.3995774  28.6901946  56.4075715   8.5732652  28.1248369  55.6549567
   8.8924665  29.4902841  56.2255205  14.2535165  21.4538369  58.0266015
  14.6966311  20.7045694  57.6285138  13.3761675  21.4448506  57.6439747
   9.3870947  28.0068711  53.5072613  10.0821851  28.6275403  53.7259928
   9.7294097  27.1564062  53.7824991  11.2862370  25.4568416  55.0359944
  11.8113694  25.7955689  54.3109264  11.1984722  24.5215432  54.8523079
   2.9482418  29.3702490  67.1649821   3.2569545  29.1251637  68.0372520
   3.7457900  29.5749128  66.6768691   2.9703030  31.5240400  59.3955197
   2.5308021  31.0316778  60.0888054   3.7211147  30.9813367  59.1547272
  10.9756276  26.0901320  70.3411142  10.1851819  26.0725459  69.8015641
  10.7389630  26.6289614  71.0960179  11.0954151  22.9393786  67.6543871
  11.1452156  22.7743794  68.5959393  10.9868074  22.0721045  67.2641751
   8.3857913  18.9224714  68.9703177   9.2867776  18.7831179  68.6787175
   8.4605888  19.0879169  69.9101355  12.5972348  25.3590728  67.8985892
  12.3057156  25.7220708  68.7349353  11.9844479  24.6457736  67.7199224
  13.7968030  22.9243608  60.4188462  14.6314921  23.3633412  60.5826023
  13.9327159  22.4482261  59.5996708  10.8459536  20.4823342  66.3665950
  11.3213657  20.6750989  65.5584801   9.9225101  20.5382528  66.1209334
   3.4785815  28.1130462  52.4147707   2.9059782  28.7320650  51.9618179
   4.0518609  28.6629824  52.9487629   9.5461205  17.3589103  64.5994256
  10.4978628  17.4587200  64.6206480   9.3764655  16.5667371  65.1092340
   6.6983075  28.3967613  53.5456289   7.6313748  28.3313174  53.7489165
   6.6106288  29.2323879  53.0870822   9.3271091  27.7133483  50.5060237
   9.2484723  27.3793346  51.3995995  10.1480758  28.2055251  50.5051709
  12.0249283  20.5795222  63.7136555  11.9925603  19.6411223  63.8996239
  12.6349906  20.6579259  62.9802380  12.1743771  17.3706266  63.7594839
  11.6582820  16.5864722  63.5724767  13.0583720  17.0424982  63.9241358
  17.8425832  21.6411229  62.8542592  18.5729221  21.3796517  63.4150295
  17.2332778  20.9039951  62.8944660  15.9241130  19.7819092  63.4517043
  15.1974293  19.6475057  62.8433535  15.5088416  20.0895920  64.2573761
   3.7471306  23.5009021  71.2164416   4.6674315  23.6787620  71.4104463
   3.7120889  22.5565067  71.0644116  11.1046366  15.2903325  59.7476534
  11.8806756  15.7799777  60.0201151  10.3794500  15.7161379  60.2048404
  13.5418924  16.0030944  60.8050475  14.1363415  15.7626680  60.0943783
  13.6145508  15.2838074  61.4324011   6.8975043  25.0301478  50.1270215
   7.6010893  25.2351481  50.7427871   6.1737692  25.5978240  50.3919299
   7.7272853  20.7811340  56.2472485   7.6708055  21.2379891  55.4080118
   8.2801196  20.0202024  56.0695328  11.5377659  16.5701071  57.0722605
  11.2814594  16.1697707  57.9030812  10.9130527  17.2844865  56.9472744
  15.8489997  19.3097145  59.5793896  15.2889555  19.3790334  60.3525458
  15.2433501  19.1338129  58.8593392   8.8061741  25.4684007  52.1768675
   9.6407345  25.0365206  51.9946150   8.6446084  25.2966021  53.1045570
   8.4607633  21.9716121  53.5425014   8.4056437  21.8060392  52.6013458
   7.8353688  22.6792154  53.6987204   5.7753540  24.2765033  72.8678577
   6.6444700  24.4505685  72.5065212   5.2960291  25.0959449  72.7454307
   1.6993322  30.1493120  61.2078089   0.7488953  30.1494982  61.0942462
   2.0025808  29.4025855  60.6914124  17.4346016  35.9853659  62.2723852
  18.0724426  35.8660406  61.5687192  17.3166859  36.9334503  62.3311804
  14.2435722  35.9381087  62.2085377  13.9054233  35.8222151  61.3205911
  15.1125490  35.5372252  62.1886383  10.1022538  37.7916563  58.1982267
   9.5387403  37.7006500  57.4298555   9.9874933  36.9716468  58.6784760
  14.7255505  37.0915938  68.1671582  14.7144146  36.6968737  67.2952086
  14.8876144  36.3582011  68.7605354   7.6486970  39.2867755  61.0366488
   8.4408262  38.9458579  60.6212787   7.8883620  39.3962730  61.9568641
  15.6822096  41.4587531  53.5096732  15.0310076  42.0441611  53.1230746
  16.4766459  41.9893726  53.5691770   9.6077724  38.5476668  53.9083867
  10.3808600  38.0005655  53.7696743   9.9603122  39.4120917  54.1198328
  11.4462766  39.8753050  67.1150766  11.1552632  40.7798681  66.9997432
  12.0819750  39.9169578  67.8294836  12.3718973  37.2529899  63.7052126
  12.9682545  37.0285921  62.9909089  12.4293944  36.5114644  64.3077574
  11.9444001  34.7069334  51.5402317  12.1969522  34.1850855  50.7785780
  11.0068560  34.5435480  51.6429000  16.9887284  33.7105112  59.3477060
  17.7750373  33.2924536  58.9967477  17.2525989  34.6151205  59.5158708
  17.1597362  39.1477963  54.0465717  16.5243195  39.2212589  54.7586621
  16.8294768  39.7371562  53.3684796  22.3895711  33.6480346  60.2510038
  23.1220883  33.0779562  60.4847868  21.6335067  33.2601946  60.6916544
  11.6640290  36.6097440  53.7426692  11.5476548  35.9342343  54.4107776
  11.7742550  36.1229814  52.9258845  14.0071831  36.0707587  57.4473381
  13.6430038  35.5438208  58.1586302  14.8638947  35.6806056  57.2739866
  19.9121132  27.3601920  64.7104647  19.5804456  28.2297331  64.4865862
  19.3166745  27.0438204  65.3898677  13.6477318  31.0997487  52.4434729
  13.8151720  31.9677723  52.8105200  13.4574487  31.2624769  51.5196019
  16.4052651  39.5614466  64.1100560  16.1053374  40.4639505  64.0016367
  16.0603711  39.2946649  64.9621713   9.8565133  36.0128263  60.1437264
   8.9315629  35.8804477  60.3514956  10.1049546  36.7922482  60.6407207
  19.8049795  32.0797006  61.7897997  18.8966672  32.0112414  61.4956758
  19.7537391  32.5568951  62.6179823  13.6266539  33.5555144  53.4281396
  13.5066164  34.0012195  54.2666876  12.9319127  33.9040462  52.8694934
   7.2173944  35.6561536  60.9781053   7.3466325  35.9096015  61.8920465
   6.5371395  36.2489244  60.6585708  11.3873431  46.3258786  57.0771527
  11.3097461  47.2766611  57.1560008  10.7835075  45.9804659  57.7346454
  13.8790661  33.4986652  69.7332894  13.1023995  34.0580572  69.7235759
  14.5181224  33.9843435  70.2547764  21.6711441  30.2813444  63.5675871
  21.0285822  30.5745977  62.9215666  21.1666370  30.1666365  64.3729068
  19.3251605  34.0276618  54.2561730  20.2369461  34.2604004  54.0809428
  18.8161252  34.6113662  53.6936809  12.1337033  36.3072105  69.2950861
  12.8751717  36.8457149  69.0185685  11.4274019  36.9338394  69.4522413
  17.6092373  38.4501245  67.8923023  18.0175729  38.0083656  67.1477655
  16.8869634  37.8753873  68.1457216  13.9623443  33.3873852  65.2656580
  14.8084638  33.8113266  65.4091229  13.9022080  32.7307476  65.9595143
  17.9321187  39.0102436  61.6475312  17.3030050  39.1748150  60.9451380
  17.5446849  39.4244046  62.4186276  21.8110419  39.9456874  59.0019675
  21.1261457  40.3255775  58.4516709  21.8954269  40.5552200  59.7351623
  17.1122888  31.0478220  66.9237753  16.8683820  31.8020281  66.3872029
  17.3882819  31.4263568  67.7585000  19.0661351  37.5916833  65.6015019
  19.2778246  38.2348593  64.9249400  19.0191099  36.7579149  65.1336949
  16.6687580  30.2034653  62.5051591  15.8072059  30.5015907  62.7968329
  16.6950014  30.4205052  61.5732624  13.4849149  38.7476844  58.9125397
  13.9487495  39.0264547  58.1230019  13.2205947  37.8460289  58.7298487
  10.3773230  38.2948326  61.8505160  10.9474587  38.7235594  61.2122645
  10.9681342  38.0130910  62.5489346  12.4218035  34.8699996  55.7214962
  13.1242079  35.3221040  56.1888888  12.0898664  34.2283815  56.3494855
  10.8698397  33.4611753  70.0966171  10.2397057  34.1428034  70.3301568
  10.7634485  33.3494835  69.1519310   6.1643369  33.1283549  61.0232095
   5.3742423  33.3841078  60.5472206   6.6554617  33.9431887  61.1284136
  20.1807179  40.4688788  63.7737376  21.0024623  40.0668976  63.4920058
  20.1769582  40.3657022  64.7253492   8.1158115  33.4928128  57.9815572
   7.3189278  33.6046823  58.4999068   7.8883707  33.8314781  57.1156463
  13.9463782  40.0172832  65.9298087  14.0108215  40.4793239  66.7656259
  13.2374706  39.3870196  66.0580397   4.4481072  33.3814040  63.4547086
   4.6989111  34.2661049  63.7204662   4.9840621  33.2018641  62.6822178
  28.2713172  36.8127537  60.1222348  27.5176880  36.2434935  59.9666352
  28.4060713  36.7790201  61.0692982  13.6611800  41.6840939  55.7977067
  13.5257475  42.5292475  56.2261915  14.2021612  41.8860217  55.0343001
  10.1479140  27.7632519  72.4591422   9.7546085  27.2098717  73.1339067
  10.9645280  28.0743097  72.8497940   7.1141197  39.2016377  56.3704992
   7.6265718  39.9959627  56.5210557   7.7663910  38.5042668  56.3038594
   8.9236082  42.3182133  58.4527745   9.1002710  43.2400098  58.2648729
   9.7192916  42.0040553  58.8822125  13.0647101  29.1790398  70.0511679
  13.8056814  29.7797551  69.9716141  13.2965023  28.4368036  69.4929721
   8.2088439  34.3646765  68.3289909   8.0941954  33.4632022  68.6297008
   7.3532956  34.6110462  67.9774725  15.2880276  42.3064506  69.9277409
  14.8444130  41.5200884  69.6098314  15.9497490  42.4943656  69.2621300
  10.0467397  43.8360307  64.4538088  10.5974823  43.7077371  63.6815082
   9.2078873  44.1355196  64.1032981  17.3861514  42.5867305  67.9558810
  17.3679990  43.4076187  67.4639080  18.3081434  42.4621381  68.1808952
  13.8434569  40.1011435  68.7982319  14.3762905  39.3399723  68.5681627
  13.3148650  39.8085087  69.5406473  17.0104263  25.2071501  64.3275961
  16.6668533  26.0973143  64.2515071  17.3783226  25.0173159  63.4645546
   5.0790114  37.5305031  57.1464563   5.9165336  37.9402040  56.9298270
   5.2568382  36.5904474  57.1164757  16.9754546  35.1980112  52.8348396
  16.4601170  35.9684717  53.0736783  16.7031855  34.5245248  53.4581457
  14.5601657  30.0429813  57.8933634  13.7043254  29.6536663  57.7139273
  14.9728609  30.1221774  57.0333420  16.0900804  27.5776156  62.2925194
  15.5865599  27.5406291  61.4792999  16.3831411  28.4868899  62.3521851
  12.3343690  27.6614886  61.2991376  13.1996687  27.4657694  60.9397265
  12.4021199  27.4325238  62.2260732  21.9488820  37.9512467  54.7701569
  21.1718263  37.6123626  54.3256731  22.6280301  37.9565090  54.0956534
  16.7640849  33.0707204  54.6608177  16.4590985  33.3853353  55.5118320
  17.7171291  33.1488624  54.7035510  15.2087281  39.2297427  56.3101131
  14.6808643  38.4950187  55.9974368  14.7074784  40.0072104  56.0641099
  20.1880127  37.4246448  61.4268177  19.5303802  38.1145709  61.5148306
  20.9920526  37.8142880  61.7702164   9.9406009  29.8917094  58.6707742
  10.5149761  29.6692275  57.9380935  10.5276991  29.9605788  59.4236344
  18.9985586  35.7790821  59.4772119  19.5117468  36.4120812  59.9793829
  19.6486810  35.1792016  59.1115479  10.2675596  31.9221555  52.6903628
   9.4312908  32.2596241  53.0112902  10.1280366  31.7870535  51.7530765
  12.2428677  26.7658343  57.3982812  11.5893089  26.4507360  56.7739427
  12.2009151  26.1434083  58.1242635  13.3539881  37.0477638  49.3136104
  12.4466943  36.8166891  49.5127253  13.8510913  36.2515257  49.5010085
  16.2607960  45.7575145  52.2332790  15.5869659  46.0606842  52.8417748
  16.6473782  46.5604225  51.8838247  15.4766417  33.2540276  61.7230459
  14.5588978  33.4755223  61.5652148  15.8926561  33.3286587  60.8642167
  16.2601465  34.6531692  56.8533140  17.0073284  35.1653089  56.5440262
  16.5293054  34.3315745  57.7137533  14.5328115  37.1490233  53.8360094
  13.6239334  36.8649265  53.9332564  14.5623199  37.5689311  52.9763401
  19.7647382  40.7596822  57.6051262  19.3109709  39.9187732  57.6616452
  19.1341349  41.3958220  57.9426042  18.7080302  31.6888808  58.8351929
  17.9703059  31.1766194  59.1662172  18.9607075  31.2489190  58.0235206
  18.2080321  42.5973319  58.5401080  18.5003296  43.1578376  57.8213445
  18.7178942  42.8901880  59.2954239  18.8091929  24.4665060  59.4293698
  19.1150806  23.6062424  59.1419613  19.5344534  25.0582680  59.2292692
   5.1016285  34.8695747  57.8175296   4.9040685  34.2765107  57.0926363
   4.5462949  34.5647957  58.5351235  13.0813009  34.7618853  59.9369889
  13.1361619  33.8092690  59.8612366  12.2704211  34.9178292  60.4211188
  14.2304203  38.6898976  51.1748173  13.7923633  37.9734835  50.7153810
  14.9714643  38.9175091  50.6133264  11.0205369  33.3795913  57.6960268
  10.2073234  33.6790083  58.1025460  11.5164363  32.9851602  58.4134750
  13.1713947  43.3753670  59.6294533  13.1290125  43.6014516  58.7003065
  14.0876646  43.1417044  59.7780334  16.6179580  33.8437737  66.5275162
  16.9728968  34.0709211  67.3869628  17.2651712  34.1756114  65.9052417
  22.3477317  36.9656173  57.2324491  22.2095216  37.1557769  56.3045680
  21.9913536  37.7275556  57.6892542  10.5119444  30.9514268  63.3121503
  11.1518823  30.8103028  62.6144466   9.6796974  30.6648782  62.9360105
  22.3746697  39.0332700  62.2435763  22.8083204  38.9407989  63.0918817
  23.0878278  39.0090201  61.6055779  11.2879747  40.2516699  59.4256496
  12.0820346  39.7567019  59.2239071  10.5771440  39.7234562  59.0624201
  16.1074592  42.6334794  63.7768863  16.1611614  43.2025731  64.5446579
  15.2389373  42.8036679  63.4122900   7.5962511  34.3959781  55.5016248
   6.6660099  34.3344236  55.7186210   7.6919983  33.8735733  54.7052890
   7.5148060  30.9214593  58.0894490   7.7754877  31.8359927  57.9803650
   8.3365232  30.4539036  58.2391103   8.9872985  32.3352351  65.2593314
   9.6596039  32.1269713  64.6105963   8.1602772  32.1374437  64.8198547
  23.2362247  39.0756401  64.7768648  23.4298137  39.9802211  65.0227923
  23.1362865  38.6163820  65.6107233  14.8898557  28.9614292  67.2758975
  14.2426472  29.6604241  67.1823452  15.6599573  29.3950435  67.6435224
  18.2977355  39.2263144  70.3509529  18.1462862  38.9973695  69.4339612
  18.2882035  40.1833745  70.3640874  15.0662692  36.7995056  65.3355795
  15.9954752  36.9506216  65.1624762  14.6453722  36.8879077  64.4804442
  13.8651023  40.8245721  63.1054333  13.7262109  40.4564505  63.9780271
  13.0765620  41.3393360  62.9338291  14.4599175  45.9254817  54.4479869
  14.6350931  45.4542861  55.2625492  13.7731963  46.5520584  54.6761130
  15.4156239  40.2027324  60.4943171  15.0806071  40.1628094  61.3900820
  14.9160184  39.5372039  60.0213581   9.3900483  35.6094954  66.0195752
   9.2520280  34.8775192  66.6207291  10.3005406  35.5203854  65.7379939
  18.3515430  37.5483358  50.7680230  17.7344601  36.8230186  50.6713283
  17.8831919  38.3092718  50.4247304  12.0182783  35.3214913  65.5079431
  12.7282402  34.6808105  65.4666050  11.9752091  35.5727808  66.4305612
  20.0069562  42.2582266  68.4286011  19.9482108  41.5741486  67.7616594
  20.4089080  43.0001256  67.9766637  10.7311717  32.3080131  67.3275071
  10.1949074  31.8570869  67.9796667  10.1428426  32.4426040  66.5845535
   9.0260261  49.0744180  61.2219729   9.2656859  49.7062704  61.8998748
   8.1829457  48.7232220  61.5085089  10.1413976  31.7668782  49.8901534
   9.2643442  31.6457583  49.5263781  10.6171729  30.9754861  49.6380423
  20.0086969  40.2221850  66.6599990  19.1213748  39.8847772  66.7826389
  20.5785520  39.4904881  66.8968756   1.6616116  36.5545942  59.9843042
   2.3487156  36.2407672  59.3964057   1.5064245  37.4587307  59.7110293
   6.4650838  31.4436138  64.4128065   6.3809027  30.8361808  63.6778475
   5.6433545  31.9345157  64.4137562  13.5388123  44.8823303  63.6261233
  13.4658294  45.6878274  64.1380538  13.0965516  45.0815268  62.8009255
  13.3277902  44.1195073  57.1364055  12.5445424  44.6616753  57.2302279
  14.0270647  44.6369052  57.5358296  16.6374552  29.9289702  59.7798260
  17.1343252  29.1759664  59.4599331  15.8661534  29.9654019  59.2141470
  24.4904310  35.6330068  61.4216552  24.4794186  36.5154783  61.0510485
  23.6221689  35.2801618  61.2271089  15.9986806  44.7810137  65.7819392
  16.7114778  45.4157601  65.7095294  15.5076835  44.8774003  64.9659394
  17.7204333  38.6861389  57.3536684  16.7860612  38.8062852  57.1841388
  17.8981001  37.7833856  57.0896694  13.2209521  32.0707085  59.5069945
  12.8507309  31.5178125  60.1950851  13.7168614  31.4665218  58.9544945
  21.1076884  34.5278709  57.8886718  21.5737337  35.3606700  57.8147021
  21.5584385  34.0623690  58.5931976  11.0498720  42.5304580  66.6024963
  11.7508179  43.1641063  66.7554357  10.5793835  42.8719312  65.8420602
  19.1753115  40.8722530  54.8872870  19.4512959  40.7579124  55.7966744
  18.3057614  40.4740015  54.8485043  19.0793547  26.8959296  61.9277619
  18.1656627  27.1263522  62.0959826  19.5086649  26.9797740  62.7791652
  18.8500006  35.0849187  64.4277513  18.1971456  35.3325095  63.7729966
  19.2280385  34.2713326  64.0939991  15.8107179  45.1208881  58.5305684
  15.9929574  44.3030537  58.9933436  16.6340165  45.3376573  58.0930574
  16.1449345  44.0477066  55.7920732  16.6737111  43.5369520  55.1790894
  16.4077565  43.7319596  56.6566265  14.8987579  35.8268999  70.9143550
  14.2228216  35.7263128  71.5845926  15.7215212  35.6708212  71.3779548
   6.6466438  42.0640935  63.5356066   7.2319875  41.3184623  63.6683970
   6.4491276  42.3744892  64.4192729   9.5005093  45.0992182  58.5518508
   8.8315468  45.5838310  58.0682548   9.3617963  45.3461403  59.4661886
   1.2384092  34.6346535  62.2560509   1.2768192  34.1010126  63.0497627
   0.7324385  34.1081741  61.6371486  13.6410361  47.1335926  65.1501166
  14.1928670  47.2967547  65.9150252  13.9816555  47.7240364  64.4781191
   8.6174855  29.4811076  65.7523051   8.6816181  30.3425907  65.3400449
   8.5541975  28.8685077  65.0195410   8.0927127  31.5534208  69.3996085
   8.7199166  31.1711286  70.0133610   7.2355046  31.3348410  69.7651778
  18.4921236  41.9597184  71.0049821  19.0361140  42.5727142  70.5104776
  17.9108081  42.5176762  71.5216834   4.8692670  33.3610637  55.3314440
   5.1646111  32.4521316  55.2781494   3.9680706  33.3398377  55.0095442
  16.7778749  45.0817902  62.1364848  16.6529888  44.2807641  61.6275794
  17.4357840  45.5764095  61.6478818   8.3986917  31.4366634  61.3141989
   7.6773503  32.0502602  61.1749462   9.1880173  31.9724399  61.2358635
  18.8413657  42.8826922  63.7644399  17.8943993  42.7632273  63.6922725
  19.1896430  41.9949420  63.8470660  11.2013231  28.7721061  67.5882640
  11.7247632  29.0183357  68.3508950  10.9825564  29.6041095  67.1685778
   6.5980512  31.0424735  55.4553765   6.2693218  30.1622114  55.2728871
   6.9519882  30.9872404  56.3430154  15.8460090  42.6779638  59.9648751
  15.6985053  41.7496345  60.1456321  16.6713584  42.6999729  59.4805826
   9.7122335  31.3297705  55.8229243  10.0518407  31.8583626  55.1007851
  10.1594455  31.6678111  56.5987809  19.4494212  43.5008197  61.0513624
  20.3740760  43.2951058  60.9138075  19.2809516  43.2524598  61.9602965
  12.4065776  29.7134756  65.2732311  12.0662596  28.9142569  65.6752991
  11.7004782  30.0136466  64.7009144  13.0582247  26.7984068  63.7259634
  13.8808317  26.3244546  63.6038524  13.3020311  27.5774552  64.2258320
  11.6990482  29.8272326  54.0222536  12.4198844  30.2053579  53.5186253
  11.0755786  30.5461203  54.1257514  15.8421605  30.5317475  54.9580868
  16.0585219  31.4142113  54.6569696  15.3615672  30.1403689  54.2286510
  10.5820826  33.4903189  61.5351613  10.4365407  33.8043492  62.4275894
  10.1046030  34.1088089  60.9822511  12.4417209  30.4805737  61.5832502
  12.4278778  29.5846830  61.2464800  13.1589637  30.4876400  62.2170788
  14.2943340  30.9143077  63.6285630  14.0361118  31.8360148  63.6269960
  13.7628380  30.5173511  64.3186094  19.2389529  44.0193864  56.4075715
  19.4126406  43.4540286  55.6549567  19.7318420  44.8194759  56.2255205
   5.0566488  36.0308533  64.4739274   4.5119956  36.8068341  64.6059548
   5.9345838  36.3779338  64.3158395  11.8454105  29.3620117  56.8520072
  11.9670016  28.4336763  57.0510960  11.5556147  29.3758803  55.9398388
  14.7145295  27.0475027  59.9886792  14.7366992  27.1114360  59.0338772
  15.1313354  26.2079536  60.1827298  25.0928920  36.7830287  58.0266015
  25.5360066  36.0337612  57.6285138  24.2155430  36.7740423  57.6439747
  20.2264701  43.3360628  53.5072613  20.9215606  43.9567321  53.7259928
  20.5687851  42.4855980  53.7824991   5.8432510  35.1578429  67.3669431
   5.1014246  35.3061065  67.9534061   5.5225254  35.4186695  66.5036180
  22.1256124  40.7860334  55.0359944  22.6507448  41.1247607  54.3109264
  22.0378477  39.8507349  54.8523079  13.7876173  44.6994408  67.1649821
  14.0963299  44.4543554  68.0372520  14.5851655  44.9041046  66.6768691
  13.8096785  46.8532317  59.3955197  13.3701775  46.3608696  60.0888054
  14.5604902  46.3105285  59.1547272   6.2889124  43.0443858  59.3979825
   7.1147144  42.7447630  59.0178469   5.9383176  42.2751481  59.8469614
  11.2570657  42.3970326  61.4677499  10.6350666  41.7341031  61.1679727
  11.9275524  42.4231458  60.7851147   4.4897729  40.9630185  60.3568759
   3.6529637  40.5352359  60.1752760   4.4621374  41.1562628  61.2939550
  11.3295185  30.8752114  71.0610005  11.3783340  31.7514237  70.6787775
  11.8717699  30.3329507  70.4881648  21.8150030  41.4193238  70.3411142
  21.0245574  41.4017376  69.8015641  21.5783385  41.9581531  71.0960179
  21.9347905  38.2685704  67.6543871  21.9845910  38.1035711  68.5959393
  21.8261829  37.4012963  67.2641751  10.8184164  40.9474250  54.9435959
  10.9672284  41.6309714  54.2902632  11.6250607  40.9279340  55.4585415
  19.2251668  34.2516632  68.9703177  20.1261530  34.1123097  68.6787175
  19.2999642  34.4171087  69.9101355  13.5594473  31.6283487  67.8156364
  12.6897782  31.9217053  67.5438952  13.7953953  32.2123932  68.5363627
  23.4366102  40.6882645  67.8985892  23.1450910  41.0512626  68.7349353
  22.8238233  39.9749654  67.7199224  24.6361784  38.2535525  60.4188462
  25.4708676  38.6925329  60.5826023  24.7720913  37.7774178  59.5996708
  21.6853290  35.8115260  66.3665950  22.1607412  36.0042906  65.5584801
  20.7618856  35.8674446  66.1209334   8.5736797  36.9739427  55.9497028
   8.3282839  36.0701757  56.1477238   8.7432711  36.9756578  55.0076506
  16.2633507  27.8463104  65.3321784  16.7815451  28.5824131  65.0068273
  15.9088640  28.1527097  66.1668543   7.8432444  32.7067785  53.4483190
   7.1501689  32.7812140  52.7923226   7.5984196  31.9428128  53.9704707
  16.5146101  24.2663386  60.8522681  16.7947855  23.5986575  61.4783107
  17.2996708  24.4592482  60.3397344  14.3179569  43.4422380  52.4147707
  13.7453537  44.0612567  51.9618179  14.8912363  43.9921742  52.9487629
  20.3854959  32.6881020  64.5994256  21.3372382  32.7879118  64.6206480
  20.2158410  31.8959289  65.1092340  18.4069339  29.7736603  64.7853657
  17.8119271  30.0541616  64.0900145  18.1219035  30.2630504  65.5570398
  17.5376829  43.7259530  53.5456289  18.4707502  43.6605092  53.7489165
  17.4500042  44.5615797  53.0870822  20.1664846  43.0425401  50.5060237
  20.0878477  42.7085264  51.3995995  20.9874513  43.5347168  50.5051709
  22.8643037  35.9087140  63.7136555  22.8319357  34.9703141  63.8996239
  23.4743661  35.9871177  62.9802380  14.7026368  34.7783193  49.7563759
  15.6485473  34.6489401  49.8252177  14.3240613  34.0397855  50.2333188
  23.0137526  32.6998183  63.7594839  22.4976574  31.9156640  63.5724767
  23.8977474  32.3716900  63.9241358  20.6748252  26.4439199  59.7190651
  20.4773074  26.1354287  60.6033983  21.2847958  27.1700838  59.8488581
  28.6819587  36.9703147  62.8542592  29.4122975  36.7088435  63.4150295
  28.0726532  36.2331869  62.8944660  26.7634884  35.1111009  63.4517043
  26.0368048  34.9766974  62.8433535  26.3482171  35.4187838  64.2573761
  14.5865060  38.8300939  71.2164416  15.5068070  39.0079538  71.4104463
  14.5514644  37.8856984  71.0644116  12.8869285  32.7033169  49.6918645
  11.9800740  32.4066282  49.7681358  13.1645266  32.4062987  48.8252931
   3.8047225  34.0239533  60.1417691   3.4850010  33.1704841  59.8492065
   3.2580654  34.2388111  60.8975658   7.5827133  36.7401974  63.8587198
   7.8013143  37.6719081  63.8775231   7.9952907  36.3809948  64.6442001
  14.5031351  27.2470059  55.8462886  13.6932079  26.9017144  56.2218132
  15.1915768  26.9377603  56.4350497  16.4321899  26.3248106  57.4687183
  16.9852938  26.7443559  58.1277206  16.6691985  25.3983854  57.5110139
  12.4554998  32.3135179  73.2489946  12.3551725  33.2629536  73.1802038
  12.2376540  31.9853418  72.3766017  11.6568070  29.5620104  49.8330624
  12.5187234  29.8875003  50.0926441  11.8418414  28.7751600  49.3203690
   3.6735485  37.6442444  62.1110813   2.9798957  37.2296397  61.5980767
   4.4208476  37.6862981  61.5144231  19.8100706  28.4348631  56.9765847
  19.2299375  29.0933435  56.5943899  19.5436639  27.6125976  56.5653264
  18.2604273  27.8353689  59.1787167  18.7604051  27.9470223  58.3701486
  18.9039880  27.5314741  59.8187976  12.3186268  35.7432318  72.0655008
  11.8353350  36.5432678  72.2718897  12.4047207  35.7540263  71.1122452
   5.5872228  37.5760698  59.9876827   5.5642916  37.6748385  59.0358711
   5.8972865  38.4225849  60.3093994   8.2459606  39.6336853  64.1023442
   9.2002859  39.6020795  64.0353373   8.0472129  39.1727477  64.9173668
   8.8358988  38.2037969  66.6694240   9.6551877  38.6982048  66.6929077
   9.1095796  37.2869937  66.6411807  18.5925584  30.5948721  56.0322195
  17.7051439  30.8798372  55.8142390  19.0079573  30.4342485  55.1849472
  21.9440120  30.6195242  59.7476534  22.7200510  31.1091695  60.0201151
  21.2188255  31.0453296  60.2048404  24.3812679  31.3322861  60.8050475
  24.9757170  31.0918597  60.0943783  24.4539263  30.6129992  61.4324011
   6.6009835  45.1756472  61.1193640   6.4664303  44.4156873  60.5531638
   6.1841897  45.8997372  60.6522429  17.7368798  40.3593396  50.1270215
  18.4404648  40.5643398  50.7427871  17.0131446  40.9270158  50.3919299
  18.5666608  36.1103257  56.2472485  18.5101809  36.5671809  55.4080118
  19.1194950  35.3493942  56.0695328  22.3771414  31.8992989  57.0722605
  22.1208348  31.4989625  57.9030812  21.7524282  32.6136783  56.9472744
  26.6883752  34.6389062  59.5793896  26.1283310  34.7082252  60.3525458
  26.0827255  34.4630047  58.8593392   9.7578961  46.0725789  61.3312082
   9.6411345  47.0171222  61.2290773   8.9371407  45.7699351  61.7197882
  19.6455495  40.7975925  52.1768675  20.4801099  40.3657124  51.9946150
  19.4839838  40.6257939  53.1045570  19.3001387  37.3008038  53.5425014
  19.2450191  37.1352310  52.6013458  18.6747443  38.0084071  53.6987204
   4.0893902  32.5376103  67.3686437   4.7352766  32.0275057  67.8573662
   3.8811053  33.2744784  67.9429862  16.6147294  39.6056950  72.8678577
  17.4838454  39.7797603  72.5065212  16.1354046  40.4251367  72.7454307
  12.6097513  26.8016147  53.1210333  12.5976183  27.7457987  53.2778604
  13.5020935  26.6186293  52.8269794  10.7833475  46.7254051  64.5468011
  11.6860721  46.7577662  64.8634506  10.5570845  45.7954502  64.5614347
  12.5387077  45.4785038  61.2078089  11.5882708  45.4786899  61.0942462
  12.8419563  44.7317772  60.6914124  16.4249632  23.3958924  57.3756270
  15.6582028  22.8417411  57.5212952  16.8360337  23.4680793  58.2370421
   8.4291393  29.6843720  71.4661451   9.2922855  29.3280525  71.6764775
   7.8556804  29.3457615  72.1536855  28.2739770  51.3145576  62.2723852
  28.9118180  51.1952324  61.5687192  28.1560613  52.2626420  62.3311804
  25.0829476  51.2673004  62.2085377  24.7447988  51.1514069  61.3205911
  25.9519245  50.8664169  62.1886383  20.9416292  53.1208481  58.1982267
  20.3781157  53.0298418  57.4298555  20.8268687  52.3008385  58.6784760
  25.5649259  52.4207856  68.1671582  25.5537900  52.0260654  67.2952086
  25.7269899  51.6873929  68.7605354  18.4880724  54.6159672  61.0366488
  19.2802016  54.2750497  60.6212787  18.7277374  54.7254647  61.9568641
  26.5215851  56.7879448  53.5096732  25.8703831  57.3733529  53.1230746
  27.3160214  57.3185643  53.5691770  20.4471478  53.8768586  53.9083867
  21.2202354  53.3297573  53.7696743  20.7996877  54.7412835  54.1198328
  22.2856521  55.2044968  67.1150766  21.9946387  56.1090599  66.9997432
  22.9213505  55.2461496  67.8294836  23.2112727  52.5821816  63.7052126
  23.8076300  52.3577839  62.9909089  23.2687699  51.8406562  64.3077574
  22.7837756  50.0361252  51.5402317  23.0363277  49.5142773  50.7785780
  21.8462315  49.8727397  51.6429000  27.8281039  49.0397030  59.3477060
  28.6144128  48.6216453  58.9967477  28.0919743  49.9443122  59.5158708
  27.9991116  54.4769880  54.0465717  27.3636949  54.5504507  54.7586621
  27.6688522  55.0663479  53.3684796  33.2289466  48.9772263  60.2510038
  33.9614638  48.4071480  60.4847868  32.4728822  48.5893864  60.6916544
  22.5034045  51.9389358  53.7426692  22.3870303  51.2634261  54.4107776
  22.6136304  51.4521732  52.9258845  24.8465586  51.3999505  57.4473381
  24.4823793  50.8730126  58.1586302  25.7032701  51.0097974  57.2739866
  30.7514886  42.6893837  64.7104647  30.4198211  43.5589248  64.4865862
  30.1560500  42.3730121  65.3898677  24.4871073  46.4289405  52.4434729
  24.6545475  47.2969641  52.8105200  24.2968242  46.5916686  51.5196019
  27.2446406  54.8906383  64.1100560  26.9447129  55.7931422  64.0016367
  26.8997465  54.6238567  64.9621713  20.6958887  51.3420180  60.1437264
  19.7709384  51.2096394  60.3514956  20.9443300  52.1214400  60.6407207
  30.6443549  47.4088924  61.7897997  29.7360427  47.3404332  61.4956758
  30.5931145  47.8860869  62.6179823  24.4660293  48.8847062  53.4281396
  24.3459919  49.3304113  54.2666876  23.7712882  49.2332380  52.8694934
  18.0567698  50.9853454  60.9781053  18.1860079  51.2387933  61.8920465
  17.3765150  51.5781162  60.6585708  22.2267185  61.6550704  57.0771527
  22.1491215  62.6058529  57.1560008  21.6228829  61.3096576  57.7346454
  24.7184415  48.8278569  69.7332894  23.9417749  49.3872489  69.7235759
  25.3574978  49.3135352  70.2547764  32.5105196  45.6105362  63.5675871
  31.8679576  45.9037895  62.9215666  32.0060124  45.4958282  64.3729068
  30.1645360  49.3568535  54.2561730  31.0763216  49.5895922  54.0809428
  29.6555007  49.9405579  53.6936809  22.9730788  51.6364023  69.2950861
  23.7145472  52.1749067  69.0185685  22.2667773  52.2630311  69.4522413
  28.4486127  53.7793163  67.8923023  28.8569483  53.3375574  67.1477655
  27.7263389  53.2045791  68.1457216  24.8017197  48.7165770  65.2656580
  25.6478392  49.1405183  65.4091229  24.7415835  48.0599394  65.9595143
  28.7714942  54.3394354  61.6475312  28.1423804  54.5040068  60.9451380
  28.3840604  54.7535963  62.4186276  32.6504174  55.2748792  59.0019675
  31.9655212  55.6547693  58.4516709  32.7348023  55.8844118  59.7351623
  27.9516643  46.3770138  66.9237753  27.7077574  47.1312199  66.3872029
  28.2276573  46.7555486  67.7585000  29.9055105  52.9208751  65.6015019
  30.1172001  53.5640510  64.9249400  29.8584854  52.0871067  65.1336949
  27.5081334  45.5326571  62.5051591  26.6465813  45.8307825  62.7968329
  27.5343769  45.7496970  61.5732624  24.3242904  54.0768762  58.9125397
  24.7881249  54.3556465  58.1230019  24.0599702  53.1752206  58.7298487
  21.2166985  53.6240243  61.8505160  21.7868342  54.0527512  61.2122645
  21.8075097  53.3422828  62.5489346  23.2611790  50.1991914  55.7214962
  23.9635833  50.6512958  56.1888888  22.9292418  49.5575733  56.3494855
  21.7092151  48.7903671  70.0966171  21.0790812  49.4719952  70.3301568
  21.6028239  48.6786752  69.1519310  17.0037124  48.4575467  61.0232095
  16.2136178  48.7132995  60.5472206  17.4948371  49.2723805  61.1284136
  31.0200933  55.7980706  63.7737376  31.8418377  55.3960893  63.4920058
  31.0163336  55.6948940  64.7253492  18.9551869  48.8220046  57.9815572
  18.1583032  48.9338740  58.4999068  18.7277461  49.1606698  57.1156463
  24.7857537  55.3464749  65.9298087  24.8501969  55.8085156  66.7656259
  24.0768461  54.7162114  66.0580397  15.2874827  48.7105957  63.4547086
  15.5382865  49.5952967  63.7204662  15.8234375  48.5310559  62.6822178
  39.1106926  52.1419454  60.1222348  38.3570635  51.5726853  59.9666352
  39.2454468  52.1082119  61.0692982  24.5005554  57.0132857  55.7977067
  24.3651229  57.8584392  56.2261915  25.0415367  57.2152134  55.0343001
  20.9872894  43.0924437  72.4591422  20.5939840  42.5390635  73.1339067
  21.8039034  43.4035015  72.8497940  17.9534952  54.5308295  56.3704992
  18.4659472  55.3251545  56.5210557  18.6057665  53.8334585  56.3038594
  19.7629836  57.6474051  58.4527745  19.9396465  58.5692016  58.2648729
  20.5586670  57.3332470  58.8822125  23.9040855  44.5082316  70.0511679
  24.6450568  45.1089469  69.9716141  24.1358778  43.7659953  69.4929721
  19.0482193  49.6938683  68.3289909  18.9335708  48.7923940  68.6297008
  18.1926711  49.9402380  67.9774725  26.1274031  57.6356423  69.9277409
  25.6837885  56.8492802  69.6098314  26.7891244  57.8235574  69.2621300
  20.8861152  59.1652225  64.4538088  21.4368577  59.0369288  63.6815082
  20.0472628  59.4647114  64.1032981  28.2255269  57.9159223  67.9558810
  28.2073744  58.7368104  67.4639080  29.1475189  57.7913298  68.1808952
  24.6828323  55.4303353  68.7982319  25.2156660  54.6691641  68.5681627
  24.1542404  55.1377004  69.5406473  27.8498018  40.5363419  64.3275961
  27.5062287  41.4265060  64.2515071  28.2176981  40.3465076  63.4645546
  15.9183869  52.8596949  57.1464563  16.7559091  53.2693957  56.9298270
  16.0962136  51.9196391  57.1164757  27.8148301  50.5272030  52.8348396
  27.2994924  51.2976634  53.0736783  27.5425609  49.8537166  53.4581457
  25.3995412  45.3721731  57.8933634  24.5437008  44.9828581  57.7139273
  25.8122363  45.4513691  57.0333420  26.9294558  42.9068074  62.2925194
  26.4259354  42.8698209  61.4792999  27.2225165  43.8160816  62.3521851
  23.1737444  42.9906803  61.2991376  24.0390441  42.7949612  60.9397265
  23.2414953  42.7617155  62.2260732  32.7882575  53.2804384  54.7701569
  32.0112018  52.9415544  54.3256731  33.4674056  53.2857008  54.0956534
  27.6034604  48.3999122  54.6608177  27.2984739  48.7145271  55.5118320
  28.5565046  48.4780542  54.7035510  26.0481036  54.5589345  56.3101131
  25.5202397  53.8242105  55.9974368  25.5468538  55.3364021  56.0641099
  31.0273882  52.7538366  61.4268177  30.3697556  53.4437627  61.5148306
  31.8314281  53.1434798  61.7702164  20.7799763  45.2209011  58.6707742
  21.3543515  44.9984193  57.9380935  21.3670746  45.2897706  59.4236344
  29.8379341  51.1082738  59.4772119  30.3511222  51.7412730  59.9793829
  30.4880564  50.5083934  59.1115479  21.1069350  47.2513472  52.6903628
  20.2706663  47.5888159  53.0112902  20.9674120  47.1162452  51.7530765
  23.0822431  42.0950260  57.3982812  22.4286843  41.7799277  56.7739427
  23.0402905  41.4726001  58.1242635  24.1933636  52.3769555  49.3136104
  23.2860698  52.1458809  49.5127253  24.6904668  51.5807175  49.5010085
  27.1001715  61.0867063  52.2332790  26.4263414  61.3898759  52.8417748
  27.4867537  61.8896143  51.8838247  26.3160171  48.5832194  61.7230459
  25.3982733  48.8047141  61.5652148  26.7320315  48.6578504  60.8642167
  27.0995219  49.9823610  56.8533140  27.8467038  50.4945007  56.5440262
  27.3686809  49.6607662  57.7137533  25.3721869  52.4782150  53.8360094
  24.4633089  52.1941183  53.9332564  25.4016953  52.8981229  52.9763401
  30.6041137  56.0888740  57.6051262  30.1503464  55.2479650  57.6616452
  29.9735103  56.7250138  57.9426042  29.5474056  47.0180726  58.8351929
  28.8096813  46.5058112  59.1662172  29.8000830  46.5781107  58.0235206
  29.0474076  57.9265236  58.5401080  29.3397050  58.4870294  57.8213445
  29.5572697  58.2193797  59.2954239  29.6485684  39.7956978  59.4293698
  29.9544560  38.9354341  59.1419613  30.3738288  40.3874598  59.2292692
  15.9410040  50.1987664  57.8175296  15.7434440  49.6057025  57.0926363
  15.3856704  49.8939875  58.5351235  23.9206763  50.0910771  59.9369889
  23.9755373  49.1384607  59.8612366  23.1097965  50.2470210  60.4211188
  25.0697957  54.0190894  51.1748173  24.6317387  53.3026753  50.7153810
  25.8108398  54.2467009  50.6133264  21.8599123  48.7087831  57.6960268
  21.0466989  49.0082001  58.1025460  22.3558117  48.3143519  58.4134750
  24.0107701  58.7045588  59.6294533  23.9683880  58.9306434  58.7003065
  24.9270400  58.4708962  59.7780334  27.4573335  49.1729655  66.5275162
  27.8122723  49.4001128  67.3869628  28.1045466  49.5048032  65.9052417
  33.1871072  52.2948091  57.2324491  33.0488970  52.4849687  56.3045680
  32.8307291  53.0567474  57.6892542  21.3513198  46.2806186  63.3121503
  21.9912577  46.1394945  62.6144466  20.5190729  45.9940700  62.9360105
  33.2140452  54.3624618  62.2435763  33.6476958  54.2699907  63.0918817
  33.9272032  54.3382118  61.6055779  22.1273502  55.5808617  59.4256496
  22.9214100  55.0858937  59.2239071  21.4165194  55.0526480  59.0624201
  26.9468346  57.9626712  63.7768863  27.0005369  58.5317648  64.5446579
  26.0783128  58.1328597  63.4122900  18.4356265  49.7251698  55.5016248
  17.5053854  49.6636154  55.7186210  18.5313737  49.2027651  54.7052890
  18.3541814  46.2506511  58.0894490  18.6148632  47.1651844  57.9803650
  19.1758987  45.7830954  58.2391103  19.8266740  47.6644268  65.2593314
  20.4989793  47.4561630  64.6105963  18.9996526  47.4666354  64.8198547
  34.0756001  54.4048319  64.7768648  34.2691891  55.3094129  65.0227923
  33.9756619  53.9455738  65.6107233  25.7292312  44.2906209  67.2758975
  25.0820227  44.9896159  67.1823452  26.4993327  44.7242353  67.6435224
  25.9056446  52.1286974  65.3355795  26.8348506  52.2798134  65.1624762
  25.4847476  52.2170995  64.4804442  24.7044778  56.1537639  63.1054333
  24.5655864  55.7856423  63.9780271  23.9159374  56.6685278  62.9338291
  25.2992930  61.2546735  54.4479869  25.4744686  60.7834778  55.2625492
  24.6125718  61.8812501  54.6761130  26.2549993  55.5319241  60.4943171
  25.9199826  55.4920011  61.3900820  25.7553939  54.8663957  60.0213581
  20.2294237  50.9386871  66.0195752  20.0914035  50.2067110  66.6207291
  21.1399161  50.8495771  65.7379939  29.1909185  52.8775276  50.7680230
  28.5738355  52.1522104  50.6713283  28.7225673  53.6384636  50.4247304
  22.8576538  50.6506831  65.5079431  23.5676156  50.0100023  65.4666050
  22.8145846  50.9019725  66.4305612  21.5705472  47.6372048  67.3275071
  21.0342829  47.1862787  67.9796667  20.9822180  47.7717957  66.5845535
  19.8654015  64.4036098  61.2219729  20.1050613  65.0354622  61.8998748
  19.0223212  64.0524138  61.5085089  20.9807731  47.0960700  49.8901534
  20.1037197  46.9749501  49.5263781  21.4565484  46.3046778  49.6380423
  30.8480724  55.5513768  66.6599990  29.9607502  55.2139690  66.7826389
  31.4179275  54.8196799  66.8968756  12.5009871  51.8837860  59.9843042
  13.1880911  51.5699590  59.3964057  12.3457999  52.7879224  59.7110293
  17.3044593  46.7728056  64.4128065  17.2202782  46.1653726  63.6778475
  16.4827299  47.2637074  64.4137562  24.3781877  60.2115220  63.6261233
  24.3052049  61.0170192  64.1380538  23.9359270  60.4107186  62.8009255
  24.1671657  59.4486990  57.1364055  23.3839179  59.9908670  57.2302279
  24.8664402  59.9660970  57.5358296  27.4768307  45.2581620  59.7798260
  27.9737006  44.5051582  59.4599331  26.7055288  45.2945936  59.2141470
  35.3298064  50.9621985  61.4216552  35.3187940  51.8446701  61.0510485
  34.4615444  50.6093536  61.2271089  26.8380561  60.1102054  65.7819392
  27.5508533  60.7449519  65.7095294  26.3470589  60.2065920  64.9659394
  28.5598087  54.0153307  57.3536684  27.6254366  54.1354769  57.1841388
  28.7374756  53.1125774  57.0896694  24.0603276  47.3999003  59.5069945
  23.6901063  46.8470043  60.1950851  24.5562368  46.7957136  58.9544945
  31.9470639  49.8570626  57.8886718  32.4131091  50.6898618  57.8147021
  32.3978139  49.3915608  58.5931976  21.8892474  57.8596498  66.6024963
  22.5901934  58.4932981  66.7554357  21.4187589  58.2011229  65.8420602
  30.0146870  56.2014448  54.8872870  30.2906714  56.0871042  55.7966744
  29.1451369  55.8031932  54.8485043  29.9187302  42.2251213  61.9277619
  29.0050381  42.4555440  62.0959826  30.3480403  42.3089657  62.7791652
  29.6893760  50.4141105  64.4277513  29.0365210  50.6617013  63.7729966
  30.0674140  49.6005243  64.0939991  26.6500934  60.4500798  58.5305684
  26.8323328  59.6322454  58.9933436  27.4733920  60.6668491  58.0930574
  26.9843099  59.3768983  55.7920732  27.5130866  58.8661438  55.1790894
  27.2471319  59.0611514  56.6566265  25.7381333  51.1560916  70.9143550
  25.0621970  51.0555046  71.5845926  26.5608967  51.0000130  71.3779548
  17.4860192  57.3932853  63.5356066  18.0713629  56.6476541  63.6683970
  17.2885031  57.7036809  64.4192729  20.3398847  60.4284100  58.5518508
  19.6709223  60.9130228  58.0682548  20.2011717  60.6753321  59.4661886
  12.0777847  49.9638453  62.2560509  12.1161946  49.4302044  63.0497627
  11.5718140  49.4373658  61.6371486  24.4804116  62.4627844  65.1501166
  25.0322424  62.6259465  65.9150252  24.8210309  63.0532281  64.4781191
  19.4568609  44.8102993  65.7523051  19.5209936  45.6717824  65.3400449
  19.3935729  44.1976995  65.0195410  18.9320882  46.8826126  69.3996085
  19.5592921  46.5003203  70.0133610  18.0748801  46.6640328  69.7651778
  15.7086424  48.6902555  55.3314440  16.0039866  47.7813234  55.2781494
  14.8074460  48.6690295  55.0095442  27.6172503  60.4109819  62.1364848
  27.4923643  59.6099559  61.6275794  28.2751594  60.9056013  61.6478818
  19.2380671  46.7658552  61.3141989  18.5167257  47.3794519  61.1749462
  20.0273927  47.3016317  61.2358635  29.6807412  58.2118839  63.7644399
  28.7337747  58.0924190  63.6922725  30.0290185  57.3241337  63.8470660
  22.0406985  44.1012978  67.5882640  22.5641387  44.3475275  68.3508950
  21.8219318  44.9333013  67.1685778  17.4374266  46.3716653  55.4553765
  17.1086972  45.4914032  55.2728871  17.7913637  46.3164321  56.3430154
  26.6853845  58.0071556  59.9648751  26.5378807  57.0788263  60.1456321
  27.5107338  58.0291646  59.4805826  20.5516089  46.6589623  55.8229243
  20.8912162  47.1875544  55.1007851  20.9988210  46.9970029  56.5987809
  30.2887967  58.8300114  61.0513624  31.2134514  58.6242976  60.9138075
  30.1203270  58.5816515  61.9602965  23.2459530  45.0426673  65.2732311
  22.9056350  44.2434486  65.6752991  22.5398536  45.3428384  64.7009144
  23.8976002  42.1275986  63.7259634  24.7202071  41.6536464  63.6038524
  24.1414065  42.9066469  64.2258320  22.5384236  45.1564244  54.0222536
  23.2592599  45.5345497  53.5186253  21.9149540  45.8753121  54.1257514
  26.6815359  45.8609393  54.9580868  26.8978974  46.7434031  54.6569696
  26.2009426  45.4695607  54.2286510  21.4214581  48.8195106  61.5351613
  21.2759161  49.1335409  62.4275894  20.9439784  49.4380007  60.9822511
  23.2810964  45.8097654  61.5832502  23.2672532  44.9138748  61.2464800
  23.9983392  45.8168318  62.2170788  25.1337094  46.2434995  63.6285630
  24.8754872  47.1652065  63.6269960  24.6022135  45.8465429  64.3186094
  30.0783283  59.3485782  56.4075715  30.2520161  58.7832204  55.6549567
  30.5712174  60.1486677  56.2255205  15.8960243  51.3600451  64.4739274
  15.3513711  52.1360259  64.6059548  16.7739593  51.7071255  64.3158395
  22.6847859  44.6912035  56.8520072  22.8063771  43.7628681  57.0510960
  22.3949902  44.7050721  55.9398388  25.5539050  42.3766945  59.9886792
  25.5760747  42.4406278  59.0338772  25.9707109  41.5371454  60.1827298
  35.9322674  52.1122205  58.0266015  36.3753820  51.3629530  57.6285138
  35.0549184  52.1032341  57.6439747  31.0658455  58.6652546  53.5072613
  31.7609360  59.2859239  53.7259928  31.4081606  57.8147897  53.7824991
  16.6826265  50.4870347  67.3669431  15.9408001  50.6352982  67.9534061
  16.3619009  50.7478613  66.5036180  32.9649879  56.1152252  55.0359944
  33.4901203  56.4539524  54.3109264  32.8772231  55.1799267  54.8523079
  24.6269927  60.0286325  67.1649821  24.9357054  59.7835472  68.0372520
  25.4245409  60.2332964  66.6768691  24.6490539  62.1824235  59.3955197
  24.2095530  61.6900614  60.0888054  25.3998656  61.6397203  59.1547272
  17.1282878  58.3735776  59.3979825  17.9540898  58.0739548  59.0178469
  16.7776930  57.6043398  59.8469614  22.0964412  57.7262244  61.4677499
  21.4744421  57.0632949  61.1679727  22.7669278  57.7523376  60.7851147
  15.3291483  56.2922102  60.3568759  14.4923392  55.8644277  60.1752760
  15.3015129  56.4854546  61.2939550  22.1688939  46.2044032  71.0610005
  22.2177094  47.0806155  70.6787775  22.7111453  45.6621425  70.4881648
  32.7741660  53.5977622  67.6543871  32.8239665  53.4327629  68.5959393
  32.6655583  52.7304881  67.2641751  21.6577918  56.2766167  54.9435959
  21.8066039  56.9601632  54.2902632  22.4644362  56.2571257  55.4585415
  30.0645422  49.5808550  68.9703177  30.9655285  49.4415015  68.6787175
  30.1393397  49.7463004  69.9101355  24.3988227  46.9575404  67.8156364
  23.5291537  47.2508970  67.5438952  24.6347708  47.5415849  68.5363627
  35.4755539  53.5827443  60.4188462  36.3102430  54.0217247  60.5826023
  35.6114668  53.1066096  59.5996708  32.5247045  51.1407178  66.3665950
  33.0001166  51.3334824  65.5584801  31.6012610  51.1966364  66.1209334
  19.4130551  52.3031345  55.9497028  19.1676593  51.3993675  56.1477238
  19.5826466  52.3048495  55.0076506  27.1027261  43.1755021  65.3321784
  27.6209205  43.9116048  65.0068273  26.7482394  43.4819015  66.1668543
  18.6826199  48.0359703  53.4483190  17.9895444  48.1104058  52.7923226
  18.4377951  47.2720046  53.9704707  27.3539855  39.5955304  60.8522681
  27.6341609  38.9278493  61.4783107  28.1390462  39.7884399  60.3397344
  25.1573324  58.7714298  52.4147707  24.5847291  59.3904485  51.9618179
  25.7306118  59.3213659  52.9487629  31.2248714  48.0172938  64.5994256
  32.1766137  48.1171036  64.6206480  31.0552164  47.2251206  65.1092340
  29.2463093  45.1028521  64.7853657  28.6513025  45.3833534  64.0900145
  28.9612790  45.5922422  65.5570398  28.3770584  59.0551448  53.5456289
  29.3101257  58.9897010  53.7489165  28.2893797  59.8907715  53.0870822
  31.0058600  58.3717318  50.5060237  30.9272232  58.0377182  51.3995995
  31.8268267  58.8639086  50.5051709  33.7036792  51.2379058  63.7136555
  33.6713112  50.2995058  63.8996239  34.3137415  51.3163094  62.9802380
  25.5420122  50.1075111  49.7563759  26.4879227  49.9781319  49.8252177
  25.1634367  49.3689772  50.2333188  33.8531280  48.0290101  63.7594839
  33.3370329  47.2448558  63.5724767  34.7371229  47.7008818  63.9241358
  31.5142007  41.7731117  59.7190651  31.3166828  41.4646205  60.6033983
  32.1241713  42.4992755  59.8488581  39.5213341  52.2995064  62.8542592
  40.2516730  52.0380353  63.4150295  38.9120287  51.5623786  62.8944660
  37.6028639  50.4402927  63.4517043  36.8761802  50.3058892  62.8433535
  37.1875925  50.7479756  64.2573761  25.4258815  54.1592857  71.2164416
  26.3461824  54.3371456  71.4104463  25.3908398  53.2148902  71.0644116
  23.7263040  48.0325087  49.6918645  22.8194495  47.7358200  49.7681358
  24.0039021  47.7354905  48.8252931  14.6440980  49.3531450  60.1417691
  14.3243764  48.4996759  59.8492065  14.0974408  49.5680028  60.8975658
  18.4220888  52.0693891  63.8587198  18.6406897  53.0010999  63.8775231
  18.8346661  51.7101866  64.6442001  25.3425105  42.5761977  55.8462886
  24.5325834  42.2309062  56.2218132  26.0309522  42.2669520  56.4350497
  27.2715654  41.6540023  57.4687183  27.8246692  42.0735477  58.1277206
  27.5085740  40.7275772  57.5110139  23.2948753  47.6427097  73.2489946
  23.1945480  48.5921454  73.1802038  23.0770295  47.3145336  72.3766017
  22.4961824  44.8912022  49.8330624  23.3580988  45.2166920  50.0926441
  22.6812168  44.1043518  49.3203690  14.5129240  52.9734362  62.1110813
  13.8192711  52.5588315  61.5980767  15.2602231  53.0154898  61.5144231
  30.6494461  43.7640549  56.9765847  30.0693130  44.4225353  56.5943899
  30.3830393  42.9417893  56.5653264  29.0998027  43.1645606  59.1787167
  29.5997805  43.2762141  58.3701486  29.7433635  42.8606659  59.8187976
  23.1580023  51.0724236  72.0655008  22.6747105  51.8724596  72.2718897
  23.2440962  51.0832181  71.1122452  16.4265982  52.9052616  59.9876827
  16.4036671  53.0040303  59.0358711  16.7366619  53.7517766  60.3093994
  19.0853360  54.9628771  64.1023442  20.0396614  54.9312713  64.0353373
  18.8865884  54.5019394  64.9173668  19.6752743  53.5329887  66.6694240
  20.4945631  54.0273965  66.6929077  19.9489550  52.6161855  66.6411807
  29.4319339  45.9240639  56.0322195  28.5445194  46.2090290  55.8142390
  29.8473328  45.7634402  55.1849472  32.7833875  45.9487160  59.7476534
  33.5594265  46.4383612  60.0201151  32.0582009  46.3745214  60.2048404
  35.2206433  46.6614779  60.8050475  35.8150924  46.4210515  60.0943783
  35.2933017  45.9421910  61.4324011  17.4403589  60.5048390  61.1193640
  17.3058057  59.7448791  60.5531638  17.0235651  61.2289290  60.6522429
  28.5762552  55.6885314  50.1270215  29.2798402  55.8935316  50.7427871
  27.8525201  56.2562076  50.3919299  29.4060362  51.4395175  56.2472485
  29.3495564  51.8963726  55.4080118  29.9588705  50.6785860  56.0695328
  33.2165168  47.2284907  57.0722605  32.9602103  46.8281542  57.9030812
  32.5918036  47.9428701  56.9472744  37.5277506  49.9680980  59.5793896
  36.9677064  50.0374169  60.3525458  36.9221010  49.7921965  58.8593392
  20.5972715  61.4017707  61.3312082  20.4805099  62.3463140  61.2290773
  19.7765161  61.0991269  61.7197882  30.4849250  56.1267843  52.1768675
  31.3194854  55.6949041  51.9946150  30.3233592  55.9549857  53.1045570
  30.1395142  52.6299956  53.5425014  30.0843946  52.4644228  52.6013458
  29.5141197  53.3375989  53.6987204  14.9287657  47.8668021  67.3686437
  15.5746520  47.3566975  67.8573662  14.7204808  48.6036702  67.9429862
  27.4541049  54.9348868  72.8678577  28.3232209  55.1089520  72.5065212
  26.9747800  55.7543285  72.7454307  23.4491267  42.1308065  53.1210333
  23.4369937  43.0749905  53.2778604  24.3414689  41.9478211  52.8269794
  21.6227229  62.0545969  64.5468011  22.5254476  62.0869579  64.8634506
  21.3964599  61.1246420  64.5614347  23.3780831  60.8076956  61.2078089
  22.4276462  60.8078817  61.0942462  23.6813317  60.0609690  60.6914124
  27.2643387  38.7250842  57.3756270  26.4975782  38.1709328  57.5212952
  27.6754092  38.7972711  58.2370421  19.2685148  45.0135638  71.4661451
  20.1316609  44.6572442  71.6764775  18.6950558  44.6749532  72.1536855
  39.1133525  66.6437494  62.2723852  39.7511935  66.5244241  61.5687192
  38.9954368  67.5918338  62.3311804  35.9223231  66.5964922  62.2085377
  35.5841742  66.4805987  61.3205911  36.7912999  66.1956087  62.1886383
  31.7810047  68.4500398  58.1982267  31.2174912  68.3590335  57.4298555
  31.6662442  67.6300303  58.6784760  29.3274479  69.9451590  61.0366488
  30.1195771  69.6042415  60.6212787  29.5671129  70.0546565  61.9568641
  37.3609605  72.1171366  53.5096732  36.7097585  72.7025447  53.1230746
  38.1553968  72.6477561  53.5691770  31.2865233  69.2060503  53.9083867
  32.0596109  68.6589490  53.7696743  31.6390631  70.0704753  54.1198328
  33.1250275  70.5336886  67.1150766  32.8340141  71.4382516  66.9997432
  33.7607259  70.5753413  67.8294836  34.0506482  67.9113734  63.7052126
  34.6470054  67.6869757  62.9909089  34.1081453  67.1698480  64.3077574
  33.6231510  65.3653169  51.5402317  33.8757031  64.8434691  50.7785780
  32.6856069  65.2019315  51.6429000  38.6674793  64.3688948  59.3477060
  39.4537882  63.9508371  58.9967477  38.9313497  65.2735040  59.5158708
  38.8384871  69.8061798  54.0465717  38.2030703  69.8796425  54.7586621
  38.5082277  70.3955397  53.3684796  44.0683220  64.3064181  60.2510038
  44.8008392  63.7363398  60.4847868  43.3122576  63.9185781  60.6916544
  33.3427799  67.2681275  53.7426692  33.2264057  66.5926179  54.4107776
  33.4530059  66.7813649  52.9258845  35.6859340  66.7291423  57.4473381
  35.3217547  66.2022043  58.1586302  36.5426456  66.3389892  57.2739866
  41.5908641  58.0185755  64.7104647  41.2591965  58.8881166  64.4865862
  40.9954254  57.7022039  65.3898677  35.3264827  61.7581322  52.4434729
  35.4939229  62.6261559  52.8105200  35.1361996  61.9208604  51.5196019
  38.0840160  70.2198301  64.1100560  37.7840883  71.1223340  64.0016367
  37.7391220  69.9530484  64.9621713  31.5352642  66.6712098  60.1437264
  30.6103138  66.5388312  60.3514956  31.7837055  67.4506317  60.6407207
  41.4837304  62.7380841  61.7897997  40.5754181  62.6696250  61.4956758
  41.4324900  63.2152786  62.6179823  35.3054048  64.2138980  53.4281396
  35.1853673  64.6596030  54.2666876  34.6106636  64.5624297  52.8694934
  28.8961453  66.3145371  60.9781053  29.0253834  66.5679850  61.8920465
  28.2158904  66.9073079  60.6585708  33.0660940  76.9842621  57.0771527
  32.9884970  77.9350447  57.1560008  32.4622584  76.6388494  57.7346454
  43.3498950  60.9397280  63.5675871  42.7073331  61.2329813  62.9215666
  42.8453879  60.8250200  64.3729068  41.0039114  64.6860453  54.2561730
  41.9156970  64.9187840  54.0809428  40.4948761  65.2697497  53.6936809
  35.6410952  64.0457687  65.2656580  36.4872147  64.4697101  65.4091229
  35.5809589  63.3891312  65.9595143  39.6108696  69.6686271  61.6475312
  38.9817559  69.8331985  60.9451380  39.2234358  70.0827881  62.4186276
  43.4897928  70.6040709  59.0019675  42.8048966  70.9839611  58.4516709
  43.5741778  71.2136036  59.7351623  38.3475089  60.8618489  62.5051591
  37.4859568  61.1599742  62.7968329  38.3737523  61.0788888  61.5732624
  35.1636658  69.4060679  58.9125397  35.6275004  69.6848382  58.1230019
  34.8993456  68.5044124  58.7298487  32.0560739  68.9532161  61.8505160
  32.6262096  69.3819429  61.2122645  32.6468851  68.6714746  62.5489346
  34.1005544  65.5283832  55.7214962  34.8029588  65.9804875  56.1888888
  33.7686173  64.8867651  56.3494855  27.8430878  63.7867384  61.0232095
  27.0529932  64.0424913  60.5472206  28.3342126  64.6015722  61.1284136
  41.8594688  71.1272624  63.7737376  42.6812132  70.7252811  63.4920058
  41.8557091  71.0240858  64.7253492  29.7945624  64.1511964  57.9815572
  28.9976787  64.2630658  58.4999068  29.5671216  64.4898616  57.1156463
  35.6251291  70.6756667  65.9298087  35.6895724  71.1377074  66.7656259
  34.9162215  70.0454032  66.0580397  26.1268581  64.0397875  63.4547086
  26.3776620  64.9244885  63.7204662  26.6628130  63.8602476  62.6822178
  49.9500681  67.4711372  60.1222348  49.1964389  66.9018770  59.9666352
  50.0848222  67.4374037  61.0692982  35.3399309  72.3424774  55.7977067
  35.2044984  73.1876310  56.2261915  35.8809121  72.5444052  55.0343001
  28.7928706  69.8600212  56.3704992  29.3053227  70.6543463  56.5210557
  29.4451419  69.1626503  56.3038594  30.6023591  72.9765969  58.4527745
  30.7790219  73.8983933  58.2648729  31.3980425  72.6624388  58.8822125
  29.8875948  65.0230601  68.3289909  29.7729463  64.1215858  68.6297008
  29.0320465  65.2694297  67.9774725  36.9667785  72.9648341  69.9277409
  36.5231639  72.1784719  69.6098314  37.6284999  73.1527491  69.2621300
  31.7254906  74.4944143  64.4538088  32.2762332  74.3661206  63.6815082
  30.8866382  74.7939032  64.1032981  39.0649023  73.2451141  67.9558810
  39.0467499  74.0660022  67.4639080  39.9868943  73.1205216  68.1808952
  38.6891772  55.8655336  64.3275961  38.3456042  56.7556978  64.2515071
  39.0570735  55.6756994  63.4645546  26.7577623  68.1888867  57.1464563
  27.5952845  68.5985875  56.9298270  26.9355891  67.2488309  57.1164757
  38.6542055  65.8563947  52.8348396  38.1388679  66.6268552  53.0736783
  38.3819364  65.1829084  53.4581457  36.2389166  60.7013648  57.8933634
  35.3830763  60.3120499  57.7139273  36.6516118  60.7805609  57.0333420
  37.7688313  58.2359991  62.2925194  37.2653108  58.1990127  61.4792999
  38.0618920  59.1452734  62.3521851  34.0131199  58.3198721  61.2991376
  34.8784196  58.1241530  60.9397265  34.0808708  58.0909073  62.2260732
  43.6276329  68.6096302  54.7701569  42.8505772  68.2707462  54.3256731
  44.3067810  68.6148925  54.0956534  38.4428358  63.7291039  54.6608177
  38.1378494  64.0437189  55.5118320  39.3958800  63.8072459  54.7035510
  36.8874790  69.8881263  56.3101131  36.3596152  69.1534022  55.9974368
  36.3862293  70.6655939  56.0641099  41.8667636  68.0830283  61.4268177
  41.2091311  68.7729545  61.5148306  42.6708035  68.4726715  61.7702164
  31.6193518  60.5500929  58.6707742  32.1937270  60.3276111  57.9380935
  32.2064500  60.6189624  59.4236344  40.6773095  66.4374656  59.4772119
  41.1904977  67.0704648  59.9793829  41.3274319  65.8375851  59.1115479
  31.9463105  62.5805390  52.6903628  31.1100417  62.9180077  53.0112902
  31.8067875  62.4454370  51.7530765  33.9216186  57.4242178  57.3982812
  33.2680598  57.1091195  56.7739427  33.8796660  56.8017918  58.1242635
  35.0327390  67.7061473  49.3136104  34.1254452  67.4750727  49.5127253
  35.5298422  66.9099092  49.5010085  37.9395469  76.4158980  52.2332790
  37.2657168  76.7190677  52.8417748  38.3261291  77.2188061  51.8838247
  37.1553926  63.9124112  61.7230459  36.2376487  64.1339059  61.5652148
  37.5714070  63.9870422  60.8642167  37.9388974  65.3115527  56.8533140
  38.6860793  65.8236924  56.5440262  38.2080563  64.9899580  57.7137533
  36.2115624  67.8074068  53.8360094  35.3026843  67.5233101  53.9332564
  36.2410708  68.2273147  52.9763401  41.4434891  71.4180657  57.6051262
  40.9897218  70.5771567  57.6616452  40.8128858  72.0542056  57.9426042
  40.3867811  62.3472643  58.8351929  39.6490568  61.8350030  59.1662172
  40.6394584  61.9073025  58.0235206  39.8867830  73.2557154  58.5401080
  40.1790805  73.8162211  57.8213445  40.3966451  73.5485715  59.2954239
  40.4879438  55.1248895  59.4293698  40.7938315  54.2646259  59.1419613
  41.2132043  55.7166516  59.2292692  26.7803794  65.5279582  57.8175296
  26.5828194  64.9348943  57.0926363  26.2250458  65.2231792  58.5351235
  34.7600518  65.4202689  59.9369889  34.8149128  64.4676525  59.8612366
  33.9491720  65.5762128  60.4211188  35.9091712  69.3482812  51.1748173
  35.4711142  68.6318671  50.7153810  36.6502152  69.5758926  50.6133264
  32.6992878  64.0379748  57.6960268  31.8860743  64.3373919  58.1025460
  33.1951872  63.6435437  58.4134750  34.8501456  74.0337505  59.6294533
  34.8077634  74.2598352  58.7003065  35.7664155  73.8000880  59.7780334
  44.0264826  67.6240009  57.2324491  43.8882725  67.8141605  56.3045680
  43.6701045  68.3859391  57.6892542  32.1906953  61.6098104  63.3121503
  32.8306332  61.4686863  62.6144466  31.3584483  61.3232617  62.9360105
  44.0534206  69.6916536  62.2435763  44.4870713  69.5991825  63.0918817
  44.7665787  69.6674036  61.6055779  32.9667256  70.9100534  59.4256496
  33.7607855  70.4150854  59.2239071  32.2558949  70.3818397  59.0624201
  37.7862101  73.2918630  63.7768863  37.8399123  73.8609566  64.5446579
  36.9176882  73.4620515  63.4122900  29.2750020  65.0543616  55.5016248
  28.3447608  64.9928071  55.7186210  29.3707492  64.5319569  54.7052890
  29.1935569  61.5798429  58.0894490  29.4542386  62.4943762  57.9803650
  30.0152741  61.1122871  58.2391103  30.6660494  62.9936186  65.2593314
  31.3383548  62.7853548  64.6105963  29.8390281  62.7958272  64.8198547
  44.9149756  69.7340236  64.7768648  45.1085646  70.6386047  65.0227923
  44.8150374  69.2747655  65.6107233  36.5686066  59.6198127  67.2758975
  35.9213981  60.3188077  67.1823452  37.3387082  60.0534271  67.6435224
  36.7450201  67.4578892  65.3355795  37.6742261  67.6090051  65.1624762
  36.3241231  67.5462913  64.4804442  35.5438532  71.4829556  63.1054333
  35.4049618  71.1148341  63.9780271  34.7553129  71.9977196  62.9338291
  36.1386684  76.5838653  54.4479869  36.3138440  76.1126696  55.2625492
  35.4519472  77.2104419  54.6761130  37.0943748  70.8611159  60.4943171
  36.7593580  70.8211929  61.3900820  36.5947693  70.1955875  60.0213581
  31.0687992  66.2678789  66.0195752  30.9307789  65.5359028  66.6207291
  31.9792915  66.1787689  65.7379939  40.0302939  68.2067193  50.7680230
  39.4132110  67.4814021  50.6713283  39.5619428  68.9676554  50.4247304
  33.6970292  65.9798748  65.5079431  34.4069911  65.3391940  65.4666050
  33.6539600  66.2311643  66.4305612  41.6857071  72.9166102  68.4286011
  41.6269617  72.2325322  67.7616594  42.0876589  73.6585092  67.9766637
  32.4099226  62.9663966  67.3275071  31.8736583  62.5154705  67.9796667
  31.8215935  63.1009875  66.5845535  30.7047770  79.7328015  61.2219729
  30.9444368  80.3646540  61.8998748  29.8616966  79.3816055  61.5085089
  31.8201485  62.4252618  49.8901534  30.9430951  62.3041418  49.5263781
  32.2959238  61.6338696  49.6380423  41.6874478  70.8805686  66.6599990
  40.8001257  70.5431607  66.7826389  42.2573029  70.1488717  66.8968756
  23.3403625  67.2129777  59.9843042  24.0274665  66.8991507  59.3964057
  23.1851754  68.1171142  59.7110293  28.1438347  62.1019974  64.4128065
  28.0596536  61.4945643  63.6778475  27.3221054  62.5928992  64.4137562
  35.2175632  75.5407138  63.6261233  35.1445803  76.3462109  64.1380538
  34.7753025  75.7399104  62.8009255  35.0065411  74.7778908  57.1364055
  34.2232933  75.3200588  57.2302279  35.7058156  75.2952888  57.5358296
  38.3162061  60.5873537  59.7798260  38.8130761  59.8343500  59.4599331
  37.5449043  60.6237854  59.2141470  46.1691819  66.2913903  61.4216552
  46.1581695  67.1738618  61.0510485  45.3009198  65.9385454  61.2271089
  37.6774315  75.4393972  65.7819392  38.3902287  76.0741437  65.7095294
  37.1864344  75.5357838  64.9659394  39.3991842  69.3445225  57.3536684
  38.4648121  69.4646687  57.1841388  39.5768510  68.4417691  57.0896694
  34.8997030  62.7290920  59.5069945  34.5294818  62.1761961  60.1950851
  35.3956122  62.1249054  58.9544945  42.7864393  65.1862544  57.8886718
  43.2524846  66.0190535  57.8147021  43.2371894  64.7207525  58.5931976
  32.7286229  73.1888415  66.6024963  33.4295688  73.8224898  66.7554357
  32.2581344  73.5303147  65.8420602  40.8540624  71.5306365  54.8872870
  41.1300468  71.4162960  55.7966744  39.9845123  71.1323850  54.8485043
  40.7581056  57.5543131  61.9277619  39.8444136  57.7847358  62.0959826
  41.1874158  57.6381575  62.7791652  37.4894688  75.7792716  58.5305684
  37.6717083  74.9614372  58.9933436  38.3127674  75.9960408  58.0930574
  37.8236854  74.7060901  55.7920732  38.3524620  74.1953356  55.1790894
  38.0865074  74.3903431  56.6566265  28.3253947  72.7224770  63.5356066
  28.9107383  71.9768458  63.6683970  28.1278785  73.0328727  64.4192729
  31.1792602  75.7576018  58.5518508  30.5102977  76.2422145  58.0682548
  31.0405472  76.0045238  59.4661886  22.9171601  65.2930371  62.2560509
  22.9555701  64.7593961  63.0497627  22.4111894  64.7665576  61.6371486
  35.3197870  77.7919761  65.1501166  35.8716179  77.9551383  65.9150252
  35.6604064  78.3824199  64.4781191  30.2962364  60.1394911  65.7523051
  30.3603690  61.0009742  65.3400449  30.2329484  59.5268913  65.0195410
  26.5480179  64.0194473  55.3314440  26.8433620  63.1105151  55.2781494
  25.6468215  63.9982212  55.0095442  38.4566258  75.7401737  62.1364848
  38.3317397  74.9391477  61.6275794  39.1145349  76.2347930  61.6478818
  30.0774426  62.0950469  61.3141989  29.3561012  62.7086437  61.1749462
  30.8667682  62.6308234  61.2358635  40.5201166  73.5410757  63.7644399
  39.5731502  73.4216108  63.6922725  40.8683939  72.6533255  63.8470660
  32.8800740  59.4304896  67.5882640  33.4035141  59.6767192  68.3508950
  32.6613073  60.2624931  67.1685778  28.2768021  61.7008570  55.4553765
  27.9480727  60.8205949  55.2728871  28.6307391  61.6456239  56.3430154
  37.5247599  73.3363473  59.9648751  37.3772562  72.4080181  60.1456321
  38.3501093  73.3583564  59.4805826  31.3909844  61.9881540  55.8229243
  31.7305916  62.5167462  55.1007851  31.8381964  62.3261946  56.5987809
  41.1281721  74.1592032  61.0513624  42.0528269  73.9534893  60.9138075
  40.9597025  73.9108433  61.9602965  34.0853285  60.3718591  65.2732311
  33.7450105  59.5726404  65.6752991  33.3792291  60.6720302  64.7009144
  34.7369756  57.4567903  63.7259634  35.5595826  56.9828382  63.6038524
  34.9807820  58.2358387  64.2258320  33.3777991  60.4856162  54.0222536
  34.0986353  60.8637415  53.5186253  32.7543295  61.2045039  54.1257514
  37.5209114  61.1901311  54.9580868  37.7372728  62.0725949  54.6569696
  37.0403181  60.7987524  54.2286510  32.2608335  64.1487024  61.5351613
  32.1152916  64.4627327  62.4275894  31.7833539  64.7671924  60.9822511
  34.1204718  61.1389572  61.5832502  34.1066287  60.2430665  61.2464800
  34.8377146  61.1460236  62.2170788  35.9730849  61.5726912  63.6285630
  35.7148627  62.4943983  63.6269960  35.4415889  61.1757347  64.3186094
  40.9177037  74.6777699  56.4075715  41.0913915  74.1124122  55.6549567
  41.4105929  75.4778594  56.2255205  26.7353997  66.6892368  64.4739274
  26.1907465  67.4652176  64.6059548  27.6133347  67.0363173  64.3158395
  33.5241614  60.0203952  56.8520072  33.6457525  59.0920598  57.0510960
  33.2343656  60.0342638  55.9398388  36.3932804  57.7058863  59.9886792
  36.4154501  57.7698196  59.0338772  36.8100863  56.8663371  60.1827298
  46.7716429  67.4414122  58.0266015  47.2147575  66.6921448  57.6285138
  45.8942939  67.4324259  57.6439747  41.9052210  73.9944464  53.5072613
  42.6003115  74.6151156  53.7259928  42.2475360  73.1439815  53.7824991
  27.5220019  65.8162265  67.3669431  26.7801755  65.9644900  67.9534061
  27.2012763  66.0770530  66.5036180  43.8043633  71.4444169  55.0359944
  44.3294957  71.7831442  54.3109264  43.7165986  70.5091185  54.8523079
  35.4663682  75.3578243  67.1649821  35.7750808  75.1127390  68.0372520
  36.2639164  75.5624881  66.6768691  35.4884294  77.5116153  59.3955197
  35.0489284  77.0192531  60.0888054  36.2392411  76.9689120  59.1547272
  27.9676633  73.7027693  59.3979825  28.7934653  73.4031465  59.0178469
  27.6170685  72.9335316  59.8469614  32.9358166  73.0554162  61.4677499
  32.3138175  72.3924867  61.1679727  33.6063033  73.0815294  60.7851147
  26.1685238  71.6214020  60.3568759  25.3317146  71.1936194  60.1752760
  26.1408883  71.8146463  61.2939550  32.4971673  71.6058085  54.9435959
  32.6459793  72.2893549  54.2902632  33.3038116  71.5863175  55.4585415
  35.2381982  62.2867322  67.8156364  34.3685291  62.5800888  67.5438952
  35.4741462  62.8707767  68.5363627  45.1153611  71.3466481  67.8985892
  44.8238419  71.7096461  68.7349353  44.5025742  70.6333489  67.7199224
  46.3149293  68.9119361  60.4188462  47.1496185  69.3509165  60.5826023
  46.4508422  68.4358014  59.5996708  30.2524306  67.6323263  55.9497028
  30.0070348  66.7285593  56.1477238  30.4220220  67.6340413  55.0076506
  37.9421016  58.5046939  65.3321784  38.4602960  59.2407966  65.0068273
  37.5876149  58.8110932  66.1668543  29.5219953  63.3651620  53.4483190
  28.8289198  63.4395975  52.7923226  29.2771705  62.6011964  53.9704707
  38.1933610  54.9247222  60.8522681  38.4735364  54.2570411  61.4783107
  38.9784217  55.1176317  60.3397344  35.9967078  74.1006215  52.4147707
  35.4241046  74.7196403  51.9618179  36.5699872  74.6505577  52.9487629
  42.0642468  63.3464856  64.5994256  43.0159891  63.4462953  64.6206480
  41.8945919  62.5543124  65.1092340  40.0856848  60.4320439  64.7853657
  39.4906780  60.7125451  64.0900145  39.8006544  60.9214340  65.5570398
  39.2164338  74.3843366  53.5456289  40.1495011  74.3188927  53.7489165
  39.1287551  75.2199632  53.0870822  41.8452355  73.7009236  50.5060237
  41.7665986  73.3669100  51.3995995  42.6662022  74.1931004  50.5051709
  44.5430546  66.5670975  63.7136555  44.5106866  65.6286976  63.8996239
  45.1531170  66.6455012  62.9802380  36.3813877  65.4367028  49.7563759
  37.3272982  65.3073236  49.8252177  36.0028122  64.6981690  50.2333188
  44.6925035  63.3582019  63.7594839  44.1764083  62.5740475  63.5724767
  45.5764983  63.0300735  63.9241358  42.3535761  57.1023034  59.7190651
  42.1560583  56.7938122  60.6033983  42.9635467  57.8284673  59.8488581
  50.3607096  67.6286982  62.8542592  51.0910484  67.3672270  63.4150295
  49.7514041  66.8915704  62.8944660  48.4422393  65.7694845  63.4517043
  47.7155557  65.6350810  62.8433535  48.0269680  66.0771673  64.2573761
  34.5656794  63.3617005  49.6918645  33.6588249  63.0650117  49.7681358
  34.8432775  63.0646823  48.8252931  25.4834734  64.6823368  60.1417691
  25.1637519  63.8288676  59.8492065  24.9368163  64.8971946  60.8975658
  29.2614642  67.3985809  63.8587198  29.4800652  68.3302917  63.8775231
  29.6740416  67.0393783  64.6442001  36.1818860  57.9053894  55.8462886
  35.3719588  57.5600979  56.2218132  36.8703277  57.5961438  56.4350497
  38.1109408  56.9831941  57.4687183  38.6640447  57.4027395  58.1277206
  38.3479494  56.0567689  57.5110139  33.3355579  60.2203940  49.8330624
  34.1974743  60.5458838  50.0926441  33.5205923  59.4335436  49.3203690
  25.3522994  68.3026279  62.1110813  24.6586466  67.8880232  61.5980767
  26.0995985  68.3446816  61.5144231  41.4888215  59.0932466  56.9765847
  40.9086884  59.7517270  56.5943899  41.2224148  58.2709811  56.5653264
  39.9391782  58.4937524  59.1787167  40.4391560  58.6054059  58.3701486
  40.5827389  58.1898577  59.8187976  27.2659737  68.2344533  59.9876827
  27.2430425  68.3332221  59.0358711  27.5760373  69.0809684  60.3093994
  29.9247115  70.2920688  64.1023442  30.8790368  70.2604631  64.0353373
  29.7259638  69.8311312  64.9173668  30.5146497  68.8621804  66.6694240
  31.3339386  69.3565883  66.6929077  30.7883305  67.9453772  66.6411807
  40.2713093  61.2532557  56.0322195  39.3838948  61.5382207  55.8142390
  40.6867082  61.0926320  55.1849472  43.6227629  61.2779078  59.7476534
  44.3988019  61.7675530  60.0201151  42.8975764  61.7037132  60.2048404
  46.0600188  61.9906697  60.8050475  46.6544679  61.7502433  60.0943783
  46.1326772  61.2713827  61.4324011  28.2797344  75.8340308  61.1193640
  28.1451812  75.0740709  60.5531638  27.8629406  76.5581208  60.6522429
  39.4156307  71.0177231  50.1270215  40.1192157  71.2227234  50.7427871
  38.6918955  71.5853993  50.3919299  40.2454117  66.7687093  56.2472485
  40.1889318  67.2255644  55.4080118  40.7982459  66.0077777  56.0695328
  44.0558923  62.5576824  57.0722605  43.7995857  62.1573460  57.9030812
  43.4311791  63.2720618  56.9472744  48.3671261  65.2972898  59.5793896
  47.8070819  65.3666087  60.3525458  47.7614764  65.1213882  58.8593392
  31.4366470  76.7309625  61.3312082  31.3198854  77.6755057  61.2290773
  30.6158916  76.4283186  61.7197882  41.3243004  71.4559761  52.1768675
  42.1588608  71.0240959  51.9946150  41.1627347  71.2841774  53.1045570
  40.9788896  67.9591874  53.5425014  40.9237700  67.7936145  52.6013458
  40.3534952  68.6667907  53.6987204  25.7681411  63.1959938  67.3686437
  26.4140275  62.6858892  67.8573662  25.5598562  63.9328620  67.9429862
  34.2885022  57.4599983  53.1210333  34.2763692  58.4041823  53.2778604
  35.1808444  57.2770128  52.8269794  32.4620984  77.3837887  64.5468011
  33.3648230  77.4161497  64.8634506  32.2358354  76.4538338  64.5614347
  34.2174586  76.1368873  61.2078089  33.2670217  76.1370735  61.0942462
  34.5207072  75.3901608  60.6914124  38.1037141  54.0542759  57.3756270
  37.3369537  53.5001246  57.5212952  38.5147846  54.1264628  58.2370421
  49.9527279  81.9729412  62.2723852  50.5905689  81.8536159  61.5687192
  49.8348122  82.9210256  62.3311804  46.7616985  81.9256840  62.2085377
  46.4235497  81.8097904  61.3205911  47.6306754  81.5248005  62.1886383
  42.6203801  83.7792316  58.1982267  42.0568666  83.6882253  57.4298555
  42.5056196  82.9592221  58.6784760  47.2436768  83.0791691  68.1671582
  47.2325409  82.6844490  67.2952086  47.4057408  82.3457764  68.7605354
  40.1668233  85.2743508  61.0366488  40.9589525  84.9334332  60.6212787
  40.4064883  85.3838483  61.9568641  48.2003360  87.4463284  53.5096732
  47.5491340  88.0317364  53.1230746  48.9947723  87.9769479  53.5691770
  42.1258987  84.5352421  53.9083867  42.8989863  83.9881408  53.7696743
  42.4784386  85.3996670  54.1198328  43.9644030  85.8628803  67.1150766
  43.6733896  86.7674434  66.9997432  44.6001014  85.9045331  67.8294836
  44.8900236  83.2405652  63.7052126  45.4863809  83.0161674  62.9909089
  44.9475208  82.4990397  64.3077574  44.4625265  80.6945087  51.5402317
  44.7150786  80.1726608  50.7785780  43.5249824  80.5311233  51.6429000
  49.5068548  79.6980865  59.3477060  50.2931637  79.2800289  58.9967477
  49.7707252  80.6026958  59.5158708  49.6778625  85.1353716  54.0465717
  49.0424458  85.2088342  54.7586621  49.3476031  85.7247315  53.3684796
  54.9076975  79.6356099  60.2510038  55.6402147  79.0655315  60.4847868
  54.1516330  79.2477699  60.6916544  44.1821554  82.5973193  53.7426692
  44.0657812  81.9218096  54.4107776  44.2923813  82.1105567  52.9258845
  46.5253095  82.0583340  57.4473381  46.1611302  81.5313961  58.1586302
  47.3820210  81.6681809  57.2739866  52.4302395  73.3477673  64.7104647
  52.0985720  74.2173084  64.4865862  51.8348009  73.0313957  65.3898677
  46.1658581  77.0873240  52.4434729  46.3332984  77.9553476  52.8105200
  45.9755751  77.2500522  51.5196019  48.9233915  85.5490219  64.1100560
  48.6234638  86.4515258  64.0016367  48.5784974  85.2822402  64.9621713
  42.3746396  82.0004016  60.1437264  41.4496893  81.8680230  60.3514956
  42.6230809  82.7798235  60.6407207  52.3231058  78.0672759  61.7897997
  51.4147936  77.9988167  61.4956758  52.2718654  78.5444704  62.6179823
  46.1447802  79.5430897  53.4281396  46.0247428  79.9887948  54.2666876
  45.4500391  79.8916215  52.8694934  39.7355207  81.6437289  60.9781053
  39.8647588  81.8971768  61.8920465  39.0552658  82.2364997  60.6585708
  43.9054694  92.3134539  57.0771527  43.8278724  93.2642364  57.1560008
  43.3016338  91.9680412  57.7346454  46.3971924  79.4862405  69.7332894
  45.6205258  80.0456325  69.7235759  47.0362487  79.9719188  70.2547764
  54.1892705  76.2689197  63.5675871  53.5467085  76.5621731  62.9215666
  53.6847633  76.1542118  64.3729068  51.8432869  80.0152371  54.2561730
  52.7550725  80.2479757  54.0809428  51.3342516  80.5989415  53.6936809
  44.6518297  82.2947858  69.2950861  45.3932981  82.8332902  69.0185685
  43.9455282  82.9214147  69.4522413  50.1273636  84.4376998  67.8923023
  50.5356992  83.9959409  67.1477655  49.4050898  83.8629626  68.1457216
  46.4804706  79.3749605  65.2656580  47.3265901  79.7989019  65.4091229
  46.4203344  78.7183229  65.9595143  50.4502451  84.9978189  61.6475312
  49.8211313  85.1623903  60.9451380  50.0628113  85.4119799  62.4186276
  54.3291683  85.9332627  59.0019675  53.6442721  86.3131528  58.4516709
  54.4135532  86.5427954  59.7351623  49.6304152  77.0353974  66.9237753
  49.3865083  77.7896034  66.3872029  49.9064082  77.4139321  67.7585000
  51.5842614  83.5792586  65.6015019  51.7959510  84.2224346  64.9249400
  51.5372363  82.7454902  65.1336949  49.1868843  76.1910407  62.5051591
  48.3253322  76.4891660  62.7968329  49.2131278  76.4080805  61.5732624
  46.0030413  84.7352597  58.9125397  46.4668758  85.0140300  58.1230019
  45.7387211  83.8336042  58.7298487  42.8954494  84.2824079  61.8505160
  43.4655851  84.7111347  61.2122645  43.4862606  84.0006663  62.5489346
  44.9399299  80.8575749  55.7214962  45.6423342  81.3096793  56.1888888
  44.6079927  80.2159568  56.3494855  43.3879660  79.4487506  70.0966171
  42.7578321  80.1303787  70.3301568  43.2815748  79.3370588  69.1519310
  38.6824633  79.1159302  61.0232095  37.8923687  79.3716831  60.5472206
  39.1735880  79.9307640  61.1284136  40.6339378  79.4803881  57.9815572
  39.8370541  79.5922576  58.4999068  40.4064970  79.8190534  57.1156463
  46.4645046  86.0048585  65.9298087  46.5289478  86.4668992  66.7656259
  45.7555970  85.3745950  66.0580397  36.9662336  79.3689793  63.4547086
  37.2170374  80.2536802  63.7204662  37.5021884  79.1894394  62.6822178
  46.1793063  87.6716692  55.7977067  46.0438738  88.5168228  56.2261915
  46.7202876  87.8735970  55.0343001  39.6322461  85.1892130  56.3704992
  40.1446981  85.9835380  56.5210557  40.2845174  84.4918421  56.3038594
  41.4417345  88.3057886  58.4527745  41.6183974  89.2275851  58.2648729
  42.2374179  87.9916306  58.8822125  45.5828364  75.1666151  70.0511679
  46.3238077  75.7673304  69.9716141  45.8146287  74.4243789  69.4929721
  40.7269702  80.3522518  68.3289909  40.6123217  79.4507776  68.6297008
  39.8714220  80.5986215  67.9774725  47.8061540  88.2940259  69.9277409
  47.3625394  87.5076637  69.6098314  48.4678753  88.4819409  69.2621300
  42.5648661  89.8236060  64.4538088  43.1156086  89.6953124  63.6815082
  41.7260137  90.1230949  64.1032981  46.3615832  86.0887188  68.7982319
  46.8944169  85.3275476  68.5681627  45.8329913  85.7960840  69.5406473
  49.5285527  71.1947254  64.3275961  49.1849796  72.0848896  64.2515071
  49.8964490  71.0048912  63.4645546  37.5971378  83.5180784  57.1464563
  38.4346600  83.9277793  56.9298270  37.7749645  82.5780227  57.1164757
  49.4935810  81.1855865  52.8348396  48.9782433  81.9560470  53.0736783
  49.2213118  80.5121001  53.4581457  47.0782921  76.0305566  57.8933634
  46.2224517  75.6412416  57.7139273  47.4909872  76.1097527  57.0333420
  48.6082067  73.5651909  62.2925194  48.1046863  73.5282044  61.4792999
  48.9012674  74.4744652  62.3521851  44.8524953  73.6490639  61.2991376
  45.7177950  73.4533448  60.9397265  44.9202462  73.4200991  62.2260732
  54.4670084  83.9388220  54.7701569  53.6899527  83.5999379  54.3256731
  55.1461565  83.9440843  54.0956534  49.2822113  79.0582957  54.6608177
  48.9772248  79.3729106  55.5118320  50.2352555  79.1364377  54.7035510
  47.7268545  85.2173180  56.3101131  47.1989906  84.4825940  55.9974368
  47.2256047  85.9947857  56.0641099  52.7061391  83.4122201  61.4268177
  52.0485065  84.1021462  61.5148306  53.5101790  83.8018633  61.7702164
  42.4587272  75.8792847  58.6707742  43.0331024  75.6568028  57.9380935
  43.0458255  75.9481541  59.4236344  51.5166850  81.7666574  59.4772119
  52.0298731  82.3996566  59.9793829  52.1668073  81.1667769  59.1115479
  42.7856859  77.9097308  52.6903628  41.9494172  78.2471994  53.0112902
  42.6461629  77.7746288  51.7530765  44.7609940  72.7534096  57.3982812
  44.1074352  72.4383113  56.7739427  44.7190414  72.1309836  58.1242635
  45.8721145  83.0353391  49.3136104  44.9648207  82.8042644  49.5127253
  46.3692177  82.2391010  49.5010085  48.7789224  91.7450898  52.2332790
  48.1050923  92.0482595  52.8417748  49.1655046  92.5479978  51.8838247
  47.9947680  79.2416029  61.7230459  47.0770242  79.4630976  61.5652148
  48.4107824  79.3162340  60.8642167  48.7782728  80.6407445  56.8533140
  49.5254547  81.1528842  56.5440262  49.0474318  80.3191498  57.7137533
  47.0509378  83.1365986  53.8360094  46.1420598  82.8525018  53.9332564
  47.0804462  83.5565064  52.9763401  52.2828646  86.7472575  57.6051262
  51.8290973  85.9063485  57.6616452  51.6522612  87.3833973  57.9426042
  51.2261565  77.6764561  58.8351929  50.4884322  77.1641947  59.1662172
  51.4788339  77.2364943  58.0235206  51.3273193  70.4540813  59.4293698
  51.6332069  69.5938177  59.1419613  52.0525797  71.0458433  59.2292692
  37.6197549  80.8571500  57.8175296  37.4221949  80.2640860  57.0926363
  37.0644213  80.5523710  58.5351235  45.5994272  80.7494606  59.9369889
  45.6542882  79.7968443  59.8612366  44.7885474  80.9054045  60.4211188
  46.7485466  84.6774729  51.1748173  46.3104896  83.9610588  50.7153810
  47.4895907  84.9050844  50.6133264  43.5386632  79.3671666  57.6960268
  42.7254498  79.6665837  58.1025460  44.0345626  78.9727355  58.4134750
  45.6895210  89.3629423  59.6294533  45.6471389  89.5890269  58.7003065
  46.6057909  89.1292797  59.7780334  49.1360844  79.8313490  66.5275162
  49.4910232  80.0584964  67.3869628  49.7832975  80.1631867  65.9052417
  54.8658581  82.9531926  57.2324491  54.7276479  83.1433522  56.3045680
  54.5094800  83.7151309  57.6892542  43.0300707  76.9390021  63.3121503
  43.6700086  76.7978781  62.6144466  42.1978238  76.6524535  62.9360105
  54.8927960  85.0208453  62.2435763  55.3264467  84.9283742  63.0918817
  55.6059541  84.9965954  61.6055779  43.8061011  86.2392452  59.4256496
  44.6001609  85.7442772  59.2239071  43.0952703  85.7110315  59.0624201
  48.6255855  88.6210547  63.7768863  48.6792878  89.1901484  64.5446579
  47.7570637  88.7912432  63.4122900  40.1143774  80.3835534  55.5016248
  39.1841362  80.3219989  55.7186210  40.2101246  79.8611486  54.7052890
  40.0329323  76.9090346  58.0894490  40.2936141  77.8235680  57.9803650
  40.8546496  76.4414789  58.2391103  41.5054249  78.3228104  65.2593314
  42.1777302  78.1145466  64.6105963  40.6784035  78.1250190  64.8198547
  47.4079821  74.9490045  67.2758975  46.7607736  75.6479994  67.1823452
  48.1780836  75.3826188  67.6435224  50.8158619  85.2138897  70.3509529
  50.6644125  84.9849448  69.4339612  50.8063298  86.1709498  70.3640874
  47.5843955  82.7870809  65.3355795  48.5136015  82.9381969  65.1624762
  47.1634985  82.8754830  64.4804442  46.3832287  86.8121474  63.1054333
  46.2443373  86.4440258  63.9780271  45.5946883  87.3269113  62.9338291
  46.9780439  91.9130570  54.4479869  47.1532195  91.4418614  55.2625492
  46.2913227  92.5396337  54.6761130  47.9337502  86.1903077  60.4943171
  47.5987335  86.1503847  61.3900820  47.4341448  85.5247793  60.0213581
  41.9081746  81.5970707  66.0195752  41.7701544  80.8650945  66.6207291
  42.8186669  81.5079607  65.7379939  50.8696694  83.5359111  50.7680230
  50.2525864  82.8105939  50.6713283  50.4013182  84.2968471  50.4247304
  44.5364047  81.3090666  65.5079431  45.2463665  80.6683858  65.4666050
  44.4933355  81.5603561  66.4305612  43.2492981  78.2955884  67.3275071
  42.7130338  77.8446622  67.9796667  42.6609689  78.4301793  66.5845535
  41.5441524  95.0619933  61.2219729  41.7838122  95.6938457  61.8998748
  40.7010721  94.7107973  61.5085089  42.6595240  77.7544535  49.8901534
  41.7824706  77.6333336  49.5263781  43.1352993  76.9630614  49.6380423
  34.1797380  82.5421695  59.9843042  34.8668420  82.2283425  59.3964057
  34.0245508  83.4463060  59.7110293  38.9832102  77.4311892  64.4128065
  38.8990291  76.8237561  63.6778475  38.1614808  77.9220910  64.4137562
  46.0569386  90.8699056  63.6261233  45.9839558  91.6754027  64.1380538
  45.6146779  91.0691021  62.8009255  45.8459166  90.1070826  57.1364055
  45.0626688  90.6492506  57.2302279  46.5451911  90.6244805  57.5358296
  49.1555816  75.9165455  59.7798260  49.6524515  75.1635417  59.4599331
  48.3842797  75.9529772  59.2141470  48.5168070  90.7685890  65.7819392
  49.2296042  91.4033354  65.7095294  48.0258098  90.8649756  64.9659394
  50.2385596  84.6737142  57.3536684  49.3041875  84.7938605  57.1841388
  50.4162265  83.7709609  57.0896694  45.7390785  78.0582838  59.5069945
  45.3688572  77.5053878  60.1950851  46.2349877  77.4540972  58.9544945
  53.6258148  80.5154462  57.8886718  54.0918600  81.3482453  57.8147021
  54.0765648  80.0499443  58.5931976  43.5679983  88.5180333  66.6024963
  44.2689443  89.1516816  66.7554357  43.0975098  88.8595065  65.8420602
  51.6934379  86.8598283  54.8872870  51.9694223  86.7454877  55.7966744
  50.8238878  86.4615768  54.8485043  51.5974811  72.8835049  61.9277619
  50.6837890  73.1139275  62.0959826  52.0267912  72.9673493  62.7791652
  51.3681269  81.0724941  64.4277513  50.7152719  81.3200848  63.7729966
  51.7461649  80.2589079  64.0939991  48.3288443  91.1084634  58.5305684
  48.5110837  90.2906290  58.9933436  49.1521429  91.3252326  58.0930574
  48.6630608  90.0352819  55.7920732  49.1918375  89.5245273  55.1790894
  48.9258828  89.7195349  56.6566265  47.4168842  81.8144752  70.9143550
  46.7409479  81.7138881  71.5845926  48.2396476  81.6583965  71.3779548
  39.1647701  88.0516688  63.5356066  39.7501138  87.3060376  63.6683970
  38.9672540  88.3620645  64.4192729  42.0186356  91.0867936  58.5518508
  41.3496732  91.5714063  58.0682548  41.8799226  91.3337156  59.4661886
  33.7565356  80.6222288  62.2560509  33.7949455  80.0885879  63.0497627
  33.2505649  80.0957494  61.6371486  46.1591625  93.1211679  65.1501166
  46.7109933  93.2843301  65.9150252  46.4997818  93.7116117  64.4781191
  41.1356118  75.4686829  65.7523051  41.1997445  76.3301660  65.3400449
  41.0723238  74.8560830  65.0195410  40.6108391  77.5409961  69.3996085
  41.2380430  77.1587039  70.0133610  39.7536310  77.3224163  69.7651778
  51.0102499  87.9472937  71.0049821  51.5542403  88.5602895  70.5104776
  50.4289344  88.5052515  71.5216834  37.3873933  79.3486390  55.3314440
  37.6827375  78.4397069  55.2781494  36.4861969  79.3274130  55.0095442
  40.9168180  77.4242387  61.3141989  40.1954766  78.0378355  61.1749462
  41.7061436  77.9600152  61.2358635  43.7194494  74.7596814  67.5882640
  44.2428896  75.0059110  68.3508950  43.5006827  75.5916848  67.1685778
  39.1161775  77.0300488  55.4553765  38.7874481  76.1497867  55.2728871
  39.4701146  76.9748157  56.3430154  48.3641354  88.6655391  59.9648751
  48.2166316  87.7372098  60.1456321  49.1894847  88.6875482  59.4805826
  42.2303598  77.3173458  55.8229243  42.5699671  77.8459379  55.1007851
  42.6775719  77.6553864  56.5987809  44.9247039  75.7010509  65.2732311
  44.5843859  74.9018322  65.6752991  44.2186045  76.0012220  64.7009144
  45.5763511  72.7859821  63.7259634  46.3989580  72.3120299  63.6038524
  45.8201574  73.5650305  64.2258320  44.2171745  75.8148080  54.0222536
  44.9380108  76.1929332  53.5186253  43.5937049  76.5336956  54.1257514
  48.3602868  76.5193229  54.9580868  48.5766483  77.4017866  54.6569696
  47.8796935  76.1279442  54.2286510  43.1002090  79.4778942  61.5351613
  42.9546670  79.7919245  62.4275894  42.6227293  80.0963842  60.9822511
  44.9598473  76.4681490  61.5832502  44.9460041  75.5722583  61.2464800
  45.6770901  76.4752153  62.2170788  46.8124603  76.9018830  63.6285630
  46.5542381  77.8235901  63.6269960  46.2809644  76.5049264  64.3186094
  37.5747752  82.0184286  64.4739274  37.0301220  82.7944094  64.6059548
  38.4527102  82.3655091  64.3158395  44.3635368  75.3495870  56.8520072
  44.4851280  74.4212516  57.0510960  44.0737411  75.3634556  55.9398388
  47.2326559  73.0350780  59.9886792  47.2548256  73.0990114  59.0338772
  47.6494618  72.1955289  60.1827298  57.6110183  82.7706040  58.0266015
  58.0541329  82.0213365  57.6285138  56.7336693  82.7616176  57.6439747
  52.7445964  89.3236381  53.5072613  53.4396869  89.9443074  53.7259928
  53.0869115  88.4731733  53.7824991  38.3613774  81.1454182  67.3669431
  37.6195510  81.2936818  67.9534061  38.0406518  81.4062448  66.5036180
  54.6437388  86.7736087  55.0359944  55.1688712  87.1123360  54.3109264
  54.5559740  85.8383102  54.8523079  46.3057436  90.6870161  67.1649821
  46.6144563  90.4419307  68.0372520  47.1032918  90.8916799  66.6768691
  46.3278048  92.8408070  59.3955197  45.8883039  92.3484449  60.0888054
  47.0786165  92.2981038  59.1547272  38.8070387  89.0319611  59.3979825
  39.6328407  88.7323383  59.0178469  38.4564439  88.2627234  59.8469614
  43.7751920  88.3846079  61.4677499  43.1531930  87.7216784  61.1679727
  44.4456787  88.4107211  60.7851147  37.0078992  86.9505938  60.3568759
  36.1710901  86.5228112  60.1752760  36.9802638  87.1438381  61.2939550
  43.8476448  76.8627867  71.0610005  43.8964603  77.7389990  70.6787775
  44.3898962  76.3205260  70.4881648  54.4529169  84.2561457  67.6543871
  54.5027174  84.0911464  68.5959393  54.3443092  83.3888716  67.2641751
  43.3365427  86.9350003  54.9435959  43.4853548  87.6185467  54.2902632
  44.1431871  86.9155093  55.4585415  51.7432931  80.2392385  68.9703177
  52.6442794  80.0998850  68.6787175  51.8180906  80.4046840  69.9101355
  46.0775736  77.6159240  67.8156364  45.2079046  77.9092806  67.5438952
  46.3135217  78.1999685  68.5363627  54.2034554  81.7991013  66.3665950
  54.6788675  81.9918659  65.5584801  53.2800119  81.8550199  66.1209334
  41.0918060  82.9615180  55.9497028  40.8464102  82.0577510  56.1477238
  41.2613975  82.9632331  55.0076506  48.7814770  73.8338857  65.3321784
  49.2996714  74.5699884  65.0068273  48.4269903  74.1402850  66.1668543
  40.3613708  78.6943538  53.4483190  39.6682953  78.7687893  52.7923226
  40.1165460  77.9303882  53.9704707  49.0327364  70.2539139  60.8522681
  49.3129118  69.5862328  61.4783107  49.8177971  70.4468235  60.3397344
  46.8360833  89.4298133  52.4147707  46.2634800  90.0488320  51.9618179
  47.4093627  89.9797495  52.9487629  52.9036223  78.6756773  64.5994256
  53.8553646  78.7754871  64.6206480  52.7339673  77.8835042  65.1092340
  50.9250602  75.7612356  64.7853657  50.3300534  76.0417369  64.0900145
  50.6400299  76.2506257  65.5570398  50.0558093  89.7135283  53.5456289
  50.9888766  89.6480845  53.7489165  49.9681306  90.5491550  53.0870822
  52.6846109  89.0301154  50.5060237  52.6059741  88.6961017  51.3995995
  53.5055776  89.5222922  50.5051709  47.2207631  80.7658946  49.7563759
  48.1666736  80.6365154  49.8252177  46.8421876  80.0273608  50.2333188
  55.5318789  78.6873936  63.7594839  55.0157838  77.9032393  63.5724767
  56.4158738  78.3592653  63.9241358  53.1929516  72.4314952  59.7190651
  52.9954337  72.1230040  60.6033983  53.8029222  73.1576591  59.8488581
  47.1046324  84.8176692  71.2164416  48.0249333  84.9955291  71.4104463
  47.0695907  83.8732737  71.0644116  45.4050549  78.6908922  49.6918645
  44.4982004  78.3942035  49.7681358  45.6826530  78.3938740  48.8252931
  36.3228489  80.0115286  60.1417691  36.0031273  79.1580594  59.8492065
  35.7761917  80.2263864  60.8975658  40.1008397  82.7277727  63.8587198
  40.3194406  83.6594834  63.8775231  40.5134170  82.3685701  64.6442001
  47.0212614  73.2345812  55.8462886  46.2113343  72.8892897  56.2218132
  47.7097031  72.9253356  56.4350497  48.9503163  72.3123859  57.4687183
  49.5034201  72.7319312  58.1277206  49.1873249  71.3859607  57.5110139
  44.9736262  78.3010932  73.2489946  44.8732989  79.2505289  73.1802038
  44.7557804  77.9729171  72.3766017  44.1749333  75.5495857  49.8330624
  45.0368497  75.8750756  50.0926441  44.3599677  74.7627353  49.3203690
  36.1916749  83.6318197  62.1110813  35.4980220  83.2172150  61.5980767
  36.9389740  83.6738734  61.5144231  52.3281970  74.4224384  56.9765847
  51.7480639  75.0809188  56.5943899  52.0617902  73.6001729  56.5653264
  50.7785536  73.8229442  59.1787167  51.2785314  73.9345976  58.3701486
  51.4221144  73.5190494  59.8187976  44.8367532  81.7308071  72.0655008
  44.3534614  82.5308431  72.2718897  44.9228471  81.7416016  71.1122452
  38.1053491  83.5636451  59.9876827  38.0824180  83.6624138  59.0358711
  38.4154128  84.4101602  60.3093994  40.7640869  85.6212606  64.1023442
  41.7184123  85.5896548  64.0353373  40.5653393  85.1603230  64.9173668
  41.3540251  84.1913722  66.6694240  42.1733140  84.6857801  66.6929077
  41.6277059  83.2745690  66.6411807  51.1106848  76.5824474  56.0322195
  50.2232703  76.8674125  55.8142390  51.5260837  76.4218238  55.1849472
  54.4621384  76.6070995  59.7476534  55.2381774  77.0967448  60.0201151
  53.7369518  77.0329050  60.2048404  56.8993942  77.3198615  60.8050475
  57.4938433  77.0794350  60.0943783  56.9720526  76.6005745  61.4324011
  39.1191098  91.1632225  61.1193640  38.9845566  90.4032626  60.5531638
  38.7023160  91.8873125  60.6522429  50.2550061  86.3469149  50.1270215
  50.9585911  86.5519151  50.7427871  49.5312710  86.9145911  50.3919299
  51.0847871  82.0979010  56.2472485  51.0283073  82.5547562  55.4080118
  51.6376214  81.3369695  56.0695328  54.8952677  77.8868742  57.0722605
  54.6389612  77.4865378  57.9030812  54.2705545  78.6012536  56.9472744
  42.2760224  92.0601542  61.3312082  42.1592608  93.0046975  61.2290773
  41.4552670  91.7575104  61.7197882  52.1636759  86.7851678  52.1768675
  52.9982362  86.3532877  51.9946150  52.0021101  86.6133692  53.1045570
  51.8182651  83.2883792  53.5425014  51.7631455  83.1228063  52.6013458
  51.1928706  83.9959824  53.6987204  36.6075166  78.5251856  67.3686437
  37.2534029  78.0150810  67.8573662  36.3992317  79.2620538  67.9429862
  49.1328558  85.5932703  72.8678577  50.0019718  85.7673356  72.5065212
  48.6535309  86.4127120  72.7454307  45.1278776  72.7891901  53.1210333
  45.1157446  73.7333740  53.2778604  46.0202198  72.6062046  52.8269794
  43.3014738  92.7129804  64.5468011  44.2041985  92.7453415  64.8634506
  43.0752108  91.7830255  64.5614347  45.0568340  91.4660791  61.2078089
  44.1063971  91.4662653  61.0942462  45.3600826  90.7193525  60.6914124
  48.9430896  69.3834677  57.3756270  48.1763291  68.8293164  57.5212952
  49.3541601  69.4556546  58.2370421  40.9472657  75.6719473  71.4661451
  41.8104118  75.3156278  71.6764775  40.3738067  75.3333368  72.1536855
  53.4597556  99.1084234  58.1982267  52.8962421  99.0174171  57.4298555
  53.3449951  98.2884138  58.6784760  51.0061988 100.6035425  61.0366488
  51.7983279 100.2626250  60.6212787  51.2458638 100.7130400  61.9568641
  59.0397114 102.7755202  53.5096732  58.3885094 103.3609282  53.1230746
  59.8341477 103.3061396  53.5691770  52.9652741  99.8644339  53.9083867
  53.7383617  99.3173326  53.7696743  53.3178140 100.7288588  54.1198328
  55.3019019  96.0237005  51.5402317  55.5544540  95.5018526  50.7785780
  54.3643578  95.8603150  51.6429000  55.0215308  97.9265111  53.7426692
  54.9051566  97.2510014  54.4107776  55.1317568  97.4397485  52.9258845
  63.2696150  88.6769590  64.7104647  62.9379474  89.5465001  64.4865862
  62.6741763  88.3605874  65.3898677  57.0052336  92.4165158  52.4434729
  57.1726738  93.2845394  52.8105200  56.8149505  92.5792439  51.5196019
  56.9841557  94.8722815  53.4281396  56.8641182  95.3179866  54.2666876
  56.2894145  95.2208133  52.8694934  54.7448449 107.6426457  57.0771527
  54.6672479 108.5934282  57.1560008  54.1410093 107.2972329  57.7346454
  57.0186818 103.0008610  55.7977067  56.8832493 103.8460145  56.2261915
  57.5596630 103.2027887  55.0343001  50.4716215 100.5184048  56.3704992
  50.9840736 101.3127298  56.5210557  51.1238928  99.8210338  56.3038594
  52.2811100 103.6349804  58.4527745  52.4577728 104.5567769  58.2648729
  53.0767933 103.3208223  58.8822125  48.4365132  98.8472702  57.1464563
  49.2740354  99.2569710  56.9298270  48.6143400  97.9072144  57.1164757
  60.3329564  96.5147783  52.8348396  59.8176188  97.2852387  53.0736783
  60.0606873  95.8412919  53.4581457  57.9176675  91.3597484  57.8933634
  57.0618272  90.9704334  57.7139273  58.3303627  91.4389444  57.0333420
  59.4475822  88.8943827  62.2925194  58.9440617  88.8573962  61.4792999
  59.7406429  89.8036570  62.3521851  60.1215867  94.3874875  54.6608177
  59.8166003  94.7021024  55.5118320  61.0746309  94.4656295  54.7035510
  53.6250614  93.2389225  52.6903628  52.7887926  93.5763912  53.0112902
  53.4855384  93.1038205  51.7530765  55.6003694  88.0826013  57.3982812
  54.9468107  87.7675031  56.7739427  55.5584169  87.4601754  58.1242635
  56.7114899  98.3645308  49.3136104  55.8041961  98.1334562  49.5127253
  57.2085931  97.5682928  49.5010085  59.6182978 107.0742816  52.2332790
  58.9444677 107.3774512  52.8417748  60.0048800 107.8771896  51.8838247
  57.8903133  98.4657903  53.8360094  56.9814352  98.1816936  53.9332564
  57.9198217  98.8856982  52.9763401  48.4591303  96.1863417  57.8175296
  48.2615703  95.5932778  57.0926363  47.9037967  95.8815628  58.5351235
  57.5879221 100.0066647  51.1748173  57.1498651  99.2902506  50.7153810
  58.3289661 100.2342762  50.6133264  56.5288965 104.6921341  59.6294533
  56.4865143 104.9182187  58.7003065  57.4451663 104.4584715  59.7780334
  50.9537529  95.7127451  55.5016248  50.0235117  95.6511907  55.7186210
  51.0495001  95.1903404  54.7052890  57.8174193 107.2422488  54.4479869
  57.9925949 106.7710531  55.2625492  57.1306981 107.8688254  54.6761130
  61.7090448  98.8651029  50.7680230  61.0919619  98.1397857  50.6713283
  61.2406937  99.6260389  50.4247304  52.3835279 110.3911851  61.2219729
  52.6231877 111.0230375  61.8998748  51.5404475 110.0399891  61.5085089
  53.4988994  93.0836453  49.8901534  52.6218460  92.9625254  49.5263781
  53.9746747  92.2922531  49.6380423  45.0191134  97.8713613  59.9843042
  45.7062174  97.5575343  59.3964057  44.8639263  98.7754977  59.7110293
  56.6852920 105.4362743  57.1364055  55.9020442 105.9784423  57.2302279
  57.3845665 105.9536723  57.5358296  54.4073738 103.8472251  66.6024963
  55.1083197 104.4808734  66.7554357  53.9368853 104.1886982  65.8420602
  59.1682197 106.4376551  58.5305684  59.3504592 105.6198207  58.9933436
  59.9915183 106.6544244  58.0930574  59.5024363 105.3644737  55.7920732
  60.0312129 104.8537191  55.1790894  59.7652583 105.0487267  56.6566265
  50.0041456 103.3808606  63.5356066  50.5894892 102.6352294  63.6683970
  49.8066294 103.6912563  64.4192729  52.8580111 106.4159853  58.5518508
  52.1890486 106.9005981  58.0682548  52.7192981 106.6629074  59.4661886
  44.5959110  95.9514206  62.2560509  44.6343210  95.4177797  63.0497627
  44.0899403  95.4249412  61.6371486  48.2267688  94.6778308  55.3314440
  48.5221129  93.7688987  55.2781494  47.3255724  94.6566048  55.0095442
  49.9555530  92.3592406  55.4553765  49.6268236  91.4789785  55.2728871
  50.3094900  92.3040075  56.3430154  59.2035108 103.9947309  59.9648751
  59.0560071 103.0664016  60.1456321  60.0288602 104.0167399  59.4805826
  62.8069230 104.8175867  61.0513624  63.7315778 104.6118729  60.9138075
  62.6384534 104.5692268  61.9602965  55.0565500  91.1439997  54.0222536
  55.7773862  91.5221250  53.5186253  54.4330804  91.8628874  54.1257514
  58.0720313  88.3642698  59.9886792  58.0942010  88.4282031  59.0338772
  58.4888372  87.5247207  60.1827298  49.2007528  96.4746100  67.3669431
  48.4589264  96.6228735  67.9534061  48.8800272  96.7354366  66.5036180
  57.1671803 108.1699988  59.3955197  56.7276793 107.6776367  60.0888054
  57.9179920 107.6272956  59.1547272  49.6464142 104.3611529  59.3979825
  50.4722162 104.0615301  59.0178469  49.2958194 103.5919151  59.8469614
  54.6145675 103.7137997  61.4677499  53.9925684 103.0508702  61.1679727
  55.2850542 103.7399129  60.7851147  47.8472747 102.2797855  60.3568759
  47.0104655 101.8520030  60.1752760  47.8196392 102.4730299  61.2939550
  54.1759182 102.2641920  54.9435959  54.3247302 102.9477385  54.2902632
  54.9825625 102.2447010  55.4585415  51.9311815  98.2907098  55.9497028
  51.6857857  97.3869428  56.1477238  52.1007729  98.2924248  55.0076506
  51.2007462  94.0235456  53.4483190  50.5076707  94.0979811  52.7923226
  50.9559214  93.2595799  53.9704707  57.6754587 104.7590051  52.4147707
  57.1028554 105.3780238  51.9618179  58.2487381 105.3089412  52.9487629
  60.8951847 105.0427201  53.5456289  61.8282520 104.9772763  53.7489165
  60.8075060 105.8783468  53.0870822  58.0601386  96.0950864  49.7563759
  59.0060491  95.9657072  49.8252177  57.6815631  95.3565525  50.2333188
  56.2444303  94.0200840  49.6918645  55.3375758  93.7233953  49.7681358
  56.5220284  93.7230658  48.8252931  47.1622243  95.3407203  60.1417691
  46.8425028  94.4872512  59.8492065  46.6155672  95.5555781  60.8975658
  55.0143088  90.8787775  49.8330624  55.8762252  91.2042673  50.0926441
  55.1993432  90.0919271  49.3203690  51.6034624 100.9504524  64.1023442
  52.5577877 100.9188466  64.0353373  51.4047147 100.4895147  64.9173668
  52.1934006  99.5205640  66.6694240  53.0126895 100.0149718  66.6929077
  52.4670814  98.6037608  66.6411807  49.9584853 106.4924143  61.1193640
  49.8239321 105.7324544  60.5531638  49.5416915 107.2165043  60.6522429
  61.0943816 101.6761067  50.1270215  61.7979666 101.8811069  50.7427871
  60.3706464 102.2437829  50.3919299  53.1153979 107.3893460  61.3312082
  52.9986363 108.3338893  61.2290773  52.2946425 107.0867022  61.7197882
  47.4468920  93.8543774  67.3686437  48.0927784  93.3442728  67.8573662
  47.2386071  94.5912455  67.9429862  55.9672531  88.1183818  53.1210333
  55.9551201  89.0625658  53.2778604  56.8595953  87.9353964  52.8269794
  55.8962095 106.7952709  61.2078089  54.9457726 106.7954570  61.0942462
  56.1994581 106.0485443  60.6914124  64.2991310 114.4376152  58.1982267
  63.7356175 114.3466088  57.4298555  64.1843705 113.6176056  58.6784760
  61.8455742 115.9327343  61.0366488  62.6377034 115.5918168  60.6212787
  62.0852392 116.0422318  61.9568641  69.8790869 118.1047119  53.5096732
  69.2278849 118.6901200  53.1230746  70.6735232 118.6353314  53.5691770
  63.8046496 115.1936256  53.9083867  64.5777372 114.6465243  53.7696743
  64.1571895 116.0580506  54.1198328  65.6431539 116.5212639  67.1150766
  65.3521405 117.4258269  66.9997432  66.2788523 116.5629166  67.8294836
  66.1412774 111.3528922  51.5402317  66.3938294 110.8310444  50.7785780
  65.2037333 111.1895068  51.6429000  71.3566134 115.7937551  54.0465717
  70.7211967 115.8672178  54.7586621  71.0263540 116.3831150  53.3684796
  65.8609063 113.2557028  53.7426692  65.7445321 112.5801932  54.4107776
  65.9711322 112.7689402  52.9258845  68.2040603 112.7167176  57.4473381
  67.8398811 112.1897797  58.1586302  69.0607719 112.3265645  57.2739866
  64.0533905 112.6587851  60.1437264  63.1284402 112.5264065  60.3514956
  64.3018318 113.4382070  60.6407207  67.8235311 110.2014733  53.4281396
  67.7034937 110.6471783  54.2666876  67.1287900 110.5500050  52.8694934
  61.4142716 112.3021125  60.9781053  61.5435097 112.5555603  61.8920465
  60.7340167 112.8948833  60.6585708  65.5842203 122.9718374  57.0771527
  65.5066233 123.9226200  57.1560008  64.9803847 122.6264247  57.7346454
  67.6817922 115.3936432  58.9125397  68.1456267 115.6724135  58.1230019
  67.4174720 114.4919877  58.7298487  64.5742003 114.9407914  61.8505160
  65.1443360 115.3695182  61.2122645  65.1650115 114.6590499  62.5489346
  66.6186808 111.5159585  55.7214962  67.3210851 111.9680628  56.1888888
  66.2867436 110.8743404  56.3494855  60.3612142 109.7743137  61.0232095
  59.5711196 110.0300666  60.5472206  60.8523389 110.5891475  61.1284136
  68.1432555 116.6632420  65.9298087  68.2076987 117.1252827  66.7656259
  67.4343479 116.0329785  66.0580397  67.8580572 118.3300527  55.7977067
  67.7226247 119.1752063  56.2261915  68.3990385 118.5319805  55.0343001
  61.3109970 115.8475965  56.3704992  61.8234490 116.6419216  56.5210557
  61.9632683 115.1502256  56.3038594  63.1204854 118.9641722  58.4527745
  63.2971483 119.8859686  58.2648729  63.9161688 118.6500141  58.8822125
  69.4849049 118.9524094  69.9277409  69.0412903 118.1660473  69.6098314
  70.1466262 119.1403244  69.2621300  64.2436170 120.4819896  64.4538088
  64.7943595 120.3536959  63.6815082  63.4047646 120.7814785  64.1032981
  71.5830287 119.2326894  67.9558810  71.5648762 120.0535775  67.4639080
  72.5050207 119.1080969  68.1808952  68.0403341 116.7471023  68.7982319
  68.5731678 115.9859312  68.5681627  67.5117422 116.4544675  69.5406473
  59.2758887 114.1764620  57.1464563  60.1134109 114.5861628  56.9298270
  59.4537154 113.2364062  57.1164757  69.4056054 115.8757016  56.3101131
  68.8777415 115.1409775  55.9974368  68.9043556 116.6531692  56.0641099
  64.1374781 106.5376682  58.6707742  64.7118533 106.3151864  57.9380935
  64.7245764 106.6065377  59.4236344  64.4644368 108.5681143  52.6903628
  63.6281681 108.9055830  53.0112902  64.3249138 108.4330123  51.7530765
  67.5508654 113.6937226  49.3136104  66.6435716 113.4626480  49.5127253
  68.0479686 112.8974845  49.5010085  70.4576733 122.4034733  52.2332790
  69.7838431 122.7066430  52.8417748  70.8442555 123.2063814  51.8838247
  68.7296887 113.7949821  53.8360094  67.8208107 113.5108854  53.9332564
  68.7591971 114.2148900  52.9763401  73.9616155 117.4056410  57.6051262
  73.5078482 116.5647320  57.6616452  73.3310121 118.0417809  57.9426042
  72.4049094 119.2432907  58.5401080  72.6972068 119.8037964  57.8213445
  72.9147715 119.5361468  59.2954239  59.2985058 111.5155335  57.8175296
  59.1009457 110.9224696  57.0926363  58.7431722 111.2107545  58.5351235
  68.4272975 115.3358565  51.1748173  67.9892405 114.6194424  50.7153810
  69.1683416 115.5634679  50.6133264  65.2174141 110.0255501  57.6960268
  64.4042007 110.3249672  58.1025460  65.7133135 109.6311190  58.4134750
  67.3682719 120.0213258  59.6294533  67.3258898 120.2474105  58.7003065
  68.2845418 119.7876633  59.7780334  65.4848520 116.8976287  59.4256496
  66.2789118 116.4026607  59.2239071  64.7740212 116.3694150  59.0624201
  70.3043364 119.2794383  63.7768863  70.3580387 119.8485319  64.5446579
  69.4358146 119.4496268  63.4122900  61.7931283 111.0419369  55.5016248
  60.8628871 110.9803824  55.7186210  61.8888755 110.5195322  54.7052890
  61.7116832 107.5674182  58.0894490  61.9723650 108.4819515  57.9803650
  62.5334005 107.0998624  58.2391103  68.0619796 117.4705309  63.1054333
  67.9230882 117.1024094  63.9780271  67.2734392 117.9852949  62.9338291
  68.6567948 122.5714406  54.4479869  68.8319704 122.1002449  55.2625492
  67.9700736 123.1980172  54.6761130  69.6125011 116.8486912  60.4943171
  69.2774844 116.8087682  61.3900820  69.1128957 116.1831628  60.0213581
  72.5484203 114.1942946  50.7680230  71.9313373 113.4689774  50.6713283
  72.0800691 114.9552307  50.4247304  74.2038334 118.9041855  68.4286011
  74.1450881 118.2201075  67.7616594  74.6057853 119.6460845  67.9766637
  63.2229033 125.7203768  61.2219729  63.4625631 126.3522293  61.8998748
  62.3798230 125.3691809  61.5085089  64.3382749 108.4128371  49.8901534
  63.4612215 108.2917171  49.5263781  64.8140502 107.6214449  49.6380423
  55.8584889 113.2005530  59.9843042  56.5455929 112.8867260  59.3964057
  55.7033017 114.1046895  59.7110293  67.7356895 121.5282891  63.6261233
  67.6627067 122.3337862  64.1380538  67.2934288 121.7274857  62.8009255
  67.5246675 120.7654661  57.1364055  66.7414197 121.3076341  57.2302279
  68.2239420 121.2828641  57.5358296  70.1955579 121.4269725  65.7819392
  70.9083551 122.0617190  65.7095294  69.7045607 121.5233591  64.9659394
  65.2467492 119.1764168  66.6024963  65.9476952 119.8100651  66.7554357
  64.7762607 119.5178900  65.8420602  73.3721888 117.5182118  54.8872870
  73.6481732 117.4038713  55.7966744  72.5026387 117.1199603  54.8485043
  70.0075952 121.7668469  58.5305684  70.1898346 120.9490125  58.9933436
  70.8308938 121.9836161  58.0930574  70.3418117 120.6936654  55.7920732
  70.8705884 120.1829109  55.1790894  70.6046337 120.3779184  56.6566265
  60.8435210 118.7100523  63.5356066  61.4288647 117.9644211  63.6683970
  60.6460049 119.0204480  64.4192729  63.6973865 121.7451771  58.5518508
  63.0284241 122.2297898  58.0682548  63.5586735 121.9920991  59.4661886
  67.8379134 123.7795514  65.1501166  68.3897442 123.9427136  65.9150252
  68.1785327 124.3699952  64.4781191  72.6890008 118.6056772  71.0049821
  73.2329912 119.2186730  70.5104776  72.1076853 119.1636350  71.5216834
  59.0661442 110.0070226  55.3314440  59.3614884 109.0980904  55.2781494
  58.1649478 109.9857965  55.0095442  70.9747521 121.7277490  62.1364848
  70.8498661 120.9267230  61.6275794  71.6326612 122.2223683  61.6478818
  73.0382430 119.5286510  63.7644399  72.0912765 119.4091861  63.6922725
  73.3865203 118.6409008  63.8470660  60.7949284 107.6884323  55.4553765
  60.4661990 106.8081702  55.2728871  61.1488655 107.6331992  56.3430154
  70.0428863 119.3239226  59.9648751  69.8953825 118.3955934  60.1456321
  70.8682356 119.3459317  59.4805826  63.9091107 107.9757293  55.8229243
  64.2487180 108.5043215  55.1007851  64.3563228 108.3137699  56.5987809
  73.6462985 120.1467785  61.0513624  74.5709532 119.9410646  60.9138075
  73.4778288 119.8984186  61.9602965  64.7789599 110.1362777  61.5351613
  64.6334179 110.4503080  62.4275894  64.3014802 110.7547677  60.9822511
  73.4358301 120.6653452  56.4075715  73.6095178 120.0999875  55.6549567
  73.9287192 121.4654347  56.2255205  74.4233473 119.9820217  53.5072613
  75.1184378 120.6026909  53.7259928  74.7656624 119.1315568  53.7824991
  76.3224897 117.4319922  55.0359944  76.8476221 117.7707195  54.3109264
  76.2347249 116.4966938  54.8523079  67.9844945 121.3453996  67.1649821
  68.2932072 121.1003143  68.0372520  68.7820427 121.5500634  66.6768691
  68.0065557 123.4991906  59.3955197  67.5670548 123.0068284  60.0888054
  68.7573674 122.9564873  59.1547272  60.4857896 119.6903446  59.3979825
  61.3115916 119.3907218  59.0178469  60.1351948 118.9211069  59.8469614
  65.4539429 119.0429915  61.4677499  64.8319439 118.3800620  61.1679727
  66.1244296 119.0691047  60.7851147  58.6866501 117.6089773  60.3568759
  57.8498410 117.1811947  60.1752760  58.6590147 117.8022216  61.2939550
  76.0118803 118.0652826  70.3411142  75.2214346 118.0476965  69.8015641
  75.7752157 118.6041120  71.0960179  65.0152936 117.5933838  54.9435959
  65.1641057 118.2769302  54.2902632  65.8219380 117.5738928  55.4585415
  78.8330557 114.8995114  60.4188462  79.6677448 115.3384918  60.5826023
  78.9689686 114.4233767  59.5996708  62.7705569 113.6199016  55.9497028
  62.5251611 112.7161346  56.1477238  62.9401484 113.6216166  55.0076506
  62.0401217 109.3527373  53.4483190  61.3470462 109.4271728  52.7923226
  61.7952969 108.5887717  53.9704707  68.5148342 120.0881968  52.4147707
  67.9422309 120.7072156  51.9618179  69.0881136 120.6381330  52.9487629
  71.7345602 120.3719119  53.5456289  72.6676275 120.3064680  53.7489165
  71.6468815 121.2075385  53.0870822  74.3633618 119.6884989  50.5060237
  74.2847250 119.3544853  51.3995995  75.1843285 120.1806757  50.5051709
  68.8995140 111.4242781  49.7563759  69.8454245 111.2948989  49.8252177
  68.5209385 110.6857443  50.2333188  58.0015998 110.6699121  60.1417691
  57.6818782 109.8164429  59.8492065  57.4549426 110.8847699  60.8975658
  57.8704258 114.2902033  62.1110813  57.1767729 113.8755985  61.5980767
  58.6177249 114.3322569  61.5144231  59.7841000 114.2220286  59.9876827
  59.7611689 114.3207974  59.0358711  60.0941637 115.0685437  60.3093994
  62.4428378 116.2796441  64.1023442  63.3971632 116.2480384  64.0353373
  62.2440902 115.8187065  64.9173668  60.7978607 121.8216061  61.1193640
  60.6633075 121.0616462  60.5531638  60.3810669 122.5456961  60.6522429
  71.9337570 117.0052984  50.1270215  72.6373420 117.2102987  50.7427871
  71.2100219 117.5729746  50.3919299  63.9547733 122.7185378  61.3312082
  63.8380117 123.6630810  61.2290773  63.1340179 122.4158939  61.7197882
  73.8424268 117.4435514  52.1768675  74.6769871 117.0116712  51.9946150
  73.6808610 117.2717527  53.1045570  70.8116067 116.2516539  72.8678577
  71.6807227 116.4257191  72.5065212  70.3322818 117.0710956  72.7454307
  64.9802247 123.3713640  64.5468011  65.8829494 123.4037250  64.8634506
  64.7539617 122.4414091  64.5614347  66.7355849 122.1244626  61.2078089
  65.7851480 122.1246488  61.0942462  67.0388335 121.3777361  60.6914124
  82.4708543 127.9605165  62.2723852  83.1086953 127.8411912  61.5687192
  82.3529386 128.9086009  62.3311804  79.2798249 127.9132593  62.2085377
  78.9416760 127.7973657  61.3205911  80.1488017 127.5123758  62.1886383
  75.1385065 129.7668069  58.1982267  74.5749930 129.6758006  57.4298555
  75.0237460 128.9467974  58.6784760  79.7618032 129.0667444  68.1671582
  79.7506673 128.6720243  67.2952086  79.9238671 128.3333517  68.7605354
  72.6849497 131.2619261  61.0366488  73.4770788 130.9210085  60.6212787
  72.9246147 131.3714236  61.9568641  80.7184623 133.4339037  53.5096732
  80.0672603 134.0193117  53.1230746  81.5128986 133.9645232  53.5691770
  74.6440250 130.5228174  53.9083867  75.4171126 129.9757161  53.7696743
  74.9965649 131.3872423  54.1198328  76.4825293 131.8504556  67.1150766
  76.1915159 132.7550187  66.9997432  77.1182277 131.8921084  67.8294836
  77.4081500 129.2281405  63.7052126  78.0045072 129.0037427  62.9909089
  77.4656471 128.4866150  64.3077574  76.9806528 126.6820840  51.5402317
  77.2332049 126.1602361  50.7785780  76.0431087 126.5186986  51.6429000
  82.0249811 125.6856619  59.3477060  82.8112900 125.2676042  58.9967477
  82.2888515 126.5902711  59.5158708  82.1959888 131.1229469  54.0465717
  81.5605721 131.1964095  54.7586621  81.8657295 131.7123068  53.3684796
  87.4258238 125.6231852  60.2510038  88.1583410 125.0531069  60.4847868
  86.6697594 125.2353452  60.6916544  76.7002817 128.5848946  53.7426692
  76.5839075 127.9093849  54.4107776  76.8105077 128.0981320  52.9258845
  79.0434358 128.0459093  57.4473381  78.6792565 127.5189714  58.1586302
  79.9001474 127.6557562  57.2739866  84.9483659 119.3353426  64.7104647
  84.6166983 120.2048837  64.4865862  84.3529272 119.0189710  65.3898677
  78.6839845 123.0748993  52.4434729  78.8514247 123.9429229  52.8105200
  78.4937014 123.2376275  51.5196019  81.4415178 131.5365972  64.1100560
  81.1415901 132.4391011  64.0016367  81.0966238 131.2698155  64.9621713
  74.8927660 127.9879769  60.1437264  73.9678156 127.8555983  60.3514956
  75.1412073 128.7673988  60.6407207  84.8412322 124.0548512  61.7897997
  83.9329199 123.9863920  61.4956758  84.7899918 124.5320457  62.6179823
  78.6629066 125.5306650  53.4281396  78.5428691 125.9763701  54.2666876
  77.9681654 125.8791968  52.8694934  72.2536471 127.6313042  60.9781053
  72.3828852 127.8847521  61.8920465  71.5733922 128.2240750  60.6585708
  76.4235958 138.3010292  57.0771527  76.3459988 139.2518117  57.1560008
  75.8197602 137.9556165  57.7346454  78.9153188 125.4738158  69.7332894
  78.1386522 126.0332078  69.7235759  79.5543751 125.9594941  70.2547764
  86.7073968 122.2564950  63.5675871  86.0648349 122.5497484  62.9215666
  86.2028897 122.1417871  64.3729068  84.3614132 126.0028124  54.2561730
  85.2731988 126.2355510  54.0809428  83.8523779 126.5865168  53.6936809
  77.1699560 128.2823611  69.2950861  77.9114244 128.8208655  69.0185685
  76.4636545 128.9089900  69.4522413  82.6454900 130.4252751  67.8923023
  83.0538256 129.9835162  67.1477655  81.9232161 129.8505379  68.1457216
  78.9985970 125.3625358  65.2656580  79.8447165 125.7864772  65.4091229
  78.9384607 124.7058982  65.9595143  82.9683714 130.9853942  61.6475312
  82.3392577 131.1499656  60.9451380  82.5809376 131.3995552  62.4186276
  86.8472946 131.9208380  59.0019675  86.1623984 132.3007281  58.4516709
  86.9316796 132.5303707  59.7351623  82.1485415 123.0229727  66.9237753
  81.9046347 123.7771787  66.3872029  82.4245346 123.4015074  67.7585000
  84.1023878 129.5668339  65.6015019  84.3140773 130.2100099  64.9249400
  84.0553626 128.7330655  65.1336949  81.7050107 122.1786160  62.5051591
  80.8434586 122.4767413  62.7968329  81.7312541 122.3956558  61.5732624
  78.5211676 130.7228350  58.9125397  78.9850022 131.0016053  58.1230019
  78.2568474 129.8211795  58.7298487  75.4135757 130.2699832  61.8505160
  75.9837114 130.6987100  61.2122645  76.0043869 129.9882416  62.5489346
  77.4580562 126.8451502  55.7214962  78.1604606 127.2972546  56.1888888
  77.1261191 126.2035321  56.3494855  75.9060924 125.4363259  70.0966171
  75.2759584 126.1179540  70.3301568  75.7997012 125.3246341  69.1519310
  71.2005896 125.1035055  61.0232095  70.4104950 125.3592584  60.5472206
  71.6917144 125.9183393  61.1284136  85.2169706 132.4440294  63.7737376
  86.0387149 132.0420482  63.4920058  85.2132109 132.3408528  64.7253492
  73.1520642 125.4679634  57.9815572  72.3551805 125.5798329  58.4999068
  72.9246234 125.8066287  57.1156463  78.9826309 131.9924338  65.9298087
  79.0470742 132.4544745  66.7656259  78.2737233 131.3621703  66.0580397
  69.4843599 125.3565546  63.4547086  69.7351638 126.2412556  63.7204662
  70.0203148 125.1770147  62.6822178  93.3075699 128.7879043  60.1222348
  92.5539407 128.2186441  59.9666352  93.4423240 128.7541707  61.0692982
  78.6974327 133.6592445  55.7977067  78.5620002 134.5043981  56.2261915
  79.2384139 133.8611723  55.0343001  75.1841666 119.7384025  72.4591422
  74.7908612 119.1850224  73.1339067  76.0007807 120.0494603  72.8497940
  72.1503724 131.1767883  56.3704992  72.6628245 131.9711133  56.5210557
  72.8026437 130.4794174  56.3038594  73.9598609 134.2933639  58.4527745
  74.1365237 135.2151604  58.2648729  74.7555442 133.9792059  58.8822125
  78.1009627 121.1541904  70.0511679  78.8419341 121.7549057  69.9716141
  78.3327550 120.4119542  69.4929721  73.2450965 126.3398271  68.3289909
  73.1304481 125.4383529  68.6297008  72.3895483 126.5861968  67.9774725
  80.3242803 134.2816012  69.9277409  79.8806657 133.4952390  69.6098314
  80.9860017 134.4695162  69.2621300  75.0829924 135.8111813  64.4538088
  75.6337350 135.6828877  63.6815082  74.2441400 136.1106702  64.1032981
  82.4224041 134.5618812  67.9558810  82.4042517 135.3827693  67.4639080
  83.3443961 134.4372887  68.1808952  78.8797095 132.0762941  68.7982319
  79.4125432 131.3151229  68.5681627  78.3511177 131.7836593  69.5406473
  82.0466790 117.1823007  64.3275961  81.7031060 118.0724649  64.2515071
  82.4145753 116.9924665  63.4645546  70.1152641 129.5056537  57.1464563
  70.9527863 129.9153546  56.9298270  70.2930909 128.5655980  57.1164757
  82.0117073 127.1731618  52.8348396  81.4963697 127.9436223  53.0736783
  81.7394382 126.4996754  53.4581457  79.5964184 122.0181319  57.8933634
  78.7405781 121.6288169  57.7139273  80.0091136 122.0973280  57.0333420
  81.1263331 119.5527662  62.2925194  80.6228126 119.5157797  61.4792999
  81.4193938 120.4620405  62.3521851  77.3706217 119.6366392  61.2991376
  78.2359213 119.4409201  60.9397265  77.4383726 119.4076744  62.2260732
  86.9851347 129.9263973  54.7701569  86.2080790 129.5875132  54.3256731
  87.6642828 129.9316596  54.0956534  81.8003376 125.0458710  54.6608177
  81.4953512 125.3604859  55.5118320  82.7533818 125.1240130  54.7035510
  80.2449808 131.2048934  56.3101131  79.7171170 130.4701693  55.9974368
  79.7437311 131.9823610  56.0641099  85.2242654 129.3997954  61.4268177
  84.5666329 130.0897215  61.5148306  86.0283053 129.7894386  61.7702164
  74.9768536 121.8668600  58.6707742  75.5512288 121.6443781  57.9380935
  75.5639518 121.9357294  59.4236344  84.0348113 127.7542327  59.4772119
  84.5479995 128.3872319  59.9793829  84.6849337 127.1543522  59.1115479
  75.3038123 123.8973061  52.6903628  74.4675435 124.2347747  53.0112902
  75.1642893 123.7622041  51.7530765  77.2791203 118.7409849  57.3982812
  76.6255616 118.4258866  56.7739427  77.2371678 118.1185589  58.1242635
  78.3902408 129.0229144  49.3136104  77.4829470 128.7918397  49.5127253
  78.8873440 128.2266763  49.5010085  81.2970487 137.7326651  52.2332790
  80.6232186 138.0358348  52.8417748  81.6836309 138.5355731  51.8838247
  80.5128944 125.2291782  61.7230459  79.5951505 125.4506729  61.5652148
  80.9289087 125.3038093  60.8642167  81.2963992 126.6283198  56.8533140
  82.0435811 127.1404595  56.5440262  81.5655581 126.3067251  57.7137533
  79.5690642 129.1241739  53.8360094  78.6601861 128.8400771  53.9332564
  79.5985726 129.5440817  52.9763401  84.8009909 132.7348328  57.6051262
  84.3472236 131.8939238  57.6616452  84.1703876 133.3709727  57.9426042
  83.7442829 123.6640314  58.8351929  83.0065586 123.1517700  59.1662172
  83.9969602 123.2240696  58.0235206  83.2442848 134.5724825  58.5401080
  83.5365823 135.1329882  57.8213445  83.7541469 134.8653386  59.2954239
  70.1378812 126.8447253  57.8175296  69.9403212 126.2516613  57.0926363
  69.5825476 126.5399463  58.5351235  78.1175536 126.7370359  59.9369889
  78.1724146 125.7844196  59.8612366  77.3066738 126.8929798  60.4211188
  79.2666730 130.6650482  51.1748173  78.8286160 129.9486341  50.7153810
  80.0077170 130.8926597  50.6133264  76.0567896 125.3547419  57.6960268
  75.2435761 125.6541590  58.1025460  76.5526890 124.9603108  58.4134750
  78.2076474 135.3505176  59.6294533  78.1652652 135.5766022  58.7003065
  79.1239172 135.1168551  59.7780334  81.6542107 125.8189243  66.5275162
  82.0091495 126.0460717  67.3869628  82.3014239 126.1507620  65.9052417
  87.3839844 128.9407679  57.2324491  87.2457743 129.1309275  56.3045680
  87.0276063 129.7027062  57.6892542  75.5481970 122.9265775  63.3121503
  76.1881350 122.7854534  62.6144466  74.7159501 122.6400288  62.9360105
  87.4109224 131.0084206  62.2435763  87.8445731 130.9159495  63.0918817
  88.1240805 130.9841707  61.6055779  76.3242274 132.2268205  59.4256496
  77.1182873 131.7318525  59.2239071  75.6133967 131.6986068  59.0624201
  81.1437119 134.6086300  63.7768863  81.1974141 135.1777237  64.5446579
  80.2751900 134.7788186  63.4122900  72.6325038 126.3711287  55.5016248
  71.7022626 126.3095742  55.7186210  72.7282510 125.8487239  54.7052890
  72.5510587 122.8966100  58.0894490  72.8117404 123.8111433  57.9803650
  73.3727759 122.4290542  58.2391103  74.0235512 124.3103857  65.2593314
  74.6958566 124.1021219  64.6105963  73.1965299 124.1125943  64.8198547
  88.2724774 131.0507907  64.7768648  88.4660664 131.9553718  65.0227923
  88.1725392 130.5915326  65.6107233  80.1025219 128.7746563  65.3355795
  81.0317279 128.9257722  65.1624762  79.6816249 128.8630583  64.4804442
  78.9013550 132.7997227  63.1054333  78.7624636 132.4316011  63.9780271
  78.1128147 133.3144866  62.9338291  79.4961702 137.9006323  54.4479869
  79.6713458 137.4294367  55.2625492  78.8094490 138.5272090  54.6761130
  80.4518766 132.1778830  60.4943171  80.1168598 132.1379600  61.3900820
  79.9522711 131.5123546  60.0213581  74.4263010 127.5846460  66.0195752
  74.2882807 126.8526698  66.6207291  75.3367933 127.4955360  65.7379939
  83.3877957 129.5234864  50.7680230  82.7707128 128.7981692  50.6713283
  82.9194446 130.2844224  50.4247304  77.0545310 127.2966419  65.5079431
  77.7644929 126.6559611  65.4666050  77.0114618 127.5479314  66.4305612
  85.0432089 134.2333772  68.4286011  84.9844635 133.5492992  67.7616594
  85.4451607 134.9752762  67.9766637  75.7674244 124.2831637  67.3275071
  75.2311601 123.8322375  67.9796667  75.1790953 124.4177546  66.5845535
  74.0622788 141.0495686  61.2219729  74.3019386 141.6814210  61.8998748
  73.2191984 140.6983726  61.5085089  75.1776503 123.7420288  49.8901534
  74.3005969 123.6209089  49.5263781  75.6534256 122.9506367  49.6380423
  85.0449496 132.1973356  66.6599990  84.1576275 131.8599278  66.7826389
  85.6148047 131.4656387  66.8968756  66.6978643 128.5297448  59.9843042
  67.3849683 128.2159178  59.3964057  66.5426772 129.4338813  59.7110293
  71.5013365 123.4187645  64.4128065  71.4171554 122.8113314  63.6778475
  70.6796072 123.9096663  64.4137562  78.5750650 136.8574809  63.6261233
  78.5020821 137.6629780  64.1380538  78.1328043 137.0566774  62.8009255
  78.3640429 136.0946579  57.1364055  77.5807951 136.6368259  57.2302279
  79.0633174 136.6120558  57.5358296  81.6737079 121.9041208  59.7798260
  82.1705779 121.1511170  59.4599331  80.9024061 121.9405525  59.2141470
  89.5266837 127.6081574  61.4216552  89.5156713 128.4906289  61.0510485
  88.6584216 127.2553124  61.2271089  81.0349333 136.7561643  65.7819392
  81.7477305 137.3909107  65.7095294  80.5439362 136.8525509  64.9659394
  82.7566860 130.6612895  57.3536684  81.8223139 130.7814358  57.1841388
  82.9343528 129.7585362  57.0896694  78.2572048 124.0458591  59.5069945
  77.8869836 123.4929631  60.1950851  78.7531140 123.4416725  58.9544945
  86.1439411 126.5030215  57.8886718  86.6099863 127.3358206  57.8147021
  86.5946912 126.0375196  58.5931976  76.0861247 134.5056086  66.6024963
  76.7870706 135.1392569  66.7554357  75.6156362 134.8470818  65.8420602
  84.2115642 132.8474036  54.8872870  84.4875486 132.7330630  55.7966744
  83.3420141 132.4491521  54.8485043  84.1156074 118.8710802  61.9277619
  83.2019154 119.1015028  62.0959826  84.5449175 118.9549246  62.7791652
  83.8862533 127.0600694  64.4277513  83.2333983 127.3076601  63.7729966
  84.2642912 126.2464832  64.0939991  80.8469706 137.0960387  58.5305684
  81.0292101 136.2782043  58.9933436  81.6702692 137.3128079  58.0930574
  81.1811872 136.0228572  55.7920732  81.7099638 135.5121026  55.1790894
  81.4440091 135.7071102  56.6566265  71.6828965 134.0392441  63.5356066
  72.2682401 133.2936129  63.6683970  71.4853803 134.3496398  64.4192729
  74.5367620 137.0743689  58.5518508  73.8677995 137.5589816  58.0682548
  74.3980490 137.3212909  59.4661886  66.2746619 126.6098041  62.2560509
  66.3130719 126.0761632  63.0497627  65.7686912 126.0833247  61.6371486
  78.6772888 139.1087432  65.1501166  79.2291196 139.2719054  65.9150252
  79.0179082 139.6991870  64.4781191  73.6537382 121.4562582  65.7523051
  73.7178708 122.3177413  65.3400449  73.5904502 120.8436584  65.0195410
  73.1289654 123.5285714  69.3996085  73.7561693 123.1462792  70.0133610
  72.2717573 123.3099916  69.7651778  69.9055197 125.3362144  55.3314440
  70.2008638 124.4272822  55.2781494  69.0043233 125.3149883  55.0095442
  81.8141276 137.0569408  62.1364848  81.6892415 136.2559147  61.6275794
  82.4720367 137.5515601  61.6478818  73.4349444 123.4118140  61.3141989
  72.7136030 124.0254108  61.1749462  74.2242700 123.9475905  61.2358635
  83.8776184 134.8578428  63.7644399  82.9306520 134.7383779  63.6922725
  84.2258957 133.9700926  63.8470660  76.2375757 120.7472567  67.5882640
  76.7610159 120.9934863  68.3508950  76.0188091 121.5792601  67.1685778
  71.6343039 123.0176241  55.4553765  71.3055745 122.1373620  55.2728871
  71.9882409 122.9623910  56.3430154  80.8822617 134.6531144  59.9648751
  80.7347580 133.7247851  60.1456321  81.7076111 134.6751235  59.4805826
  74.7484862 123.3049211  55.8229243  75.0880934 123.8335132  55.1007851
  75.1956982 123.6429617  56.5987809  84.4856739 135.4759703  61.0513624
  85.4103287 135.2702564  60.9138075  84.3172043 135.2276104  61.9602965
  77.4428303 121.6886262  65.2732311  77.1025123 120.8894075  65.6752991
  76.7367309 121.9887973  64.7009144  78.0944774 118.7735574  63.7259634
  78.9170844 118.2996052  63.6038524  78.3382838 119.5526058  64.2258320
  76.7353009 121.8023833  54.0222536  77.4561371 122.1805085  53.5186253
  76.1118313 122.5212709  54.1257514  80.8784132 122.5068982  54.9580868
  81.0947746 123.3893619  54.6569696  80.3978199 122.1155195  54.2286510
  75.6183353 125.4654695  61.5351613  75.4727934 125.7794998  62.4275894
  75.1408557 126.0839595  60.9822511  77.4779736 122.4557243  61.5832502
  77.4641305 121.5598336  61.2464800  78.1952164 122.4627906  62.2170788
  79.3305867 122.8894583  63.6285630  79.0723645 123.8111654  63.6269960
  78.7990907 122.4925017  64.3186094  84.2752055 135.9945370  56.4075715
  84.4488933 135.4291793  55.6549567  84.7680947 136.7946265  56.2255205
  70.0929015 128.0060039  64.4739274  69.5482483 128.7819847  64.6059548
  70.9708365 128.3530844  64.3158395  76.8816632 121.3371623  56.8520072
  77.0032543 120.4088269  57.0510960  76.5918674 121.3510309  55.9398388
  79.7507822 119.0226533  59.9886792  79.7729519 119.0865867  59.0338772
  80.1675881 118.1831042  60.1827298  90.1291447 128.7581793  58.0266015
  90.5722593 128.0089118  57.6285138  89.2517957 128.7491929  57.6439747
  85.2627228 135.3112134  53.5072613  85.9578133 135.9318827  53.7259928
  85.6050378 134.4607486  53.7824991  70.8795037 127.1329935  67.3669431
  70.1376773 127.2812571  67.9534061  70.5587781 127.3938201  66.5036180
  87.1618651 132.7611840  55.0359944  87.6869975 133.0999113  54.3109264
  87.0741004 131.8258855  54.8523079  78.8238700 136.6745914  67.1649821
  79.1325826 136.4295060  68.0372520  79.6214182 136.8792552  66.6768691
  78.8459312 138.8283823  59.3955197  78.4064302 138.3360202  60.0888054
  79.5967429 138.2856791  59.1547272  71.3251651 135.0195364  59.3979825
  72.1509671 134.7199136  59.0178469  70.9745703 134.2502987  59.8469614
  76.2933184 134.3721832  61.4677499  75.6713193 133.7092537  61.1679727
  76.9638051 134.3982964  60.7851147  69.5260256 132.9381691  60.3568759
  68.6892164 132.5103865  60.1752760  69.4983901 133.1314134  61.2939550
  76.3657711 122.8503620  71.0610005  76.4145867 123.7265743  70.6787775
  76.9080226 122.3081013  70.4881648  86.9710432 130.2437210  67.6543871
  87.0208437 130.0787217  68.5959393  86.8624356 129.3764469  67.2641751
  75.8546691 132.9225756  54.9435959  76.0034811 133.6061220  54.2902632
  76.6613134 132.9030846  55.4585415  78.5957000 123.6034993  67.8156364
  77.7260309 123.8968559  67.5438952  78.8316480 124.1875438  68.5363627
  88.4728629 132.6634152  67.8985892  88.1813437 133.0264132  68.7349353
  87.8600760 131.9501160  67.7199224  89.6724311 130.2287031  60.4188462
  90.5071203 130.6676835  60.5826023  89.8083440 129.7525685  59.5996708
  86.7215817 127.7866766  66.3665950  87.1969939 127.9794412  65.5584801
  85.7981383 127.8425952  66.1209334  73.6099324 128.9490933  55.9497028
  73.3645366 128.0453263  56.1477238  73.7795238 128.9508084  55.0076506
  81.2996034 119.8214610  65.3321784  81.8177978 120.5575637  65.0068273
  80.9451167 120.1278603  66.1668543  72.8794971 124.6819291  53.4483190
  72.1864216 124.7563646  52.7923226  72.6346723 123.9179635  53.9704707
  79.3542096 135.4173886  52.4147707  78.7816063 136.0364073  51.9618179
  79.9274890 135.9673248  52.9487629  85.4217486 124.6632526  64.5994256
  86.3734909 124.7630624  64.6206480  85.2520937 123.8710795  65.1092340
  83.4431866 121.7488109  64.7853657  82.8481798 122.0293122  64.0900145
  83.1581562 122.2382010  65.5570398  82.5739356 135.7011036  53.5456289
  83.5070029 135.6356598  53.7489165  82.4862569 136.5367303  53.0870822
  85.2027373 135.0176907  50.5060237  85.1241004 134.6836770  51.3995995
  86.0237040 135.5098675  50.5051709  87.9005564 127.8838646  63.7136555
  87.8681884 126.9454647  63.8996239  88.5106188 127.9622683  62.9802380
  79.7388895 126.7534699  49.7563759  80.6848000 126.6240907  49.8252177
  79.3603140 126.0149361  50.2333188  88.0500053 124.6749689  63.7594839
  87.5339101 123.8908146  63.5724767  88.9340001 124.3468406  63.9241358
  85.7110779 118.4190705  59.7190651  85.5135601 118.1105793  60.6033983
  86.3210485 119.1452344  59.8488581  93.7182114 128.9454653  62.8542592
  94.4485502 128.6839941  63.4150295  93.1089059 128.2083375  62.8944660
  91.7997411 127.0862515  63.4517043  91.0730575 126.9518480  62.8433535
  91.3844698 127.3939344  64.2573761  77.9231812 124.6784675  49.6918645
  77.0163267 124.3817788  49.7681358  78.2007793 124.3814493  48.8252931
  68.8409752 125.9991039  60.1417691  68.5212537 125.1456347  59.8492065
  68.2943181 126.2139617  60.8975658  72.6189660 128.7153480  63.8587198
  72.8375670 129.6470588  63.8775231  73.0315434 128.3561454  64.6442001
  79.5393878 119.2221565  55.8462886  78.7294606 118.8768650  56.2218132
  80.2278295 118.9129109  56.4350497  81.4684426 118.2999612  57.4687183
  82.0215465 118.7195065  58.1277206  81.7054512 117.3735360  57.5110139
  77.4917525 124.2886685  73.2489946  77.3914252 125.2381042  73.1802038
  77.2739067 123.9604924  72.3766017  76.6930597 121.5371611  49.8330624
  77.5549761 121.8626509  50.0926441  76.8780941 120.7503106  49.3203690
  68.7098012 129.6193950  62.1110813  68.0161484 129.2047903  61.5980767
  69.4571003 129.6614487  61.5144231  84.8463233 120.4100137  56.9765847
  84.2661902 121.0684941  56.5943899  84.5799166 119.5877482  56.5653264
  83.2966800 119.8105195  59.1787167  83.7966578 119.9221729  58.3701486
  83.9402407 119.5066248  59.8187976  77.3548795 127.7183824  72.0655008
  76.8715877 128.5184184  72.2718897  77.4409734 127.7291769  71.1122452
  70.6234755 129.5512204  59.9876827  70.6005443 129.6499891  59.0358711
  70.9335391 130.3977355  60.3093994  73.2822133 131.6088359  64.1023442
  74.2365386 131.5772301  64.0353373  73.0834656 131.1478983  64.9173668
  73.8721515 130.1789475  66.6694240  74.6914404 130.6733554  66.6929077
  74.1458323 129.2621443  66.6411807  83.6288111 122.5700227  56.0322195
  82.7413966 122.8549878  55.8142390  84.0442100 122.4093991  55.1849472
  86.9802647 122.5946748  59.7476534  87.7563037 123.0843201  60.0201151
  86.2550781 123.0204803  60.2048404  89.4175206 123.3074368  60.8050475
  90.0119697 123.0670104  60.0943783  89.4901790 122.5881498  61.4324011
  71.6372362 137.1507978  61.1193640  71.5026830 136.3908379  60.5531638
  71.2204424 137.8748878  60.6522429  82.7731325 132.3344902  50.1270215
  83.4767175 132.5394905  50.7427871  82.0493973 132.9021664  50.3919299
  83.6029135 128.0854763  56.2472485  83.5464336 128.5423315  55.4080118
  84.1557477 127.3245448  56.0695328  87.4133941 123.8744495  57.0722605
  87.1570875 123.4741131  57.9030812  86.7886809 124.5888289  56.9472744
  91.7246279 126.6140568  59.5793896  91.1645837 126.6833758  60.3525458
  91.1189782 126.4381553  58.8593392  74.7941487 138.0477296  61.3312082
  74.6773872 138.9922728  61.2290773  73.9733934 137.7450857  61.7197882
  84.6818022 132.7727431  52.1768675  85.5163626 132.3408630  51.9946150
  84.5202365 132.6009445  53.1045570  84.3363914 129.2759545  53.5425014
  84.2812718 129.1103816  52.6013458  83.7109969 129.9835577  53.6987204
  69.1256429 124.5127609  67.3686437  69.7715293 124.0026563  67.8573662
  68.9173580 125.2496291  67.9429862  77.6460040 118.7767654  53.1210333
  77.6338710 119.7209493  53.2778604  78.5383462 118.5937799  52.8269794
  75.8196002 138.7005557  64.5468011  76.7223248 138.7329168  64.8634506
  75.5933372 137.7706008  64.5614347  77.5749604 137.4536544  61.2078089
  76.6245235 137.4538406  61.0942462  77.8782090 136.7069279  60.6914124
  81.4612159 115.3710430  57.3756270  80.6944555 114.8168917  57.5212952
  81.8722864 115.4432299  58.2370421  73.4653920 121.6595226  71.4661451
  74.3285382 121.3032031  71.6764775  72.8919331 121.3209121  72.1536855
  93.3102297 143.2897082  62.2723852  93.9480707 143.1703830  61.5687192
  93.1923140 144.2377926  62.3311804  90.1192003 143.2424510  62.2085377
  89.7810515 143.1265575  61.3205911  90.9881772 142.8415676  62.1886383
  85.9778819 145.0959987  58.1982267  85.4143684 145.0049924  57.4298555
  85.8631214 144.2759891  58.6784760  90.6011786 144.3959362  68.1671582
  90.5900427 144.0012160  67.2952086  90.7632426 143.6625435  68.7605354
  83.5243251 146.5911178  61.0366488  84.3164543 146.2502003  60.6212787
  83.7639901 146.7006154  61.9568641  91.5578378 148.7630955  53.5096732
  90.9066358 149.3485035  53.1230746  92.3522741 149.2937149  53.5691770
  85.4834005 145.8520092  53.9083867  86.2564881 145.3049079  53.7696743
  85.8359404 146.7164341  54.1198328  87.3219048 147.1796474  67.1150766
  87.0308914 148.0842105  66.9997432  87.9576032 147.2213002  67.8294836
  88.2475254 144.5573322  63.7052126  88.8438827 144.3329345  62.9909089
  88.3050226 143.8158068  64.3077574  87.8200283 142.0112758  51.5402317
  88.0725803 141.4894279  50.7785780  86.8824842 141.8478903  51.6429000
  92.8643566 141.0148536  59.3477060  93.6506655 140.5967959  58.9967477
  93.1282270 141.9194628  59.5158708  93.0353643 146.4521386  54.0465717
  92.3999476 146.5256013  54.7586621  92.7051049 147.0414985  53.3684796
  98.2651993 140.9523769  60.2510038  98.9977165 140.3822986  60.4847868
  97.5091348 140.5645370  60.6916544  87.5396572 143.9140864  53.7426692
  87.4232830 143.2385767  54.4107776  87.6498831 143.4273238  52.9258845
  89.8828112 143.3751011  57.4473381  89.5186320 142.8481632  58.1586302
  90.7395228 142.9849480  57.2739866  95.7877413 134.6645343  64.7104647
  95.4560738 135.5340754  64.4865862  95.1923026 134.3481627  65.3898677
  89.5233599 138.4040911  52.4434729  89.6908002 139.2721147  52.8105200
  89.3330769 138.5668192  51.5196019  92.2808933 146.8657889  64.1100560
  91.9809656 147.7682928  64.0016367  91.9359992 146.5990073  64.9621713
  85.7321414 143.3171686  60.1437264  84.8071911 143.1847900  60.3514956
  85.9805827 144.0965906  60.6407207  95.6806076 139.3840430  61.7897997
  94.7722954 139.3155838  61.4956758  95.6293672 139.8612375  62.6179823
  89.5022820 140.8598568  53.4281396  89.3822446 141.3055619  54.2666876
  88.8075409 141.2083886  52.8694934  83.0930225 142.9604960  60.9781053
  83.2222606 143.2139439  61.8920465  82.4127676 143.5532668  60.6585708
  87.2629712 153.6302210  57.0771527  87.1853742 154.5810035  57.1560008
  86.6591356 153.2848082  57.7346454  89.7546942 140.8030075  69.7332894
  88.9780276 141.3623995  69.7235759  90.3937505 141.2886858  70.2547764
  97.5467723 137.5856868  63.5675871  96.9042103 137.8789401  62.9215666
  97.0422651 137.4709788  64.3729068  95.2007886 141.3320041  54.2561730
  96.1125743 141.5647428  54.0809428  94.6917534 141.9157085  53.6936809
  88.0093314 143.6115529  69.2950861  88.7507999 144.1500573  69.0185685
  87.3030300 144.2381817  69.4522413  93.4848654 145.7544669  67.8923023
  93.8932010 145.3127080  67.1477655  92.7625916 145.1797297  68.1457216
  89.8379724 140.6917276  65.2656580  90.6840919 141.1156689  65.4091229
  89.7778362 140.0350900  65.9595143  93.8077469 146.3145860  61.6475312
  93.1786331 146.4791574  60.9451380  93.4203131 146.7287469  62.4186276
  97.6866701 147.2500298  59.0019675  97.0017739 147.6299199  58.4516709
  97.7710550 147.8595624  59.7351623  92.9879170 138.3521644  66.9237753
  92.7440101 139.1063705  66.3872029  93.2639100 138.7306992  67.7585000
  94.9417632 144.8960257  65.6015019  95.1534528 145.5392016  64.9249400
  94.8947381 144.0622573  65.1336949  92.5443861 137.5078077  62.5051591
  91.6828340 137.8059331  62.7968329  92.5706296 137.7248476  61.5732624
  89.3605431 146.0520268  58.9125397  89.8243776 146.3307971  58.1230019
  89.0962229 145.1503712  58.7298487  86.2529512 145.5991749  61.8505160
  86.8230869 146.0279018  61.2122645  86.8437624 145.3174334  62.5489346
  88.2974317 142.1743420  55.7214962  88.9998360 142.6264464  56.1888888
  87.9654945 141.5327239  56.3494855  86.7454678 140.7655177  70.0966171
  86.1153339 141.4471458  70.3301568  86.6390766 140.6538258  69.1519310
  82.0399651 140.4326973  61.0232095  81.2498705 140.6884501  60.5472206
  82.5310898 141.2475311  61.1284136  96.0563460 147.7732212  63.7737376
  96.8780904 147.3712399  63.4920058  96.0525863 147.6700446  64.7253492
  83.9914396 140.7971552  57.9815572  83.1945559 140.9090246  58.4999068
  83.7639988 141.1358204  57.1156463  89.8220064 147.3216255  65.9298087
  89.8864496 147.7836663  66.7656259  89.1130988 146.6913620  66.0580397
  80.3237354 140.6857463  63.4547086  80.5745392 141.5704473  63.7204662
  80.8596902 140.5062065  62.6822178 104.1469453 144.1170960  60.1222348
 103.3933162 143.5478359  59.9666352 104.2816994 144.0833625  61.0692982
  89.5368081 148.9884363  55.7977067  89.4013756 149.8335899  56.2261915
  90.0777894 149.1903640  55.0343001  82.9897479 146.5059801  56.3704992
  83.5021999 147.3003051  56.5210557  83.6420192 145.8086091  56.3038594
  84.7992363 149.6225557  58.4527745  84.9758992 150.5443522  58.2648729
  85.5949197 149.3083976  58.8822125  88.9403382 136.4833822  70.0511679
  89.6813095 137.0840975  69.9716141  89.1721305 135.7411460  69.4929721
  84.0844720 141.6690189  68.3289909  83.9698235 140.7675446  68.6297008
  83.2289238 141.9153886  67.9774725  91.1636558 149.6107929  69.9277409
  90.7200412 148.8244308  69.6098314  91.8253771 149.7987080  69.2621300
  85.9223679 151.1403731  64.4538088  86.4731104 151.0120794  63.6815082
  85.0835155 151.4398620  64.1032981  93.2617796 149.8910729  67.9558810
  93.2436271 150.7119610  67.4639080  94.1837716 149.7664804  68.1808952
  89.7190850 147.4054859  68.7982319  90.2519187 146.6443147  68.5681627
  89.1904931 147.1128511  69.5406473  92.8860545 132.5114925  64.3275961
  92.5424814 133.4016566  64.2515071  93.2539508 132.3216582  63.4645546
  80.9546396 144.8348455  57.1464563  81.7921618 145.2445463  56.9298270
  81.1324663 143.8947897  57.1164757  92.8510828 142.5023536  52.8348396
  92.3357451 143.2728140  53.0736783  92.5788136 141.8288672  53.4581457
  90.4357939 137.3473237  57.8933634  89.5799535 136.9580087  57.7139273
  90.8484890 137.4265197  57.0333420  91.9657085 134.8819580  62.2925194
  91.4621881 134.8449715  61.4792999  92.2587692 135.7912323  62.3521851
  88.2099971 134.9658310  61.2991376  89.0752968 134.7701118  60.9397265
  88.2777480 134.7368661  62.2260732  97.8245102 145.2555890  54.7701569
  97.0474545 144.9167050  54.3256731  98.5036583 145.2608514  54.0956534
  92.6397131 140.3750628  54.6608177  92.3347266 140.6896777  55.5118320
  93.5927573 140.4532048  54.7035510  91.0843563 146.5340851  56.3101131
  90.5564924 145.7993611  55.9974368  90.5831065 147.3115528  56.0641099
  96.0636409 144.7289872  61.4268177  95.4060083 145.4189133  61.5148306
  96.8676808 145.1186304  61.7702164  85.8162290 137.1960517  58.6707742
  86.3906042 136.9735699  57.9380935  86.4033273 137.2649212  59.4236344
  94.8741867 143.0834244  59.4772119  95.3873749 143.7164236  59.9793829
  95.5243091 142.4835440  59.1115479  86.1431877 139.2264979  52.6903628
  85.3069190 139.5639665  53.0112902  86.0036647 139.0913958  51.7530765
  88.1184958 134.0701766  57.3982812  87.4649370 133.7550784  56.7739427
  88.0765432 133.4477507  58.1242635  89.2296163 144.3521061  49.3136104
  88.3223225 144.1210315  49.5127253  89.7267195 143.5558681  49.5010085
  92.1364242 153.0618569  52.2332790  91.4625940 153.3650265  52.8417748
  92.5230064 153.8647649  51.8838247  91.3522698 140.5583700  61.7230459
  90.4345260 140.7798647  61.5652148  91.7682842 140.6330010  60.8642167
  92.1357746 141.9575116  56.8533140  92.8829565 142.4696513  56.5440262
  92.4049336 141.6359168  57.7137533  90.4084396 144.4533656  53.8360094
  89.4995616 144.1692689  53.9332564  90.4379480 144.8732735  52.9763401
  95.6403664 148.0640246  57.6051262  95.1865991 147.2231156  57.6616452
  95.0097630 148.7001644  57.9426042  94.5836583 138.9932232  58.8351929
  93.8459340 138.4809618  59.1662172  94.8363357 138.5532613  58.0235206
  94.0836603 149.9016743  58.5401080  94.3759577 150.4621800  57.8213445
  94.5935223 150.1945304  59.2954239  94.6848211 131.7708484  59.4293698
  94.9907087 130.9105847  59.1419613  95.4100815 132.3626104  59.2292692
  80.9772567 142.1739170  57.8175296  80.7796966 141.5808531  57.0926363
  80.4219231 141.8691381  58.5351235  88.9569290 142.0662277  59.9369889
  89.0117900 141.1136113  59.8612366  88.1460492 142.2221716  60.4211188
  90.1060484 145.9942400  51.1748173  89.6679914 145.2778259  50.7153810
  90.8470925 146.2218515  50.6133264  86.8961650 140.6839337  57.6960268
  86.0829516 140.9833507  58.1025460  87.3920644 140.2895025  58.4134750
  89.0470228 150.6797094  59.6294533  89.0046407 150.9057940  58.7003065
  89.9632927 150.4460468  59.7780334  92.4935862 141.1481161  66.5275162
  92.8485250 141.3752634  67.3869628  93.1407993 141.4799538  65.9052417
  98.2233599 144.2699597  57.2324491  98.0851497 144.4601193  56.3045680
  97.8669818 145.0318980  57.6892542  86.3875725 138.2557692  63.3121503
  87.0275104 138.1146451  62.6144466  85.5553256 137.9692206  62.9360105
  98.2502978 146.3376124  62.2435763  98.6839485 146.2451413  63.0918817
  98.9634559 146.3133625  61.6055779  87.1636029 147.5560123  59.4256496
  87.9576627 147.0610443  59.2239071  86.4527721 147.0277986  59.0624201
  91.9830873 149.9378218  63.7768863  92.0367896 150.5069154  64.5446579
  91.1145655 150.1080103  63.4122900  83.4718792 141.7003204  55.5016248
  82.5416380 141.6387660  55.7186210  83.5676264 141.1779157  54.7052890
  83.3904341 138.2258017  58.0894490  83.6511159 139.1403350  57.9803650
  84.2121514 137.7582460  58.2391103  84.8629267 139.6395774  65.2593314
  85.5352320 139.4313136  64.6105963  84.0359053 139.4417860  64.8198547
  99.1118528 146.3799825  64.7768648  99.3054418 147.2845635  65.0227923
  99.0119146 145.9207244  65.6107233  90.7654839 136.2657715  67.2758975
  90.1182754 136.9647665  67.1823452  91.5355854 136.6993859  67.6435224
  94.1733637 146.5306567  70.3509529  94.0219143 146.3017119  69.4339612
  94.1638316 147.4877169  70.3640874  90.9418973 144.1038480  65.3355795
  91.8711033 144.2549640  65.1624762  90.5210003 144.1922501  64.4804442
  89.7407305 148.1289145  63.1054333  89.6018391 147.7607929  63.9780271
  88.9521901 148.6436784  62.9338291  90.3355457 153.2298241  54.4479869
  90.5107213 152.7586284  55.2625492  89.6488245 153.8564007  54.6761130
  91.2912520 147.5070747  60.4943171  90.9562353 147.4671517  61.3900820
  90.7916466 146.8415463  60.0213581  85.2656764 142.9138377  66.0195752
  85.1276562 142.1818616  66.6207291  86.1761687 142.8247277  65.7379939
  94.2271712 144.8526782  50.7680230  93.6100882 144.1273610  50.6713283
  93.7588200 145.6136142  50.4247304  87.8939065 142.6258337  65.5079431
  88.6038683 141.9851529  65.4666050  87.8508373 142.8771232  66.4305612
  95.8825843 149.5625690  68.4286011  95.8238389 148.8784910  67.7616594
  96.2845362 150.3044680  67.9766637  86.6067999 139.6123555  67.3275071
  86.0705356 139.1614293  67.9796667  86.0184707 139.7469463  66.5845535
  86.0170258 139.0712206  49.8901534  85.1399724 138.9501007  49.5263781
  86.4928011 138.2798284  49.6380423  95.8843251 147.5265274  66.6599990
  94.9970029 147.1891196  66.7826389  96.4541802 146.7948305  66.8968756
  77.5372398 143.8589366  59.9843042  78.2243438 143.5451096  59.3964057
  77.3820526 144.7630730  59.7110293  82.3407120 138.7479562  64.4128065
  82.2565309 138.1405232  63.6778475  81.5189826 139.2388581  64.4137562
  89.4144404 152.1866726  63.6261233  89.3414575 152.9921698  64.1380538
  88.9721797 152.3858692  62.8009255  89.2034184 151.4238496  57.1364055
  88.4201706 151.9660176  57.2302279  89.9026929 151.9412476  57.5358296
  92.5130834 137.2333126  59.7798260  93.0099533 136.4803088  59.4599331
  91.7417815 137.2697442  59.2141470 100.3660591 142.9373491  61.4216552
 100.3550467 143.8198207  61.0510485  99.4977971 142.5845042  61.2271089
  91.8743088 152.0853560  65.7819392  92.5871060 152.7201025  65.7095294
  91.3833116 152.1817426  64.9659394  93.5960614 145.9904813  57.3536684
  92.6616893 146.1106275  57.1841388  93.7737283 145.0877280  57.0896694
  89.0965802 139.3750509  59.5069945  88.7263590 138.8221549  60.1950851
  89.5924895 138.7708642  58.9544945  96.9833166 141.8322132  57.8886718
  97.4493618 142.6650124  57.8147021  97.4340666 141.3667114  58.5931976
  86.9255001 149.8348004  66.6024963  87.6264461 150.4684487  66.7554357
  86.4550116 150.1762735  65.8420602  95.0509397 148.1765954  54.8872870
  95.3269241 148.0622548  55.7966744  94.1813896 147.7783438  54.8485043
  94.9549829 134.2002719  61.9277619  94.0412908 134.4306946  62.0959826
  95.3842930 134.2841163  62.7791652  94.7256287 142.3892611  64.4277513
  94.0727737 142.6368519  63.7729966  95.1036667 141.5756749  64.0939991
  91.6863461 152.4252304  58.5305684  91.8685855 151.6073960  58.9933436
  92.5096447 152.6419997  58.0930574  92.0205626 151.3520490  55.7920732
  92.5493393 150.8412944  55.1790894  92.2833846 151.0363020  56.6566265
  90.7743860 143.1312422  70.9143550  90.0984497 143.0306552  71.5845926
  91.5971494 142.9751636  71.3779548  82.5222719 149.3684359  63.5356066
  83.1076156 148.6228047  63.6683970  82.3247558 149.6788316  64.4192729
  85.3761374 152.4035606  58.5518508  84.7071750 152.8881734  58.0682548
  85.2374244 152.6504827  59.4661886  77.1140374 141.9389959  62.2560509
  77.1524473 141.4053550  63.0497627  76.6080667 141.4125165  61.6371486
  89.5166643 154.4379350  65.1501166  90.0684951 154.6010971  65.9150252
  89.8572836 155.0283788  64.4781191  84.4931136 136.7854500  65.7523051
  84.5572463 137.6469330  65.3400449  84.4298256 136.1728501  65.0195410
  83.9683409 138.8577632  69.3996085  84.5955447 138.4754709  70.0133610
  83.1111328 138.6391834  69.7651778  94.3677517 149.2640607  71.0049821
  94.9117421 149.8770566  70.5104776  93.7864362 149.8220186  71.5216834
  80.7448951 140.6654061  55.3314440  81.0402393 139.7564740  55.2781494
  79.8436987 140.6441801  55.0095442  92.6535030 152.3861325  62.1364848
  92.5286170 151.5851065  61.6275794  93.3114121 152.8807519  61.6478818
  84.2743198 138.7410058  61.3141989  83.5529784 139.3546025  61.1749462
  85.0636454 139.2767823  61.2358635  94.7169939 150.1870345  63.7644399
  93.7700274 150.0675697  63.6922725  95.0652712 149.2992843  63.8470660
  87.0769512 136.0764484  67.5882640  87.6003914 136.3226781  68.3508950
  86.8581845 136.9084519  67.1685778  82.4736793 138.3468159  55.4553765
  82.1449499 137.4665538  55.2728871  82.8276164 138.2915828  56.3430154
  91.7216372 149.9823062  59.9648751  91.5741334 149.0539769  60.1456321
  92.5469865 150.0043152  59.4805826  85.5878616 138.6341129  55.8229243
  85.9274689 139.1627050  55.1007851  86.0350737 138.9721535  56.5987809
  95.3250494 150.8051620  61.0513624  96.2497041 150.5994482  60.9138075
  95.1565797 150.5568021  61.9602965  88.2822057 137.0178179  65.2732311
  87.9418877 136.2185992  65.6752991  87.5761063 137.3179890  64.7009144
  88.9338529 134.1027492  63.7259634  89.7564598 133.6287970  63.6038524
  89.1776592 134.8817976  64.2258320  87.5746763 137.1315750  54.0222536
  88.2955126 137.5097003  53.5186253  86.9512067 137.8504627  54.1257514
  91.7177886 137.8360899  54.9580868  91.9341501 138.7185537  54.6569696
  91.2371953 137.4447113  54.2286510  86.4577108 140.7946612  61.5351613
  86.3121688 141.1086915  62.4275894  85.9802311 141.4131513  60.9822511
  88.3173490 137.7849160  61.5832502  88.3035059 136.8890254  61.2464800
  89.0345919 137.7919824  62.2170788  90.1699621 138.2186501  63.6285630
  89.9117399 139.1403571  63.6269960  89.6384662 137.8216935  64.3186094
  95.1145810 151.3237288  56.4075715  95.2882687 150.7583710  55.6549567
  95.6074701 152.1238183  56.2255205  80.9322770 143.3351957  64.4739274
  80.3876238 144.1111765  64.6059548  81.8102120 143.6822761  64.3158395
  87.7210386 136.6663541  56.8520072  87.8426298 135.7380187  57.0510960
  87.4312429 136.6802227  55.9398388  90.5901577 134.3518451  59.9886792
  90.6123274 134.4157784  59.0338772  91.0069636 133.5122960  60.1827298
 100.9685201 144.0873711  58.0266015 101.4116347 143.3381036  57.6285138
 100.0911711 144.0783847  57.6439747  96.1020982 150.6404052  53.5072613
  96.7971887 151.2610745  53.7259928  96.4444133 149.7899403  53.7824991
  81.7188792 142.4621853  67.3669431  80.9770528 142.6104488  67.9534061
  81.3981536 142.7230119  66.5036180  98.0012406 148.0903758  55.0359944
  98.5263730 148.4291030  54.3109264  97.9134758 147.1550773  54.8523079
  89.6632454 152.0037831  67.1649821  89.9719581 151.7586978  68.0372520
  90.4607936 152.2084470  66.6768691  89.6853066 154.1575741  59.3955197
  89.2458057 153.6652120  60.0888054  90.4361183 153.6148709  59.1547272
  82.1645405 150.3487282  59.3979825  82.9903425 150.0491054  59.0178469
  81.8139457 149.5794904  59.8469614  87.1326938 149.7013750  61.4677499
  86.5106948 149.0384455  61.1679727  87.8031805 149.7274882  60.7851147
  80.3654010 148.2673608  60.3568759  79.5285919 147.8395783  60.1752760
  80.3377656 148.4606052  61.2939550  97.6906312 148.7236661  70.3411142
  96.9001855 148.7060800  69.8015641  97.4539666 149.2624955  71.0960179
  97.8104187 145.5729128  67.6543871  97.8602192 145.4079135  68.5959393
  97.7018110 144.7056387  67.2641751  86.6940445 148.2517673  54.9435959
  86.8428566 148.9353138  54.2902632  87.5006889 148.2322763  55.4585415
  95.1007949 141.5560056  68.9703177  96.0017812 141.4166521  68.6787175
  95.1755924 141.7214511  69.9101355  89.4350754 138.9326910  67.8156364
  88.5654064 139.2260477  67.5438952  89.6710235 139.5167355  68.5363627
  99.3122383 147.9926069  67.8985892  99.0207192 148.3556050  68.7349353
  98.6994515 147.2793077  67.7199224 100.5118066 145.5578949  60.4188462
 101.3464957 145.9968753  60.5826023 100.6477195 145.0817602  59.5996708
  97.5609572 143.1158684  66.3665950  98.0363693 143.3086330  65.5584801
  96.6375137 143.1717870  66.1209334  84.4493078 144.2782851  55.9497028
  84.2039120 143.3745181  56.1477238  84.6188993 144.2800001  55.0076506
  92.1389788 135.1506527  65.3321784  92.6571732 135.8867554  65.0068273
  91.7844921 135.4570521  66.1668543  83.7188726 140.0111209  53.4483190
  83.0257971 140.0855564  52.7923226  83.4740478 139.2471552  53.9704707
  92.3902382 131.5706810  60.8522681  92.6704136 130.9029999  61.4783107
  93.1752989 131.7635906  60.3397344  90.1935851 150.7465804  52.4147707
  89.6209818 151.3655991  51.9618179  90.7668645 151.2965166  52.9487629
  96.2611241 139.9924444  64.5994256  97.2128664 140.0922542  64.6206480
  96.0914691 139.2002712  65.1092340  94.2825620 137.0780027  64.7853657
  93.6875552 137.3585040  64.0900145  93.9975317 137.5673928  65.5570398
  93.4133111 151.0302954  53.5456289  94.3463784 150.9648516  53.7489165
  93.3256323 151.8659221  53.0870822  96.0421127 150.3468824  50.5060237
  95.9634759 150.0128688  51.3995995  96.8630794 150.8390592  50.5051709
  98.7399319 143.2130564  63.7136555  98.7075639 142.2746564  63.8996239
  99.3499942 143.2914600  62.9802380  90.5782649 142.0826617  49.7563759
  91.5241754 141.9532825  49.8252177  90.1996894 141.3441278  50.2333188
  98.8893807 140.0041607  63.7594839  98.3732856 139.2200064  63.5724767
  99.7733756 139.6760324  63.9241358  96.5504534 133.7482623  59.7190651
  96.3529355 133.4397711  60.6033983  97.1604239 134.4744262  59.8488581
 104.5575868 144.2746570  62.8542592 105.2879257 144.0131859  63.4150295
 103.9482814 143.5375292  62.8944660 102.6391165 142.4154433  63.4517043
 101.9124329 142.2810398  62.8433535 102.2238452 142.7231262  64.2573761
  90.4621342 146.1344363  71.2164416  91.3824351 146.3122962  71.4104463
  90.4270925 145.1900408  71.0644116  88.7625567 140.0076593  49.6918645
  87.8557022 139.7109706  49.7681358  89.0401548 139.7106411  48.8252931
  79.6803507 141.3282956  60.1417691  79.3606291 140.4748265  59.8492065
  79.1336935 141.5431535  60.8975658  83.4583414 144.0445397  63.8587198
  83.6769424 144.9762505  63.8775231  83.8709188 143.6853372  64.6442001
  90.3787632 134.5513483  55.8462886  89.5688361 134.2060568  56.2218132
  91.0672049 134.2421026  56.4350497  92.3078181 133.6291529  57.4687183
  92.8609219 134.0486983  58.1277206  92.5448267 132.7027278  57.5110139
  87.5324351 136.8663528  49.8330624  88.3943515 137.1918427  50.0926441
  87.7174695 136.0795024  49.3203690  79.5491767 144.9485868  62.1110813
  78.8555238 144.5339821  61.5980767  80.2964758 144.9906404  61.5144231
  95.6856988 135.7392055  56.9765847  95.1055657 136.3976859  56.5943899
  95.4192920 134.9169399  56.5653264  94.1360554 135.1397112  59.1787167
  94.6360332 135.2513647  58.3701486  94.7796162 134.8358165  59.8187976
  88.1942550 143.0475742  72.0655008  87.7109632 143.8476102  72.2718897
  88.2803489 143.0583687  71.1122452  81.4628509 144.8804122  59.9876827
  81.4399198 144.9791809  59.0358711  81.7729146 145.7269272  60.3093994
  84.1215887 146.9380277  64.1023442  85.0759141 146.9064219  64.0353373
  83.9228411 146.4770900  64.9173668  84.7115269 145.5081393  66.6694240
  85.5308158 146.0025471  66.6929077  84.9852077 144.5913361  66.6411807
  94.4681866 137.8992145  56.0322195  93.5807721 138.1841796  55.8142390
  94.8835855 137.7385908  55.1849472  97.8196402 137.9238666  59.7476534
  98.5956792 138.4135118  60.0201151  97.0944536 138.3496720  60.2048404
 100.2568960 138.6366285  60.8050475 100.8513451 138.3962021  60.0943783
 100.3295544 137.9173416  61.4324011  82.4766116 152.4799896  61.1193640
  82.3420584 151.7200297  60.5531638  82.0598178 153.2040796  60.6522429
  93.6125079 147.6636820  50.1270215  94.3160929 147.8686822  50.7427871
  92.8887728 148.2313582  50.3919299  94.4422889 143.4146681  56.2472485
  94.3858091 143.8715232  55.4080118  94.9951232 142.6537366  56.0695328
  98.2527695 139.2036413  57.0722605  97.9964630 138.8033048  57.9030812
  97.6280563 139.9180207  56.9472744 102.5640033 141.9432486  59.5793896
 102.0039591 142.0125675  60.3525458 101.9583537 141.7673471  58.8593392
  85.6335242 153.3769213  61.3312082  85.5167626 154.3214646  61.2290773
  84.8127688 153.0742775  61.7197882  95.5211777 148.1019349  52.1768675
  96.3557380 147.6700547  51.9946150  95.3596119 147.9301363  53.1045570
  95.1757669 144.6051462  53.5425014  95.1206472 144.4395734  52.6013458
  94.5503724 145.3127495  53.6987204  79.9650184 139.8419527  67.3686437
  80.6109047 139.3318481  67.8573662  79.7567335 140.5788208  67.9429862
  92.4903576 146.9100374  72.8678577  93.3594736 147.0841026  72.5065212
  92.0110327 147.7294791  72.7454307  88.4853794 134.1059571  53.1210333
  88.4732464 135.0501411  53.2778604  89.3777216 133.9229717  52.8269794
  86.6589756 154.0297475  64.5468011  87.5617003 154.0621085  64.8634506
  86.4327126 153.0997926  64.5614347  88.4143358 152.7828462  61.2078089
  87.4638989 152.7830323  61.0942462  88.7175844 152.0361196  60.6914124
  92.3005914 130.7002348  57.3756270  91.5338309 130.1460835  57.5212952
  92.7116619 130.7724217  58.2370421 100.9585758 158.5716428  62.2085377
 100.6204269 158.4557493  61.3205911 101.8275526 158.1707593  62.1886383
  96.8172574 160.4251905  58.1982267  96.2537439 160.3341841  57.4298555
  96.7024969 159.6051809  58.6784760  99.0869009 159.8865240  63.7052126
  99.6832581 159.6621263  62.9909089  99.1443980 159.1449986  64.3077574
  98.6594037 157.3404676  51.5402317  98.9119558 156.8186197  50.7785780
  97.7218596 157.1770821  51.6429000 103.7037320 156.3440454  59.3477060
 104.4900409 155.9259877  58.9967477 103.9676024 157.2486546  59.5158708
  98.3790326 159.2432781  53.7426692  98.2626584 158.5677685  54.4107776
  98.4892586 158.7565155  52.9258845 100.7221867 158.7042929  57.4473381
 100.3580074 158.1773550  58.1586302 101.5788983 158.3141398  57.2739866
 106.6271168 149.9937261  64.7104647 106.2954492 150.8632672  64.4865862
 106.0316781 149.6773545  65.3898677 100.3627354 153.7332828  52.4434729
 100.5301756 154.6013065  52.8105200 100.1724523 153.8960110  51.5196019
  96.5715169 158.6463604  60.1437264  95.6465665 158.5139818  60.3514956
  96.8199582 159.4257823  60.6407207 106.5199831 154.7132347  61.7897997
 105.6116708 154.6447756  61.4956758 106.4687427 155.1904292  62.6179823
 100.3416575 156.1890486  53.4281396 100.2216200 156.6347537  54.2666876
  99.6469163 156.5375803  52.8694934  93.9323980 158.2896878  60.9781053
  94.0616361 158.5431356  61.8920465  93.2521431 158.8824586  60.6585708
 100.5940697 156.1321993  69.7332894  99.8174031 156.6915913  69.7235759
 101.2331260 156.6178776  70.2547764 108.3861477 152.9148786  63.5675871
 107.7435858 153.2081319  62.9215666 107.8816406 152.8001706  64.3729068
  98.8487069 158.9407446  69.2950861  99.5901753 159.4792490  69.0185685
  98.1424054 159.5673735  69.4522413 100.6773479 156.0209194  65.2656580
 101.5234674 156.4448607  65.4091229 100.6172116 155.3642818  65.9595143
 103.8272924 153.6813562  66.9237753 103.5833856 154.4355622  66.3872029
 104.1032855 154.0598909  67.7585000 103.3837616 152.8369995  62.5051591
 102.5222095 153.1351248  62.7968329 103.4100050 153.0540394  61.5732624
  99.1368071 157.5035338  55.7214962  99.8392115 157.9556382  56.1888888
  98.8048700 156.8619157  56.3494855  97.5848433 156.0947094  70.0966171
  96.9547093 156.7763375  70.3301568  97.4784521 155.9830176  69.1519310
  92.8793405 155.7618891  61.0232095  92.0892459 156.0176419  60.5472206
  93.3704653 156.5767228  61.1284136  94.8308151 156.1263470  57.9815572
  94.0339314 156.2382164  58.4999068  94.6033743 156.4650122  57.1156463
  91.1631108 156.0149381  63.4547086  91.4139147 156.8996391  63.7204662
  91.6990657 155.8353982  62.6822178  96.8629175 150.3967860  72.4591422
  96.4696121 149.8434059  73.1339067  97.6795316 150.7078439  72.8497940
  99.7797136 151.8125739  70.0511679 100.5206850 152.4132893  69.9716141
 100.0115059 151.0703377  69.4929721  94.9238474 156.9982107  68.3289909
  94.8091990 156.0967364  68.6297008  94.0682992 157.2445803  67.9774725
 103.7254299 147.8406842  64.3275961 103.3818569 148.7308484  64.2515071
 104.0933262 147.6508500  63.4645546 101.2751693 152.6765154  57.8933634
 100.4193289 152.2872005  57.7139273 101.6878645 152.7557115  57.0333420
 102.8050840 150.2111498  62.2925194 102.3015635 150.1741633  61.4792999
 103.0981447 151.1204240  62.3521851  99.0493726 150.2950227  61.2991376
  99.9146722 150.0993036  60.9397265  99.1171235 150.0660579  62.2260732
 103.4790885 155.7042546  54.6608177 103.1741021 156.0188695  55.5118320
 104.4321327 155.7823965  54.7035510  96.6556045 152.5252435  58.6707742
  97.2299797 152.3027617  57.9380935  97.2427027 152.5941130  59.4236344
  96.9825632 154.5556896  52.6903628  96.1462944 154.8931583  53.0112902
  96.8430401 154.4205876  51.7530765  98.9578712 149.3993684  57.3982812
  98.3043125 149.0842701  56.7739427  98.9159187 148.7769425  58.1242635
 100.0689917 159.6812979  49.3136104  99.1616979 159.4502233  49.5127253
 100.5660949 158.8850598  49.5010085 102.1916453 155.8875618  61.7230459
 101.2739014 156.1090565  61.5652148 102.6076596 155.9621928  60.8642167
 105.4230338 154.3224150  58.8351929 104.6853095 153.8101536  59.1662172
 105.6757111 153.8824531  58.0235206 105.5241965 147.1000402  59.4293698
 105.8300842 146.2397765  59.1419613 106.2494570 147.6918022  59.2292692
  91.8166321 157.5031088  57.8175296  91.6190721 156.9100449  57.0926363
  91.2612985 157.1983298  58.5351235  99.7963045 157.3954195  59.9369889
  99.8511655 156.4428031  59.8612366  98.9854247 157.5513634  60.4211188
  97.7355405 156.0131254  57.6960268  96.9223270 156.3125425  58.1025460
  98.2314399 155.6186943  58.4134750 103.3329616 156.4773079  66.5275162
 103.6879004 156.7044552  67.3869628 103.9801748 156.8091456  65.9052417
  97.2269479 153.5849610  63.3121503  97.8668859 153.4438369  62.6144466
  96.3947010 153.2984123  62.9360105  94.3112547 157.0295122  55.5016248
  93.3810135 156.9679578  55.7186210  94.4070019 156.5071075  54.7052890
  94.2298096 153.5549935  58.0894490  94.4904913 154.4695268  57.9803650
  95.0515268 153.0874377  58.2391103  95.7023021 154.9687692  65.2593314
  96.3746075 154.7605054  64.6105963  94.8752808 154.7709778  64.8198547
 101.6048593 151.5949633  67.2758975 100.9576508 152.2939583  67.1823452
 102.3749609 152.0285777  67.6435224  96.1050518 158.2430295  66.0195752
  95.9670316 157.5110534  66.6207291  97.0155442 158.1539195  65.7379939
  98.7332819 157.9550254  65.5079431  99.4432438 157.3143447  65.4666050
  98.6902127 158.2063149  66.4305612  97.4461753 154.9415472  67.3275071
  96.9099110 154.4906211  67.9796667  96.8578462 155.0761381  66.5845535
  96.8564012 154.4004124  49.8901534  95.9793478 154.2792924  49.5263781
  97.3321765 153.6090202  49.6380423  93.1800874 154.0771480  64.4128065
  93.0959063 153.4697149  63.6778475  92.3583581 154.5680498  64.4137562
 103.3524588 152.5625043  59.7798260 103.8493288 151.8095006  59.4599331
 102.5811570 152.5989360  59.2141470  99.9359557 154.7042426  59.5069945
  99.5657345 154.1513467  60.1950851 100.4318649 154.1000560  58.9544945
 105.7943583 149.5294637  61.9277619 104.8806663 149.7598864  62.0959826
 106.2236684 149.6133081  62.7791652 101.6137615 158.4604340  70.9143550
 100.9378252 158.3598469  71.5845926 102.4365248 158.3043554  71.3779548
  87.9534128 157.2681877  62.2560509  87.9918228 156.7345467  63.0497627
  87.4474421 156.7417082  61.6371486  95.3324891 152.1146417  65.7523051
  95.3966217 152.9761248  65.3400449  95.2692011 151.5020419  65.0195410
  94.8077163 154.1869550  69.3996085  95.4349202 153.8046627  70.0133610
  93.9505082 153.9683752  69.7651778  91.5842706 155.9945979  55.3314440
  91.8796147 155.0856657  55.2781494  90.6830742 155.9733718  55.0095442
  95.1136953 154.0701975  61.3141989  94.3923539 154.6837943  61.1749462
  95.9030209 154.6059740  61.2358635  97.9163266 151.4056402  67.5882640
  98.4397668 151.6518698  68.3508950  97.6975600 152.2376437  67.1685778
  93.3130548 153.6760077  55.4553765  92.9843254 152.7957455  55.2728871
  93.6669918 153.6207745  56.3430154  96.4272371 153.9633046  55.8229243
  96.7668443 154.4918968  55.1007851  96.8744491 154.3013452  56.5987809
  99.1215811 152.3470097  65.2732311  98.7812632 151.5477910  65.6752991
  98.4154818 152.6471808  64.7009144  99.7732283 149.4319409  63.7259634
 100.5958353 148.9579888  63.6038524 100.0170347 150.2109893  64.2258320
  98.4140518 152.4607668  54.0222536  99.1348880 152.8388921  53.5186253
  97.7905822 153.1796545  54.1257514 102.5571641 153.1652817  54.9580868
 102.7735255 154.0477455  54.6569696 102.0765708 152.7739030  54.2286510
  97.2970862 156.1238530  61.5351613  97.1515443 156.4378833  62.4275894
  96.8196066 156.7423430  60.9822511  99.1567245 153.1141078  61.5832502
  99.1428814 152.2182171  61.2464800  99.8739673 153.1211742  62.2170788
 101.0093376 153.5478418  63.6285630 100.7511153 154.4695489  63.6269960
 100.4778416 153.1508853  64.3186094  98.5604141 151.9955458  56.8520072
  98.6820052 151.0672105  57.0510960  98.2706183 152.0094144  55.9398388
 101.4295331 149.6810369  59.9886792 101.4517028 149.7449702  59.0338772
 101.8463390 148.8414877  60.1827298  92.5582546 157.7913771  67.3669431
  91.8164282 157.9396406  67.9534061  92.2375290 158.0522036  66.5036180
  98.0445220 153.5087456  71.0610005  98.0933376 154.3849579  70.6787775
  98.5867735 152.9664849  70.4881648 100.2744509 154.2618828  67.8156364
  99.4047818 154.5552394  67.5438952 100.5103989 154.8459273  68.5363627
  95.2886833 159.6074769  55.9497028  95.0432875 158.7037099  56.1477238
  95.4582747 159.6091919  55.0076506 102.9783543 150.4798445  65.3321784
 103.4965487 151.2159472  65.0068273 102.6238675 150.7862438  66.1668543
  94.5582480 155.3403126  53.4483190  93.8651725 155.4147481  52.7923226
  94.3134232 154.5763470  53.9704707 103.2296137 146.8998728  60.8522681
 103.5097891 146.2321917  61.4783107 104.0146744 147.0927823  60.3397344
 105.1219375 152.4071945  64.7853657 104.5269307 152.6876958  64.0900145
 104.8369071 152.8965846  65.5570398 101.4176404 157.4118534  49.7563759
 102.3635509 157.2824742  49.8252177 101.0390649 156.6733196  50.2333188
 107.3898288 149.0774540  59.7190651 107.1923110 148.7689628  60.6033983
 107.9997994 149.8036179  59.8488581  99.6019321 155.3368511  49.6918645
  98.6950776 155.0401623  49.7681358  99.8795302 155.0398329  48.8252931
  90.5197261 156.6574874  60.1417691  90.2000046 155.8040182  59.8492065
  89.9730690 156.8723452  60.8975658 101.2181387 149.8805400  55.8462886
 100.4082115 149.5352485  56.2218132 101.9065804 149.5712944  56.4350497
 103.1471935 148.9583447  57.4687183 103.7002974 149.3778901  58.1277206
 103.3842021 148.0319195  57.5110139  99.1705034 154.9470521  73.2489946
  99.0701761 155.8964878  73.1802038  98.9526576 154.6188760  72.3766017
  98.3718106 152.1955446  49.8330624  99.2337270 152.5210344  50.0926441
  98.5568450 151.4086942  49.3203690 106.5250742 151.0683972  56.9765847
 105.9449411 151.7268776  56.5943899 106.2586675 150.2461317  56.5653264
 104.9754308 150.4689030  59.1787167 105.4754087 150.5805565  58.3701486
 105.6189916 150.1650083  59.8187976  99.0336304 158.3767660  72.0655008
  98.5503386 159.1768020  72.2718897  99.1197243 158.3875605  71.1122452
 105.3075620 153.2284063  56.0322195 104.4201475 153.5133713  55.8142390
 105.7229609 153.0677826  55.1849472 108.6590156 153.2530584  59.7476534
 109.4350546 153.7427036  60.0201151 107.9338290 153.6788638  60.2048404
  90.8043938 155.1711444  67.3686437  91.4502802 154.6610398  67.8573662
  90.5961089 155.9080126  67.9429862  99.3247549 149.4351489  53.1210333
  99.3126218 150.3793329  53.2778604 100.2170971 149.2521634  52.8269794
 103.1399668 146.0294266  57.3756270 102.3732064 145.4752752  57.5212952
 103.5510373 146.1016134  58.2370421  95.1441429 152.3179061  71.4661451
  96.0072891 151.9615866  71.6764775  94.5706840 151.9792956  72.1536855
  17.4346017  12.9915781  48.9969158  18.0724427  12.8722529  48.2932499
  17.3166860  13.9396625  49.0557111  14.2435723  12.9443209  48.9330683
  13.9054235  12.8284274  48.0451218  15.1125491  12.5434374  48.9131689
  14.7255506  14.0978061  54.8916889  14.7144147  13.7030859  54.0197392
  14.8876146  13.3644134  55.4850660  11.4462767  16.8815173  53.8396073
  11.1552633  17.7860804  53.7242739  12.0819752  16.9231700  54.5540142
  16.9887285  10.7167235  46.0722367  17.7750375  10.2986658  45.7212784
  17.2525990  11.6213327  46.2404015  22.3895713  10.6542468  46.9755345
  23.1220885  10.0841685  47.2093174  21.6335068  10.2664069  47.4161851
  16.4052652  16.5676588  50.8345866  16.1053376  17.4701627  50.7261674
  16.0603712  16.3008772  51.6867019  11.3873432  23.3320909  43.8016834
  11.3097462  24.2828734  43.8805315  10.7835076  22.9866781  44.4591760
  17.6092374  15.4563368  54.6168329  18.0175730  15.0145778  53.8722962
  16.8869635  14.8815995  54.8702522  17.9321189  16.0164559  48.3720618
  17.3030051  16.1810273  47.6696686  17.5446851  16.4306168  49.1431582
  21.8110421  16.9518996  45.7264982  21.1261459  17.3317898  45.1762015
  21.8954270  17.5614323  46.4596930  19.0661352  14.5978955  52.3260326
  19.2778247  15.2410715  51.6494707  19.0191100  13.7641272  51.8582256
  13.4849150  15.7538967  45.6370703  13.9487496  16.0326670  44.8475326
  13.2205949  14.8522411  45.4543794  10.3773232  15.3010448  48.5750467
  10.9474589  15.7297717  47.9367951  10.9681343  15.0193033  49.2734652
  20.1807180  17.4750911  50.4982683  21.0024624  17.0731098  50.2165365
  20.1769583  17.3719145  51.4498799  13.9463784  17.0234954  52.6543393
  14.0108216  17.4855361  53.4901565  13.2374707  16.3932319  52.7825703
  28.2713173  13.8189659  46.8467654  27.5176881  13.2497057  46.6911659
  28.4060714  13.7852324  47.7938289  13.6611801  18.6903062  42.5222374
  13.5257476  19.5354597  42.9507222  14.2021614  18.8922339  41.7588308
   8.9236083  19.3244256  45.1773052   9.1002712  20.2462221  44.9894036
   9.7192917  19.0102675  45.6067432  15.2880278  19.3126628  56.6522716
  14.8444132  18.5263007  56.3343620  15.9497491  19.5005779  55.9866607
  10.0467399  20.8422430  51.1783394  10.5974824  20.7139493  50.4060388
   9.2078875  21.1417319  50.8278287  17.3861516  19.5929428  54.6804117
  17.3679991  20.4138309  54.1884386  18.3081436  19.4683503  54.9054258
  13.8434570  17.1073558  55.5227625  14.3762907  16.3461846  55.2926933
  13.3148651  16.8147209  56.2651780  21.9488822  14.9574589  41.4946876
  21.1718264  14.6185749  41.0502038  22.6280303  14.9627212  40.8201841
  15.2087282  16.2359550  43.0346438  14.6808644  15.5012310  42.7219675
  14.7074785  17.0134226  42.7886406  20.1880128  14.4308571  48.1513484
  19.5303803  15.1207832  48.2393612  20.9920528  14.8205002  48.4947470
  18.9985587  12.7852943  46.2017426  19.5117469  13.4182935  46.7039135
  19.6486811  12.1854139  45.8360786  16.2607962  22.7637268  38.9578097
  15.5869660  23.0668964  39.5663055  16.6473783  23.5666348  38.6083554
  19.7647384  17.7658945  44.3296568  19.3109711  16.9249855  44.3861759
  19.1341350  18.4020343  44.6671348  18.2080323  19.6035441  45.2646386
  18.5003297  20.1640498  44.5458752  18.7178943  19.8964002  46.0199545
  13.1713948  20.3815792  46.3539840  13.1290127  20.6076639  45.4248372
  14.0876647  20.1479167  46.5025641  16.6179582  10.8499860  53.2520469
  16.9728969  11.0771333  54.1114934  17.2651713  11.1818237  52.6297724
  22.3477319  13.9718296  43.9569798  22.2095217  14.1619892  43.0290987
  21.9913537  14.7337679  44.4137849  22.3746698  16.0394823  48.9681069
  22.8083205  15.9470112  49.8164123  23.0878279  16.0152323  48.3301085
  11.2879749  17.2578821  46.1501802  12.0820347  16.7629142  45.9484377
  10.5771441  16.7296685  45.7869508  16.1074593  19.6396917  50.5014170
  16.1611615  20.2087853  51.2691886  15.2389375  19.8098802  50.1368207
  23.2362248  16.0818524  51.5013955  23.4298138  16.9864334  51.7473230
  23.1362866  15.6225943  52.3352540  18.2977357  16.2325266  57.0754835
  18.1462863  16.0035818  56.1584919  18.2882036  17.1895868  57.0886180
  15.0662693  13.8057179  52.0601102  15.9954753  13.9568339  51.8870069
  14.6453723  13.8941200  51.2049748  13.8651025  17.8307843  49.8299639
  13.7262110  17.4626628  50.7025577  13.0765621  18.3455483  49.6583597
  14.4599177  22.9316940  41.1725176  14.6350932  22.4604983  41.9870799
  13.7731965  23.5582706  41.4006437  15.4156240  17.2089446  47.2188477
  15.0806072  17.1690216  48.1146127  14.9160186  16.5434162  46.7458887
  20.0069563  19.2644389  55.1531317  19.9482109  18.5803609  54.4861900
  20.4089082  20.0063379  54.7011943   9.0260262  26.0806303  47.9465036
   9.2656860  26.7124827  48.6244055   8.1829458  25.7294343  48.2330395
  20.0086970  17.2283973  53.3845297  19.1213749  16.8909895  53.5071696
  20.5785521  16.4967004  53.6214062  13.5388124  21.8885425  50.3506540
  13.4658295  22.6940397  50.8625845  13.0965517  22.0877391  49.5254561
  13.3277903  21.1257195  43.8609362  12.5445425  21.6678875  43.9547586
  14.0270649  21.6431175  44.2603603  24.4904311  12.6392190  48.1461858
  24.4794187  13.5216906  47.7755792  23.6221690  12.2863741  47.9516396
  15.9986807  21.7872259  52.5064699  16.7114780  22.4219724  52.4340600
  15.5076836  21.8836125  51.6904701  17.7204334  15.6923512  44.0781990
  16.7860613  15.8124974  43.9086695  17.8981003  14.7895979  43.8142000
  21.1076886  11.5340831  44.6132025  21.5737338  12.3668823  44.5392327
  21.5584386  11.0685813  45.3177283  11.0498721  19.5366703  53.3270270
  11.7508180  20.1703186  53.4799664  10.5793836  19.8781434  52.5665909
  19.1753117  17.8784652  41.6118177  19.4512961  17.7641247  42.5212051
  18.3057615  17.4802137  41.5730350  18.8500007  12.0911310  51.1522820
  18.1971457  12.3387218  50.4975273  19.2280387  11.2775448  50.8185297
  15.8107181  22.1271003  45.2550990  15.9929575  21.3092659  45.7178742
  16.6340167  22.3438696  44.8175880  16.1449346  21.0539188  42.5166039
  16.6737113  20.5431643  41.9036201  16.4077566  20.7381719  43.3811572
  14.8987580  12.8331121  57.6388857  14.2228217  12.7325250  58.3091232
  15.7215214  12.6770335  58.1024854   6.6466439  19.0703058  50.2601372
   7.2319876  18.3246746  50.3929276   6.4491277  19.3807014  51.1438036
   9.5005094  22.1054305  45.2763815   8.8315469  22.5900433  44.7927855
   9.3617964  22.3523526  46.1907193  13.6410363  24.1398049  51.8746473
  14.1928671  24.3029670  52.6395558  13.9816556  24.7302486  51.2026498
  18.4921237  18.9659306  57.7295127  19.0361141  19.5789264  57.2350082
  17.9108082  19.5238885  58.2462140  16.7778750  22.0880024  48.8610155
  16.6529889  21.2869764  48.3521101  17.4357841  22.5826217  48.3724125
  18.8413658  19.8889044  50.4889705  17.8943994  19.7694395  50.4168032
  19.1896432  19.0011542  50.5715967  15.8460092  19.6841760  46.6894057
  15.6985054  18.7558468  46.8701627  16.6713585  19.7061851  46.2051133
  19.4494214  20.5070319  47.7758930  20.3740761  20.3013180  47.6383381
  19.2809517  20.2586720  48.6848272  19.2389530  21.0255987  43.1321022
  19.4126407  20.4602409  42.3794874  19.7318421  21.8256881  42.9500512
  25.0928921  13.7892410  44.7511321  25.5360067  13.0399735  44.3530445
  24.2155431  13.7802546  44.3685053  20.2264702  20.3422751  40.2317920
  20.9215607  20.9629444  40.4505235  20.5687852  19.4918102  40.5070298
  22.1256125  17.7922457  41.7605251  22.6507449  18.1309729  41.0354571
  22.0378478  16.8569472  41.5768385  13.7876174  21.7056530  53.8895127
  14.0963301  21.4605677  54.7617827  14.5851656  21.9103169  53.4013998
  13.8096786  23.8594440  46.1200504  13.3701776  23.3670819  46.8133361
  14.5604903  23.3167407  45.8792579   6.2889125  20.0505981  46.1225132
   7.1147145  19.7509753  45.7423775   5.9383177  19.2813603  46.5714921
  11.2570658  19.4032449  48.1922806  10.6350668  18.7403154  47.8925033
  11.9275525  19.4293581  47.5096453  21.8150031  18.4255360  57.0656449
  21.0245575  18.4079499  56.5260948  21.5783386  18.9643654  57.8205485
  21.9347906  15.2747827  54.3789177  21.9845911  15.1097834  55.3204700
  21.8261830  14.4075086  53.9887058  19.2251669  11.2578755  55.6948484
  20.1261532  11.1185219  55.4032482  19.2999643  11.4233209  56.6346661
  23.4366103  17.6944768  54.6231199  23.1450912  18.0574749  55.4594660
  22.8238235  16.9811776  54.4444531  24.6361786  15.2597648  47.1433769
  25.4708677  15.6987452  47.3071329  24.7720914  14.7836301  46.3242015
  21.6853292  12.8177383  53.0911257  22.1607413  13.0105029  52.2830108
  20.7618857  12.8736569  52.8454640  20.3854961   9.6943143  51.3239562
  21.3372383   9.7941240  51.3451786  20.2158411   8.9021411  51.8337647
  17.5376830  20.7321653  40.2701596  18.4707504  20.6667214  40.4734471
  17.4500043  21.5677920  39.8116128  22.8643038  12.9149262  50.4381862
  22.8319358  11.9765263  50.6241546  23.4743662  12.9933299  49.7047687
  23.0137527   9.7060306  50.4840145  22.4976575   8.9218763  50.2970074
  23.8977475   9.3779023  50.6486665  28.6819588  13.9765269  49.5787899
  29.4122977  13.7150557  50.1395602  28.0726534  13.2393991  49.6189967
  26.7634885  12.1173132  50.1762350  26.0368049  11.9829097  49.5678842
  26.3482172  12.4249961  50.9819068  14.5865062  15.8363062  57.9409723
  15.5068071  16.0141661  58.1349769  14.5514645  14.8919107  57.7889422
  21.9440122   7.6257365  46.4721841  22.7200512   8.1153817  46.7446458
  21.2188256   8.0515419  46.9293710  24.3812680   8.3384984  47.5295782
  24.9757171   8.0980720  46.8189090  24.4539264   7.6192115  48.1569318
   6.6009836  22.1818595  47.8438946   6.4664304  21.4218996  47.2776944
   6.1841898  22.9059495  47.3767735  18.5666609  13.1165380  42.9717792
  18.5101811  13.5733931  42.1325424  19.1194952  12.3556064  42.7940635
  22.3771415   8.9055112  43.7967911  22.1208349   8.5051747  44.6276119
  21.7524283   9.6198906  43.6718050  26.6883753  11.6451185  46.3039203
  26.1283311  11.7144374  47.0770765  26.0827256  11.4692170  45.5838699
   9.7578962  23.0787912  48.0557389   9.6411346  24.0233345  47.9536079
   8.9371408  22.7761474  48.4443188  19.6455496  17.8038048  38.9013982
  20.4801100  17.3719246  38.7191457  19.4839839  17.6320061  39.8290876
  16.6147296  16.6119073  59.5923884  17.4838455  16.7859725  59.2310519
  16.1354047  17.4313490  59.4699613  10.7833476  23.7316174  51.2713317
  11.6860723  23.7639784  51.5879812  10.5570846  22.8016625  51.2859653
  12.5387078  22.4847160  47.9323396  11.5882709  22.4849022  47.8187768
  12.8419564  21.7379895  47.4159431  28.2739771  28.3207699  48.9969158
  28.9118181  28.2014446  48.2932499  28.1560614  29.2688543  49.0557111
  25.0829478  28.2735127  48.9330683  24.7447989  28.1576192  48.0451218
  25.9519246  27.8726292  48.9131689  20.9416293  30.1270603  44.9227574
  20.3781159  30.0360540  44.1543862  20.8268688  29.3070508  45.4030067
  25.5649261  29.4269979  54.8916889  25.5537901  29.0322777  54.0197392
  25.7269900  28.6936051  55.4850660  18.4880725  31.6221795  47.7611795
  19.2802017  31.2812620  47.3458094  18.7277376  31.7316770  48.6813948
  26.5215852  33.7941571  40.2342039  25.8703832  34.3795652  39.8476053
  27.3160215  34.3247766  40.2937076  20.4471479  30.8830708  40.6329173
  21.2202355  30.3359695  40.4942049  20.7996878  31.7474958  40.8443635
  22.2856522  32.2107091  53.8396073  21.9946388  33.1152721  53.7242739
  22.9213506  32.2523618  54.5540142  23.2112729  29.5883939  50.4297432
  23.8076301  29.3639961  49.7154395  23.2687700  28.8468685  51.0322880
  22.7837757  27.0423374  38.2647623  23.0363278  26.5204896  37.5031086
  21.8462316  26.8789520  38.3674307  27.8281040  26.0459153  46.0722367
  28.6144129  25.6278576  45.7212784  28.0919744  26.9505245  46.2404015
  27.9991117  31.4832003  40.7711023  27.3636950  31.5566630  41.4831928
  27.6688524  32.0725602  40.0930103  33.2289467  25.9834386  46.9755345
  33.9614639  25.4133603  47.2093174  32.4728823  25.5955986  47.4161851
  22.5034046  28.9451480  40.4671998  22.3870304  28.2696384  41.1353083
  22.6136306  28.4583854  39.6504151  24.8465587  28.4061627  44.1718687
  24.4823794  27.8792248  44.8831609  25.7032703  28.0160096  43.9985173
  30.7514887  19.6955960  51.4349954  30.4198212  20.5651371  51.2111169
  30.1560501  19.3792244  52.1143984  24.4871074  23.4351527  39.1680036
  24.6545476  24.3031764  39.5350507  24.2968243  23.5978809  38.2441325
  27.2446407  31.8968506  50.8345866  26.9447130  32.7993545  50.7261674
  26.8997466  31.6300689  51.6867019  20.6958888  28.3482303  46.8682571
  19.7709385  28.2158517  47.0760263  20.9443302  29.1276522  47.3652513
  30.6443551  24.4151046  48.5143304  29.7360428  24.3466455  48.2202065
  30.5931147  24.8922991  49.3425129  24.4660295  25.8909185  40.1526703
  24.3459920  26.3366235  40.9912183  23.7712883  26.2394502  39.5940241
  18.0567699  27.9915576  47.7026360  18.1860081  28.2450055  48.6165772
  17.3765151  28.5843284  47.3831015  22.2267187  38.6612826  43.8016834
  22.1491216  39.6120651  43.8805315  21.6228830  38.3158699  44.4591760
  24.7184417  25.8340692  56.4578201  23.9417751  26.3934612  56.4481066
  25.3574980  26.3197475  56.9793071  32.5105197  22.6167485  50.2921178
  31.8679577  22.9100018  49.6460972  32.0060126  22.5020405  51.0974374
  30.1645361  26.3630658  40.9807037  31.0763217  26.5958045  40.8054734
  29.6555008  26.9467702  40.4182115  22.9730789  28.6426145  56.0196168
  23.7145473  29.1811189  55.7430992  22.2667774  29.2692434  56.1767720
  28.4486128  30.7855286  54.6168329  28.8569484  30.3437696  53.8722962
  27.7263390  30.2107913  54.8702522  24.8017198  25.7227892  51.9901886
  25.6478394  26.1467306  52.1336535  24.7415836  25.0661517  52.6840449
  28.7714943  31.3456476  48.3720618  28.1423806  31.5102190  47.6696686
  28.3840605  31.7598086  49.1431582  32.6504175  32.2810914  45.7264982
  31.9655213  32.6609815  45.1762015  32.7348024  32.8906241  46.4596930
  27.9516644  23.3832261  53.6483060  27.7077576  24.1374321  53.1117336
  28.2276574  23.7617608  54.4830307  29.9055107  29.9270873  52.3260326
  30.1172002  30.5702633  51.6494707  29.8584855  29.0933190  51.8582256
  27.5081336  22.5388694  49.2296898  26.6465815  22.8369947  49.5213635
  27.5343770  22.7559093  48.2977930  24.3242905  31.0830884  45.6370703
  24.7881251  31.3618587  44.8475326  24.0599703  30.1814329  45.4543794
  21.2166986  30.6302366  48.5750467  21.7868343  31.0589634  47.9367951
  21.8075098  30.3484951  49.2734652  23.2611791  27.2054037  42.4460269
  23.9635834  27.6575080  42.9134195  22.9292420  26.5637856  43.0740162
  21.7092153  25.7965793  56.8211478  21.0790813  26.4782074  57.0546875
  21.6028240  25.6848875  55.8764616  17.0037125  25.4637589  47.7477402
  16.2136179  25.7195118  47.2717513  17.4948372  26.2785927  47.8529443
  31.0200935  32.8042829  50.4982683  31.8418378  32.4023016  50.2165365
  31.0163337  32.7011063  51.4498799  18.9551870  25.8282169  44.7060879
  18.1583034  25.9400863  45.2244374  18.7277463  26.1668821  43.8401769
  24.7857538  32.3526872  52.6543393  24.8501971  32.8147279  53.4901565
  24.0768462  31.7224237  52.7825703  15.2874828  25.7168080  50.1792393
  15.5382866  26.6015090  50.4449969  15.8234376  25.5372681  49.4067485
  39.1106928  29.1481577  46.8467654  38.3570636  28.5788975  46.6911659
  39.2454469  29.1144242  47.7938289  24.5005556  34.0194979  42.5222374
  24.3651230  34.8646515  42.9507222  25.0415368  34.2214257  41.7588308
  20.9872895  20.0986559  59.1836729  20.5939841  19.5452758  59.8584373
  21.8039036  20.4097138  59.5743247  17.9534953  31.5370417  43.0950299
  18.4659474  32.3313668  43.2455864  18.6057666  30.8396708  43.0283900
  19.7629838  34.6536174  45.1773052  19.9396466  35.5754138  44.9894036
  20.5586671  34.3394593  45.6067432  23.9040856  21.5144438  56.7756986
  24.6450570  22.1151591  56.6961448  24.1358779  20.7722076  56.2175028
  19.0482194  26.7000806  55.0535215  18.9335709  25.7986063  55.3542314
  18.1926712  26.9464502  54.7020032  26.1274032  34.6418546  56.6522716
  25.6837886  33.8554924  56.3343620  26.7891246  34.8297696  55.9866607
  20.8861153  36.1714347  51.1783394  21.4368578  36.0431411  50.4060388
  20.0472629  36.4709236  50.8278287  28.2255270  34.9221346  54.6804117
  28.2073745  35.7430227  54.1884386  29.1475190  34.7975421  54.9054258
  24.6828324  32.4365475  55.5227625  25.2156661  31.6753763  55.2926933
  24.1542405  32.1439127  56.2651780  27.8498019  17.5425541  51.0521267
  27.5062289  18.4327183  50.9760378  28.2176982  17.3527199  50.1890852
  15.9183870  29.8659072  43.8709869  16.7559092  30.2756080  43.6543577
  16.0962138  28.9258514  43.8410063  27.8148302  27.5334152  39.5593702
  27.2994925  28.3038757  39.7982090  27.5425610  26.8599288  40.1826764
  25.3995413  22.3783853  44.6178941  24.5437009  21.9890703  44.4384579
  25.8122365  22.4575814  43.7578726  26.9294560  19.9130196  49.0170500
  26.4259355  19.8760332  48.2038306  27.2225166  20.8222939  49.0767157
  23.1737445  19.9968926  48.0236682  24.0390442  19.8011735  47.6642572
  23.2414954  19.7679278  48.9506039  32.7882576  30.2866507  41.4946876
  32.0112019  29.9477666  41.0502038  33.4674057  30.2919130  40.8201841
  27.6034605  25.4061244  41.3853484  27.2984741  25.7207394  42.2363627
  28.5565047  25.4842664  41.4280817  26.0481037  31.5651468  43.0346438
  25.5202399  30.8304227  42.7219675  25.5468540  32.3426144  42.7886406
  31.0273883  29.7600488  48.1513484  30.3697557  30.4499750  48.2393612
  31.8314282  30.1496920  48.4947470  20.7799765  22.2271134  45.3953049
  21.3543516  22.0046316  44.6626242  21.3670747  22.2959829  46.1481650
  29.8379342  28.1144861  46.2017426  30.3511224  28.7474853  46.7039135
  30.4880566  27.5146056  45.8360786  21.1069352  24.2575595  39.4148934
  20.2706664  24.5950282  39.7358209  20.9674121  24.1224575  38.4776071
  23.0822432  19.1012383  44.1228118  22.4286845  18.7861400  43.4984733
  23.0402906  18.4788123  44.8487941  24.1933637  29.3831678  36.0381411
  23.2860699  29.1520931  36.2372560  24.6904669  28.5869297  36.2255392
  27.1001716  38.0929185  38.9578097  26.4263415  38.3960882  39.5663055
  27.4867538  38.8958266  38.6083554  26.3160173  25.5894316  48.4475766
  25.3982734  25.8109263  48.2897454  26.7320316  25.6640627  47.5887473
  27.0995220  26.9885732  43.5778446  27.8467039  27.5007129  43.2685568
  27.3686810  26.6669785  44.4382840  25.3721871  29.4844273  40.5605401
  24.4633090  29.2003306  40.6577870  25.4016954  29.9043351  39.7008707
  30.6041138  33.0950862  44.3296568  30.1503465  32.2541772  44.3861759
  29.9735105  33.7312261  44.6671348  29.5474058  24.0242848  45.5597236
  28.8096814  23.5120235  45.8907478  29.8000831  23.5843230  44.7480513
  29.0474077  34.9327359  45.2646386  29.3397052  35.4932416  44.5458752
  29.5572698  35.2255920  46.0199545  29.6485685  16.8019100  46.1539005
  29.9544562  15.9416464  45.8664920  30.3738290  17.3936721  45.9537999
  15.9410041  27.2049787  44.5420603  15.7434441  26.6119148  43.8171669
  15.3856705  26.9001997  45.2596542  23.9206765  27.0972893  46.6615196
  23.9755374  26.1446730  46.5857673  23.1097967  27.2532333  47.1456494
  25.0697958  31.0253017  37.8993479  24.6317388  30.3088875  37.4399117
  25.8108399  31.2529131  37.3378571  21.8599125  25.7149953  44.4205575
  21.0466990  26.0144124  44.8270767  22.3558119  25.3205642  45.1380057
  24.0107702  35.7107710  46.3539840  23.9683881  35.9368556  45.4248372
  24.9270401  35.4771085  46.5025641  27.4573336  26.1791778  53.2520469
  27.8122724  26.4063251  54.1114934  28.1045467  26.5110154  52.6297724
  33.1871073  29.3010214  43.9569798  33.0488972  29.4911810  43.0290987
  32.8307292  30.0629596  44.4137849  21.3513199  23.2868309  50.0366810
  21.9912579  23.1457068  49.3389773  20.5190730  23.0002822  49.6605412
  33.2140453  31.3686741  48.9681069  33.6476959  31.2762030  49.8164123
  33.9272033  31.3444241  48.3301085  22.1273503  32.5870739  46.1501802
  22.9214102  32.0921059  45.9484377  21.4165196  32.0588602  45.7869508
  26.9468348  34.9688835  50.5014170  27.0005370  35.5379771  51.2691886
  26.0783129  35.1390720  50.1368207  18.4356267  26.7313821  42.2261555
  17.5053855  26.6698276  42.4431517  18.5313739  26.2089774  41.4298196
  18.3541816  23.2568634  44.8139797  18.6148633  24.1713967  44.7048957
  19.1758988  22.7893076  44.9636409  19.8266741  24.6706391  51.9838621
  20.4989794  24.4623753  51.3351270  18.9996528  24.4728477  51.5443853
  34.0756002  31.4110441  51.5013955  34.2691892  32.3156252  51.7473230
  33.9756620  30.9517860  52.3352540  25.7292313  21.2968332  54.0004282
  25.0820228  21.9958281  53.9068758  26.4993328  21.7304476  54.3680530
  29.1371111  31.5617184  57.0754835  28.9856617  31.3327736  56.1584919
  29.1275790  32.5187785  57.0886180  25.9056447  29.1349097  52.0601102
  26.8348507  29.2860256  51.8870069  25.4847477  29.2233118  51.2049748
  24.7044779  33.1599761  49.8299639  24.5655865  32.7918546  50.7025577
  23.9159375  33.6747401  49.6583597  25.2992931  38.2608858  41.1725176
  25.4744687  37.7896901  41.9870799  24.6125719  38.8874624  41.4006437
  26.2549994  32.5381364  47.2188477  25.9199827  32.4982134  48.1146127
  25.7553940  31.8726080  46.7458887  20.2294238  27.9448994  52.7441058
  20.0914036  27.2129233  53.3452597  21.1399162  27.8557894  52.4625246
  29.1909186  29.8837398  37.4925537  28.5738357  29.1584226  37.3958589
  28.7225674  30.6446758  37.1492611  22.8576539  27.6568953  52.2324738
  23.5676157  27.0162145  52.1911356  22.8145847  27.9081848  53.1550919
  30.8463318  34.5936307  55.1531317  30.7875864  33.9095527  54.4861900
  31.2482836  35.3355297  54.7011943  21.5705473  24.6434171  54.0520377
  21.0342830  24.1924910  54.7041974  20.9822181  24.7780080  53.3090842
  19.8654016  41.4098220  47.9465036  20.1050615  42.0416745  48.6244055
  19.0223213  41.0586260  48.2330395  20.9807732  24.1022822  36.6146841
  20.1037198  23.9811623  36.2509088  21.4565485  23.3108901  36.3625730
  30.8480725  32.5575890  53.3845297  29.9607504  32.2201812  53.5071696
  31.4179276  31.8258922  53.6214062  12.5009872  28.8899982  46.7088348
  13.1880912  28.5761712  46.1209364  12.3458001  29.7941347  46.4355600
  17.3044594  23.7790179  51.1373372  17.2202783  23.1715848  50.4023782
  16.4827301  24.2699197  51.1382868  24.3781878  37.2177343  50.3506540
  24.3052050  38.0232314  50.8625845  23.9359271  37.4169309  49.5254561
  24.1671658  36.4549113  43.8609362  23.3839180  36.9970793  43.9547586
  24.8664403  36.9723092  44.2603603  27.4768308  22.2643742  46.5043567
  27.9737008  21.5113705  46.1844637  26.7055290  22.3008059  45.9386776
  35.3298065  27.9684108  48.1461858  35.3187942  28.8508823  47.7755792
  34.4615445  27.6155659  47.9516396  26.8380562  37.1164177  52.5064699
  27.5508534  37.7511642  52.4340600  26.3470590  37.2128043  51.6904701
  28.5598089  31.0215430  44.0781990  27.6254367  31.1416892  43.9086695
  28.7374757  30.1187896  43.8142000  24.0603277  24.4061125  46.2315252
  23.6901064  23.8532166  46.9196157  24.5562369  23.8019259  45.6790252
  31.9470640  26.8632749  44.6132025  32.4131092  27.6960740  44.5392327
  32.3978141  26.3977730  45.3177283  21.8892475  34.8658620  53.3270270
  22.5901935  35.4995103  53.4799664  21.4187590  35.2073352  52.5665909
  30.0146871  33.2076570  41.6118177  30.2906715  33.0933165  42.5212051
  29.1451370  32.8094055  41.5730350  29.9187303  19.2313336  48.6522926
  29.0050383  19.4617563  48.8205133  30.3480404  19.3151780  49.5036958
  29.6893761  27.4203228  51.1522820  29.0365212  27.6679135  50.4975273
  30.0674141  26.6067366  50.8185297  26.6500935  37.4562921  45.2550990
  26.8323330  36.6384577  45.7178742  27.4733921  37.6730613  44.8175880
  26.9843101  36.3831106  42.5166039  27.5130867  35.8723561  41.9036201
  27.2471320  36.0673636  43.3811572  25.7381334  28.1623039  57.6388857
  25.0621971  28.0617168  58.3091232  26.5608968  28.0062253  58.1024854
  17.4860193  34.3994975  50.2601372  18.0713630  33.6538663  50.3929276
  17.2885032  34.7098932  51.1438036  20.3398849  37.4346223  45.2763815
  19.6709224  37.9192350  44.7927855  20.2011718  37.6815443  46.1907193
  12.0777848  26.9700576  48.9805815  12.1161948  26.4364166  49.7742933
  11.5718141  26.4435781  48.3616793  24.4804117  39.4689966  51.8746473
  25.0322425  39.6321588  52.6395558  24.8210311  40.0594404  51.2026498
  19.4568610  21.8165116  52.4768358  19.5209937  22.6779947  52.0645755
  19.3935731  21.2039118  51.7440716  18.9320883  23.8888249  56.1241392
  19.5592922  23.5065326  56.7378916  18.0748802  23.6702451  56.4897084
  29.3314992  34.2951224  57.7295127  29.8754896  34.9081182  57.2350082
  28.7501836  34.8530802  58.2462140  15.7086426  25.6964678  42.0559747
  16.0039867  24.7875356  42.0026800  14.8074462  25.6752417  41.7340749
  27.6172505  37.4171942  48.8610155  27.4923644  36.6161682  48.3521101
  28.2751596  37.9118135  48.3724125  19.2380673  23.7720674  48.0387295
  18.5167259  24.3856642  47.8994769  20.0273929  24.3078439  47.9603941
  29.6807413  35.2180962  50.4889705  28.7337748  35.0986313  50.4168032
  30.0290186  34.3303460  50.5715967  22.0406986  21.1075101  54.3127947
  22.5641388  21.3537397  55.0754256  21.8219320  21.9395136  53.8931084
  17.4374267  23.3778775  42.1799072  17.1086973  22.4976154  41.9974178
  17.7913638  23.3226444  43.0675461  26.6853846  35.0133678  46.6894057
  26.5378809  34.0850386  46.8701627  27.5107340  35.0353769  46.2051133
  20.5516090  23.6651745  42.5474550  20.8912163  24.1937666  41.8253158
  20.9988211  24.0032151  43.3233116  30.2887968  35.8362237  47.7758930
  31.2134516  35.6305098  47.6383381  30.1203271  35.5878638  48.6848272
  23.2459531  22.0488796  51.9977618  22.9056352  21.2496609  52.3998298
  22.5398538  22.3490507  51.4254451  23.8976003  19.1338108  50.4504941
  24.7202072  18.6598587  50.3283831  24.1414067  19.9128592  50.9503627
  22.5384238  22.1626367  40.7467842  23.2592600  22.5407620  40.2431559
  21.9149542  22.8815244  40.8502820  26.6815361  22.8671516  41.6826175
  26.8978975  23.7496154  41.3815003  26.2009428  22.4757729  40.9531817
  21.4214582  25.8257229  48.2596919  21.2759163  26.1397532  49.1521201
  20.9439786  26.4442129  47.7067818  23.2810965  22.8159777  48.3077809
  23.2672534  21.9200870  47.9710107  23.9983393  22.8230441  48.9416095
  25.1337095  23.2497117  50.3530936  24.8754873  24.1714188  50.3515267
  24.6022136  22.8527552  51.0431400  30.0783284  36.3547904  43.1321022
  30.2520162  35.7894327  42.3794874  30.5712175  37.1548799  42.9500512
  15.8960244  28.3662573  51.1984580  15.3513712  29.1422381  51.3304855
  16.7739594  28.7133378  51.0403702  22.6847861  21.6974157  43.5765379
  22.8063772  20.7690803  43.7756266  22.3949903  21.7112843  42.6643694
  25.5539051  19.3829068  46.7132099  25.5760748  19.4468401  45.7584078
  25.9707110  18.5433576  46.9072605  35.9322675  29.1184327  44.7511321
  36.3753821  28.3691652  44.3530445  35.0549186  29.1094464  44.3685053
  31.0658457  35.6714669  40.2317920  31.7609361  36.2921361  40.4505235
  31.4081607  34.8210020  40.5070298  16.6826266  27.4932470  54.0914737
  15.9408002  27.6415105  54.6779368  16.3619010  27.7540735  53.2281487
  32.9649880  33.1214374  41.7605251  33.4901204  33.4601647  41.0354571
  32.8772232  32.1861390  41.5768385  24.6269929  37.0348448  53.8895127
  24.9357055  36.7897595  54.7617827  25.4245411  37.2395086  53.4013998
  24.6490541  39.1886357  46.1200504  24.2095531  38.6962736  46.8133361
  25.3998658  38.6459325  45.8792579  17.1282880  35.3797898  46.1225132
  17.9540900  35.0801670  45.7423775  16.7776932  34.6105521  46.5714921
  22.0964413  34.7324367  48.1922806  21.4744422  34.0695072  47.8925033
  22.7669280  34.7585498  47.5096453  15.3291485  33.2984225  47.0814066
  14.4923393  32.8706399  46.8998067  15.3015130  33.4916668  48.0184857
  22.1688940  23.2106155  57.7855312  22.2177096  24.0868277  57.4033081
  22.7111454  22.6683548  57.2126955  32.6543786  33.7547278  57.0656449
  31.8639330  33.7371417  56.5260948  32.4177140  34.2935572  57.8205485
  32.7741661  30.6039744  54.3789177  32.8239666  30.4389752  55.3204700
  32.6655584  29.7367003  53.9887058  21.6577920  33.2828290  41.6681266
  21.8066040  33.9663754  41.0147939  22.4644363  33.2633380  42.1830722
  30.0645423  26.5870672  55.6948484  30.9655286  26.4477137  55.4032482
  30.1393398  26.7525127  56.6346661  24.3988229  23.9637527  54.5401670
  23.5291538  24.2571093  54.2684259  24.6347709  24.5477972  55.2608934
  34.2759858  33.0236686  54.6231199  33.9844666  33.3866666  55.4594660
  33.6631989  32.3103694  54.4444531  35.4755540  30.5889566  47.1433769
  36.3102432  31.0279370  47.3071329  35.6114669  30.1128219  46.3242015
  32.5247046  28.1469300  53.0911257  33.0001168  28.3396947  52.2830108
  31.6012611  28.2028486  52.8454640  19.4130553  29.3093468  42.6742335
  19.1676595  28.4055798  42.8722545  19.5826467  29.3110618  41.7321813
  27.1027263  20.1817144  52.0567091  27.6209206  20.9178171  51.7313579
  26.7482395  20.4881137  52.8913850  18.6826200  25.0421825  40.1728496
  17.9895445  25.1166180  39.5168532  18.4377952  24.2782169  40.6950013
  27.3539857  16.6017426  47.5767987  27.6341610  15.9340616  48.2028414
  28.1390464  16.7946522  47.0642651  25.1573325  35.7776420  39.1393014
  24.5847292  36.3966608  38.6863485  25.7306119  36.3275782  39.6732935
  31.2248715  25.0235060  51.3239562  32.1766138  25.1233158  51.3451786
  31.0552165  24.2313329  51.8337647  29.2463095  22.1090644  51.5098963
  28.6513027  22.3895656  50.8145452  28.9612791  22.5984545  52.2815704
  28.3770585  36.0613571  40.2701596  29.3101258  35.9959132  40.4734471
  28.2893798  36.8969837  39.8116128  31.0058602  35.3779441  37.2305543
  30.9272233  35.0439304  38.1241301  31.8268268  35.8701209  37.2297016
  33.7036793  28.2441180  50.4381862  33.6713113  27.3057181  50.6241546
  34.3137416  28.3225217  49.7047687  25.5420124  27.1137233  36.4809066
  26.4879228  26.9843441  36.5497484  25.1634369  26.3751895  36.9578494
  33.8531281  25.0352224  50.4840145  33.3370330  24.2510680  50.2970074
  34.7371230  24.7070940  50.6486665  31.5142008  18.7793239  46.4435958
  31.3166829  18.4708327  47.3279290  32.1241714  19.5054878  46.5733888
  39.5213343  29.3057187  49.5787899  40.2516731  29.0442475  50.1395602
  38.9120288  28.5685909  49.6189967  37.6028640  27.4465050  50.1762350
  36.8761803  27.3121015  49.5678842  37.1875927  27.7541878  50.9819068
  25.4258816  31.1654979  57.9409723  26.3461826  31.3433578  58.1349769
  25.3908399  30.2211025  57.7889422  23.7263041  25.0387210  36.4163951
  22.8194496  24.7420322  36.4926665  24.0039022  24.7417028  35.5498237
  14.6440981  26.3593573  46.8662998  14.3243766  25.5058881  46.5737372
  14.0974409  26.5742151  47.6220965  18.4220889  29.0756014  50.5832504
  18.6406899  30.0073122  50.6020538  18.8346663  28.7163988  51.3687308
  25.3425107  19.5824099  42.5708193  24.5325835  19.2371184  42.9463439
  26.0309524  19.2731643  43.1595804  27.2715655  18.6602146  44.1932489
  27.8246693  19.0797599  44.8522512  27.5085741  17.7337894  44.2355445
  23.2948754  24.6489220  59.9735253  23.1945481  25.5983577  59.9047344
  23.0770296  24.3207459  59.1011323  22.4961825  21.8974145  36.5575930
  23.3580989  22.2229043  36.8171748  22.6812170  21.1105641  36.0448996
  14.5129241  29.9796484  48.8356119  13.8192713  29.5650437  48.3226074
  15.2602232  30.0217021  48.2389538  30.6494462  20.7702671  43.7011153
  30.0693131  21.4287475  43.3189206  30.3830395  19.9480016  43.2898571
  29.0998028  20.1707729  45.9032474  29.5997807  20.2824263  45.0946793
  29.7433636  19.8668782  46.5433282  23.1580024  28.0786359  58.7900315
  22.6747106  28.8786719  58.9964204  23.2440963  28.0894303  57.8367759
  16.4265984  29.9114738  46.7122134  16.4036672  30.0102425  45.7604017
  16.7366620  30.7579889  47.0339300  19.0853362  31.9690893  50.8268749
  20.0396615  31.9374836  50.7598680  18.8865885  31.5081517  51.6418974
  19.6752744  30.5392009  53.3939546  20.4945633  31.0336088  53.4174383
  19.9489551  29.6223977  53.3657114  29.4319340  22.9302762  42.7567502
  28.5445195  23.2152412  42.5387696  29.8473329  22.7696525  41.9094779
  32.7833876  22.9549283  46.4721841  33.5594266  23.4445735  46.7446458
  32.0582010  23.3807337  46.9293710  35.2206435  23.6676902  47.5295782
  35.8150926  23.4272638  46.8189090  35.2933018  22.9484032  48.1569318
  17.4403590  37.5110513  47.8438946  17.3058058  36.7510914  47.2776944
  17.0235653  38.2351413  47.3767735  28.5762553  32.6947436  36.8515522
  29.2798404  32.8997439  37.4673177  27.8525202  33.2624198  37.1164605
  29.4060364  28.4457298  42.9717792  29.3495565  28.9025849  42.1325424
  29.9588706  27.6847982  42.7940635  33.2165170  24.2347029  43.7967911
  32.9602104  23.8343665  44.6276119  32.5918038  24.9490823  43.6718050
  37.5277507  26.9743103  46.3039203  36.9677065  27.0436292  47.0770765
  36.9221011  26.7984087  45.5838699  20.5972716  38.4079830  48.0557389
  20.4805100  39.3525262  47.9536079  19.7765163  38.1053391  48.4443188
  30.4849251  33.1329965  38.9013982  31.3194855  32.7011164  38.7191457
  30.3233594  32.9611979  39.8290876  30.1395143  29.6362079  40.2670321
  30.0843947  29.4706350  39.3258765  29.5141198  30.3438112  40.4232511
  14.9287658  24.8730143  54.0931743  15.5746522  24.3629097  54.5818968
  14.7204809  25.6098825  54.6675168  27.4541050  31.9410991  59.5923884
  28.3232210  32.1151643  59.2310519  26.9747802  32.7605407  59.4699613
  23.4491268  19.1370188  39.8455639  23.4369938  20.0812028  40.0023910
  24.3414690  18.9540333  39.5515101  21.6227230  39.0608092  51.2713317
  22.5254477  39.0931702  51.5879812  21.3964600  38.1308543  51.2859653
  23.3780832  37.8139078  47.9323396  22.4276463  37.8140940  47.8187768
  23.6813319  37.0671813  47.4159431  27.2643388  15.7312964  44.1001576
  26.4975784  15.1771451  44.2458259  27.6754093  15.8034833  44.9615728
  19.2685149  22.0197760  58.1906757  20.1316611  21.6634565  58.4010082
  18.6950560  21.6811655  58.8782162  39.1133526  43.6499617  48.9969158
  39.7511936  43.5306364  48.2932499  38.9954369  44.5980461  49.0557111
  35.9223232  43.6027045  48.9330683  35.5841744  43.4868109  48.0451218
  36.7913000  43.2018210  48.9131689  31.7810048  45.4562521  44.9227574
  31.2174913  45.3652458  44.1543862  31.6662443  44.6362426  45.4030067
  36.4043015  44.7561896  54.8916889  36.3931656  44.3614695  54.0197392
  36.5663655  44.0227969  55.4850660  29.3274480  46.9513713  47.7611795
  30.1195772  46.6104537  47.3458094  29.5671130  47.0608688  48.6813948
  37.3609607  49.1233489  40.2342039  36.7097586  49.7087569  39.8476053
  38.1553969  49.6539684  40.2937076  31.2865234  46.2122626  40.6329173
  32.0596110  45.6651613  40.4942049  31.6390633  47.0766875  40.8443635
  33.1250276  47.5399008  53.8396073  32.8340142  48.4444639  53.7242739
  33.7607261  47.5815536  54.5540142  34.0506483  44.9175857  50.4297432
  34.6470055  44.6931879  49.7154395  34.1081455  44.1760602  51.0322880
  33.6231512  42.3715292  38.2647623  33.8757032  41.8496813  37.5031086
  32.6856071  42.2081437  38.3674307  38.6674794  41.3751070  46.0722367
  39.4537884  40.9570494  45.7212784  38.9313499  42.2797163  46.2404015
  38.8384872  46.8123921  40.7711023  38.2030705  46.8858547  41.4831928
  38.5082278  47.4017520  40.0930103  44.0683222  41.3126304  46.9755345
  44.8008393  40.7425520  47.2093174  43.3122577  40.9247904  47.4161851
  33.3427800  44.2743398  40.4671998  33.2264058  43.5988301  41.1353083
  33.4530060  43.7875772  39.6504151  35.6859341  43.7353545  44.1718687
  35.3217548  43.2084166  44.8831609  36.5426457  43.3452014  43.9985173
  41.5908642  35.0247878  51.4349954  41.2591967  35.8943289  51.2111169
  40.9954255  34.7084162  52.1143984  35.3264828  38.7643445  39.1680036
  35.4939231  39.6323681  39.5350507  35.1361997  38.9270726  38.2441325
  38.0840161  47.2260424  50.8345866  37.7840885  48.1285463  50.7261674
  37.7391221  46.9592607  51.6867019  31.5352643  43.6774221  46.8682571
  30.6103139  43.5450435  47.0760263  31.7837056  44.4568440  47.3652513
  41.4837305  39.7442964  48.5143304  40.5754183  39.6758372  48.2202065
  41.4324901  40.2214909  49.3425129  35.3054049  41.2201102  40.1526703
  35.1853674  41.6658153  40.9912183  34.6106637  41.5686420  39.5940241
  28.8961454  43.3207494  47.7026360  29.0253835  43.5741973  48.6165772
  28.2158905  43.9135202  47.3831015  33.0660941  53.9904744  43.8016834
  32.9884971  54.9412569  43.8805315  32.4622585  53.6450617  44.4591760
  35.5578171  41.1632609  56.4578201  34.7811505  41.7226530  56.4481066
  36.1968734  41.6489392  56.9793071  43.3498952  37.9459402  50.2921178
  42.7073332  38.2391935  49.6460972  42.8453880  37.8312323  51.0974374
  41.0039115  41.6922575  40.9807037  41.9156971  41.9249962  40.8054734
  40.4948762  42.2759620  40.4182115  33.8124543  43.9718063  56.0196168
  34.5539228  44.5103107  55.7430992  33.1061529  44.5984352  56.1767720
  39.2879883  46.1147203  54.6168329  39.6963239  45.6729614  53.8722962
  38.5657144  45.5399831  54.8702522  35.6410953  41.0519810  51.9901886
  36.4872148  41.4759224  52.1336535  35.5809591  40.3953434  52.6840449
  39.6108698  46.6748394  48.3720618  38.9817560  46.8394108  47.6696686
  39.2234360  47.0890003  49.1431582  43.4897929  47.6102832  45.7264982
  42.8048968  47.9901733  45.1762015  43.5741779  48.2198158  46.4596930
  38.7910398  38.7124178  53.6483060  38.5471330  39.4666239  53.1117336
  39.0670329  39.0909526  54.4830307  40.7448861  45.2562791  52.3260326
  40.9565756  45.8994551  51.6494707  40.6978609  44.4225107  51.8582256
  38.3475090  37.8680611  49.2296898  37.4859569  38.1661865  49.5213635
  38.3737525  38.0851010  48.2977930  35.1636659  46.4122802  45.6370703
  35.6275005  46.6910505  44.8475326  34.8993458  45.5106247  45.4543794
  32.0560741  45.9594284  48.5750467  32.6262098  46.3881552  47.9367951
  32.6468852  45.6776868  49.2734652  34.1005546  42.5345954  42.4460269
  34.8029589  42.9866998  42.9134195  33.7686174  41.8929773  43.0740162
  32.5485907  41.1257711  56.8211478  31.9184568  41.8073992  57.0546875
  32.4421995  41.0140793  55.8764616  27.8430879  40.7929507  47.7477402
  27.0529933  41.0487036  47.2717513  28.3342127  41.6077845  47.8529443
  41.8594689  48.1334746  50.4982683  42.6812133  47.7314933  50.2165365
  41.8557092  48.0302980  51.4498799  29.7945625  41.1574086  44.7060879
  28.9976788  41.2692781  45.2244374  29.5671217  41.4960739  43.8401769
  35.6251292  47.6818790  52.6543393  35.6895725  48.1439197  53.4901565
  34.9162216  47.0516154  52.7825703  26.1268582  41.0459997  50.1792393
  26.3776621  41.9307007  50.4449969  26.6628131  40.8664599  49.4067485
  49.9500682  44.4773495  46.8467654  49.1964390  43.9080893  46.6911659
  50.0848223  44.4436159  47.7938289  35.3399310  49.3486897  42.5222374
  35.2044985  50.1938433  42.9507222  35.8809123  49.5506175  41.7588308
  31.8266650  35.4278477  59.1836729  31.4333595  34.8744675  59.8584373
  32.6432790  35.7389055  59.5743247  28.7928708  46.8662335  43.0950299
  29.3053228  47.6605585  43.2455864  29.4451420  46.1688625  43.0283900
  30.6023592  49.9828091  45.1773052  30.7790221  50.9046056  44.9894036
  31.3980426  49.6686511  45.6067432  34.7434611  36.8436356  56.7756986
  35.4844324  37.4443509  56.6961448  34.9752534  36.1013994  56.2175028
  29.8875949  42.0292723  55.0535215  29.7729464  41.1277980  55.3542314
  29.0320467  42.2756420  54.7020032  36.9667787  49.9710464  56.6522716
  36.5231641  49.1846842  56.3343620  37.6285000  50.1589614  55.9866607
  31.7254908  51.5006265  51.1783394  32.2762333  51.3723328  50.4060388
  30.8866384  51.8001154  50.8278287  39.0649025  50.2513263  54.6804117
  39.0467500  51.0722144  54.1884386  39.9868945  50.1267339  54.9054258
  35.5222079  47.7657393  55.5227625  36.0550416  47.0045681  55.2926933
  34.9936160  47.4731045  56.2651780  38.6891774  32.8717459  51.0521267
  38.3456043  33.7619101  50.9760378  39.0570736  32.6819117  50.1890852
  26.7577624  45.1950989  43.8709869  27.5952846  45.6047998  43.6543577
  26.9355892  44.2550432  43.8410063  38.6542056  42.8626070  39.5593702
  38.1388680  43.6330675  39.7982090  38.3819365  42.1891206  40.1826764
  36.2389167  37.7075771  44.6178941  35.3830764  37.3182621  44.4384579
  36.6516119  37.7867732  43.7578726  37.7688314  35.2422114  49.0170500
  37.2653110  35.2052249  48.2038306  38.0618921  36.1514857  49.0767157
  34.0131200  35.3260844  48.0236682  34.8784197  35.1303652  47.6642572
  34.0808709  35.0971196  48.9506039  43.6276331  45.6158425  41.4946876
  42.8505773  45.2769584  41.0502038  44.3067812  45.6211048  40.8201841
  38.4428360  40.7353162  41.3853484  38.1378495  41.0499311  42.2363627
  39.3958802  40.8134582  41.4280817  36.8874791  46.8943385  43.0346438
  36.3596153  46.1596145  42.7219675  36.3862294  47.6718062  42.7886406
  41.8667637  45.0892406  48.1513484  41.2091312  45.7791667  48.2393612
  42.6708037  45.4788838  48.4947470  31.6193519  37.5563052  45.3953049
  32.1937271  37.3338233  44.6626242  32.2064501  37.6251746  46.1481650
  40.6773096  43.4436779  46.2017426  41.1904978  44.0766770  46.7039135
  41.3274320  42.8437974  45.8360786  31.9463106  39.5867513  39.4148934
  31.1100418  39.9242199  39.7358209  31.8067876  39.4516493  38.4776071
  33.9216187  34.4304301  44.1228118  33.2680599  34.1153318  43.4984733
  33.8796661  33.8080041  44.8487941  35.0327392  44.7123596  36.0381411
  34.1254453  44.4812849  36.2372560  35.5298424  43.9161215  36.2255392
  37.9395471  53.4221103  38.9578097  37.2657169  53.7252800  39.5663055
  38.3261292  54.2250183  38.6083554  37.1553927  40.9186234  48.4475766
  36.2376489  41.1401181  48.2897454  37.5714071  40.9932545  47.5887473
  37.9388975  42.3177650  43.5778446  38.6860794  42.8299047  43.2685568
  38.2080564  41.9961703  44.4382840  36.2115625  44.8136191  40.5605401
  35.3026844  44.5295223  40.6577870  36.2410709  45.2335269  39.7008707
  41.4434892  48.4242780  44.3296568  40.9897220  47.5833690  44.3861759
  40.8128859  49.0604178  44.6671348  40.3867812  39.3534766  45.5597236
  39.6490569  38.8412152  45.8907478  40.6394586  38.9135148  44.7480513
  39.8867832  50.2619277  45.2646386  40.1790806  50.8224334  44.5458752
  40.3966452  50.5547838  46.0199545  40.4879439  32.1311018  46.1539005
  40.7938316  31.2708382  45.8664920  41.2132044  32.7228638  45.9537999
  26.7803795  42.5341705  44.5420603  26.5828195  41.9411065  43.8171669
  26.2250459  42.2293915  45.2596542  34.7600519  42.4264811  46.6615196
  34.8149129  41.4738648  46.5857673  33.9491721  42.5824250  47.1456494
  35.9091713  46.3544934  37.8993479  35.4711143  45.6380793  37.4399117
  36.6502154  46.5821049  37.3378571  32.6992879  41.0441871  44.4205575
  31.8860745  41.3436041  44.8270767  33.1951873  40.6497560  45.1380057
  34.8501457  51.0399628  46.3539840  34.8077636  51.2660474  45.4248372
  35.7664156  50.8063002  46.5025641  38.2967091  41.5083695  53.2520469
  38.6516478  41.7355168  54.1114934  38.9439222  41.8402072  52.6297724
  44.0264828  44.6302131  43.9569798  43.8882726  44.8203727  43.0290987
  43.6701046  45.3921514  44.4137849  32.1906954  38.6160226  50.0366810
  32.8306333  38.4748986  49.3389773  31.3584484  38.3294740  49.6605412
  44.0534207  46.6978658  48.9681069  44.4870714  46.6053947  49.8164123
  44.7665788  46.6736159  48.3301085  32.9667258  47.9162657  46.1501802
  33.7607856  47.4212977  45.9484377  32.2558950  47.3880520  45.7869508
  37.7862102  50.2980752  50.5014170  37.8399124  50.8671689  51.2691886
  36.9176884  50.4682637  50.1368207  29.2750021  42.0605739  42.2261555
  28.3447609  41.9990194  42.4431517  29.3707493  41.5381691  41.4298196
  29.1935570  38.5860551  44.8139797  29.4542388  39.5005885  44.7048957
  30.0152743  38.1184994  44.9636409  30.6660496  39.9998309  51.9838621
  31.3383549  39.7915671  51.3351270  29.8390282  39.8020395  51.5443853
  44.9149757  46.7402359  51.5013955  45.1085647  47.6448169  51.7473230
  44.8150375  46.2809778  52.3352540  36.5686068  36.6260249  54.0004282
  35.9213983  37.3250199  53.9068758  37.3387083  37.0596393  54.3680530
  39.9764865  46.8909102  57.0754835  39.8250372  46.6619653  56.1584919
  39.9669545  47.8479703  57.0886180  36.7450202  44.4641014  52.0601102
  37.6742262  44.6152174  51.8870069  36.3241232  44.5525035  51.2049748
  35.5438534  48.4891679  49.8299639  35.4049619  48.1210463  50.7025577
  34.7553130  49.0039318  49.6583597  36.1386686  53.5900775  41.1725176
  36.3138441  53.1188818  41.9870799  35.4519474  54.2166541  41.4006437
  37.0943749  47.8673282  47.2188477  36.7593581  47.8274051  48.1146127
  36.5947695  47.2017997  46.7458887  31.0687993  43.2740912  52.7441058
  30.9307791  42.5421150  53.3452597  31.9792916  43.1849812  52.4625246
  40.0302940  45.2129316  37.4925537  39.4132111  44.4876144  37.3958589
  39.5619429  45.9738676  37.1492611  33.6970293  42.9860871  52.2324738
  34.4069912  42.3454063  52.1911356  33.6539602  43.2373766  53.1550919
  41.6857072  49.9228224  55.1531317  41.6269618  49.2387444  54.4861900
  42.0876591  50.6647214  54.7011943  32.4099227  39.9726089  54.0520377
  31.8736584  39.5216827  54.7041974  31.8215936  40.1071998  53.3090842
  30.7047771  56.7390138  47.9465036  30.9444369  57.3708662  48.6244055
  29.8616967  56.3878178  48.2330395  31.8201486  39.4314740  36.6146841
  30.9430953  39.3103541  36.2509088  32.2959239  38.6400818  36.3625730
  41.6874479  47.8867808  53.3845297  40.8001258  47.5493730  53.5071696
  42.2573030  47.1550839  53.6214062  23.3403627  44.2191900  46.7088348
  24.0274666  43.9053630  46.1209364  23.1851755  45.1233265  46.4355600
  28.1438349  39.1082096  51.1373372  28.0596537  38.5007766  50.4023782
  27.3221055  39.5991115  51.1382868  35.2175633  52.5469260  50.3506540
  35.1445804  53.3524232  50.8625845  34.7753026  52.7461226  49.5254561
  35.0065412  51.7841031  43.8609362  34.2232934  52.3262711  43.9547586
  35.7058158  52.3015010  44.2603603  38.3162063  37.5935660  46.5043567
  38.8130762  36.8405622  46.1844637  37.5449044  37.6299977  45.9386776
  46.1691820  43.2976026  48.1461858  46.1581696  44.1800741  47.7755792
  45.3009199  42.9447576  47.9516396  37.6774316  52.4456095  52.5064699
  38.3902289  53.0803559  52.4340600  37.1864345  52.5419961  51.6904701
  39.3991843  46.3507347  44.0781990  38.4648122  46.4708810  43.9086695
  39.5768512  45.4479814  43.8142000  34.8997031  39.7353043  46.2315252
  34.5294819  39.1824083  46.9196157  35.3956124  39.1311176  45.6790252
  42.7864395  42.1924666  44.6132025  43.2524847  43.0252658  44.5392327
  43.2371895  41.7269648  45.3177283  32.7286230  50.1950538  53.3270270
  33.4295689  50.8287021  53.4799664  32.2581345  50.5365270  52.5665909
  40.8540626  48.5368488  41.6118177  41.1300470  48.4225082  42.5212051
  39.9845124  48.1385973  41.5730350  40.7581057  34.5605253  48.6522926
  39.8444137  34.7909480  48.8205133  41.1874159  34.6443698  49.5036958
  40.5287516  42.7495145  51.1522820  39.8758966  42.9971053  50.4975273
  40.9067896  41.9359284  50.8185297  37.4894690  52.7854839  45.2550990
  37.6717084  51.9676495  45.7178742  38.3127676  53.0022531  44.8175880
  37.8236855  51.7123024  42.5166039  38.3524622  51.2015478  41.9036201
  38.0865075  51.3965554  43.3811572  36.5775089  43.4914956  57.6388857
  35.9015726  43.3909086  58.3091232  37.4002723  43.3354170  58.1024854
  28.3253948  49.7286893  50.2601372  28.9107385  48.9830581  50.3929276
  28.1278786  50.0390850  51.1438036  31.1792603  52.7638140  45.2763815
  30.5102978  53.2484268  44.7927855  31.0405473  53.0107361  46.1907193
  22.9171603  42.2992493  48.9805815  22.9555702  41.7656084  49.7742933
  22.4111895  41.7727699  48.3616793  35.3197872  54.7981884  51.8746473
  35.8716180  54.9613505  52.6395558  35.6604065  55.3886322  51.2026498
  30.2962365  37.1457034  52.4768358  30.3603691  38.0071865  52.0645755
  30.2329485  36.5331035  51.7440716  29.7714637  39.2180166  56.1241392
  30.3986676  38.8357244  56.7378916  28.9142556  38.9994368  56.4897084
  40.1708746  49.6243141  57.7295127  40.7148650  50.2373100  57.2350082
  39.5895591  50.1822720  58.2462140  26.5480180  41.0256595  42.0559747
  26.8433621  40.1167274  42.0026800  25.6468216  41.0044335  41.7340749
  38.4566259  52.7463859  48.8610155  38.3317398  51.9453599  48.3521101
  39.1145350  53.2410053  48.3724125  30.0774427  39.1012592  48.0387295
  29.3561013  39.7148560  47.8994769  30.8667683  39.6370357  47.9603941
  40.5201167  50.5472880  50.4889705  39.5731503  50.4278231  50.4168032
  40.8683941  49.6595378  50.5715967  32.8800741  36.4367018  54.3127947
  33.4035143  36.6829315  55.0754256  32.6613074  37.2687053  53.8931084
  28.2768022  38.7070693  42.1799072  27.9480728  37.8268072  41.9974178
  28.6307393  38.6518362  43.0675461  37.5247601  50.3425596  46.6894057
  37.3772563  49.4142303  46.8701627  38.3501094  50.3645686  46.2051133
  31.3909845  38.9943663  42.5474550  31.7305917  39.5229584  41.8253158
  31.8381965  39.3324069  43.3233116  41.1281723  51.1654154  47.7758930
  42.0528270  50.9597016  47.6383381  40.9597026  50.9170556  48.6848272
  34.0853286  37.3780714  51.9977618  33.7450106  36.5788527  52.3998298
  33.3792292  37.6782424  51.4254451  34.7369758  34.4630026  50.4504941
  35.5595827  33.9890504  50.3283831  34.9807821  35.2420510  50.9503627
  33.3777992  37.4918284  40.7467842  34.0986355  37.8699537  40.2431559
  32.7543296  38.2107161  40.8502820  37.5209115  38.1963433  41.6826175
  37.7372729  39.0788071  41.3815003  37.0403182  37.8049647  40.9531817
  32.2608336  41.1549147  48.2596919  32.1152917  41.4689450  49.1521201
  31.7833540  41.7734047  47.7067818  34.1204719  38.1451695  48.3077809
  34.1066288  37.2492788  47.9710107  34.8377147  38.1522358  48.9416095
  35.9730850  38.5789035  50.3530936  35.7148628  39.5006105  50.3515267
  35.4415890  38.1819469  51.0431400  40.9177039  51.6839822  43.1321022
  41.0913916  51.1186244  42.3794874  41.4105930  52.4840717  42.9500512
  26.7353999  43.6954491  51.1984580  26.1907467  44.4714299  51.3304855
  27.6133348  44.0425296  51.0403702  33.5241615  37.0266075  43.5765379
  33.6457526  36.0982721  43.7756266  33.2343658  37.0404761  42.6643694
  36.3932806  34.7120985  46.7132099  36.4154502  34.7760318  45.7584078
  36.8100865  33.8725494  46.9072605  46.7716430  44.4476245  44.7511321
  47.2147576  43.6983570  44.3530445  45.8942940  44.4386381  44.3685053
  41.9052211  51.0006586  40.2317920  42.6003116  51.6213279  40.4505235
  42.2475361  50.1501938  40.5070298  27.5220020  42.8224387  54.0914737
  26.7801756  42.9707023  54.6779368  27.2012765  43.0832653  53.2281487
  43.8043634  48.4506292  41.7605251  44.3294958  48.7893565  41.0354571
  43.7165987  47.5153307  41.5768385  35.4663683  52.3640366  53.8895127
  35.7750809  52.1189512  54.7617827  36.2639165  52.5687004  53.4013998
  35.4884295  54.5178275  46.1200504  35.0489285  54.0254654  46.8133361
  36.2392412  53.9751243  45.8792579  27.9676634  50.7089816  46.1225132
  28.7934654  50.4093588  45.7423775  27.6170686  49.9397438  46.5714921
  32.9358167  50.0616284  48.1922806  32.3138177  49.3986989  47.8925033
  33.6063034  50.0877416  47.5096453  26.1685239  48.6276142  47.0814066
  25.3317147  48.1998317  46.8998067  26.1408885  48.8208586  48.0184857
  33.0082695  38.5398072  57.7855312  33.0570850  39.4160195  57.4033081
  33.5505209  37.9975465  57.2126955  43.4937540  49.0839196  57.0656449
  42.7033084  49.0663334  56.5260948  43.2570895  49.6227489  57.8205485
  43.6135415  45.9331662  54.3789177  43.6633420  45.7681669  55.3204700
  43.5049339  45.0658921  53.9887058  32.4971674  48.6120208  41.6681266
  32.6459795  49.2955672  41.0147939  33.3038118  48.5925298  42.1830722
  40.9039178  41.9162590  55.6948484  41.8049041  41.7769055  55.4032482
  40.9787152  42.0817045  56.6346661  35.2381983  39.2929445  54.5401670
  34.3685293  39.5863011  54.2684259  35.4741464  39.8769890  55.2608934
  45.1153612  48.3528603  54.6231199  44.8238421  48.7158584  55.4594660
  44.5025744  47.6395612  54.4444531  46.3149295  45.9181483  47.1433769
  47.1496186  46.3571287  47.3071329  46.4508423  45.4420136  46.3242015
  43.3640801  43.4761218  53.0911257  43.8394922  43.6688864  52.2830108
  42.4406366  43.5320404  52.8454640  30.2524307  44.6385385  42.6742335
  30.0070349  43.7347715  42.8722545  30.4220222  44.6402536  41.7321813
  37.9421017  35.5109062  52.0567091  38.4602961  36.2470089  51.7313579
  37.5876150  35.8173055  52.8913850  29.5219955  40.3713743  40.1728496
  28.8289200  40.4458098  39.5168532  29.2771707  39.6074086  40.6950013
  38.1933611  31.9309344  47.5767987  38.4735365  31.2632533  48.2028414
  38.9784218  32.1238440  47.0642651  35.9967080  51.1068338  39.1393014
  35.4241047  51.7258525  38.6863485  36.5699873  51.6567700  39.6732935
  42.0642470  40.3526978  51.3239562  43.0159892  40.4525076  51.3451786
  41.8945920  39.5605247  51.8337647  40.0856849  37.4382561  51.5098963
  39.4906781  37.7187574  50.8145452  39.8006546  37.9276462  52.2815704
  39.2164339  51.3905488  40.2701596  40.1495013  51.3251050  40.4734471
  39.1287552  52.2261755  39.8116128  41.8452356  50.7071359  37.2305543
  41.7665988  50.3731222  38.1241301  42.6662023  51.1993126  37.2297016
  44.5430547  43.5733098  50.4381862  44.5106867  42.6349099  50.6241546
  45.1531171  43.6517135  49.7047687  36.3813878  42.4429151  36.4809066
  37.3272983  42.3135359  36.5497484  36.0028123  41.7043813  36.9578494
  44.6925036  40.3644141  50.4840145  44.1764084  39.5802598  50.2970074
  45.5764984  40.0362858  50.6486665  42.3535763  34.1085157  46.4435958
  42.1560584  33.8000245  47.3279290  42.9635468  34.8346796  46.5733888
  50.3607097  44.6349105  49.5787899  51.0910486  44.3734393  50.1395602
  49.7514043  43.8977827  49.6189967  48.4422394  42.7756967  50.1762350
  47.7155558  42.6412932  49.5678842  48.0269681  43.0833796  50.9819068
  36.2652571  46.4946897  57.9409723  37.1855580  46.6725496  58.1349769
  36.2302154  45.5502942  57.7889422  34.5656795  40.3679127  36.4163951
  33.6588251  40.0712240  36.4926665  34.8432776  40.0708945  35.5498237
  25.4834736  41.6885491  46.8662998  25.1637520  40.8350799  46.5737372
  24.9368164  41.9034069  47.6220965  29.2614643  44.4047932  50.5832504
  29.4800653  45.3365039  50.6020538  29.6740417  44.0455906  51.3687308
  36.1818861  34.9116017  42.5708193  35.3719589  34.5663102  42.9463439
  36.8703278  34.6023561  43.1595804  38.1109409  33.9894064  44.1932489
  38.6640448  34.4089517  44.8522512  38.3479496  33.0629812  44.2355445
  34.1342509  39.9781137  59.9735253  34.0339235  40.9275494  59.9047344
  33.9164051  39.6499376  59.1011323  33.3355580  37.2266062  36.5575930
  34.1974744  37.5520961  36.8171748  33.5205924  36.4397558  36.0448996
  25.3522996  45.3088402  48.8356119  24.6586467  44.8942355  48.3226074
  26.0995987  45.3508939  48.2389538  41.4888216  36.0994589  43.7011153
  40.9086885  36.7579393  43.3189206  41.2224149  35.2771933  43.2898571
  39.9391783  35.4999647  45.9032474  40.4391561  35.6116181  45.0946793
  40.5827391  35.1960699  46.5433282  33.9973779  43.4078276  58.7900315
  33.5140860  44.2078636  58.9964204  34.0834718  43.4186221  57.8367759
  27.2659738  45.2406656  46.7122134  27.2430426  45.3394343  45.7604017
  27.5760375  46.0871807  47.0339300  29.9247116  47.2982811  50.8268749
  30.8790370  47.2666753  50.7598680  29.7259640  46.8373435  51.6418974
  30.5146498  45.8683927  53.3939546  31.3339387  46.3628006  53.4174383
  30.7883306  44.9515895  53.3657114  40.2713094  38.2594679  42.7567502
  39.3838949  38.5444330  42.5387696  40.6867084  38.0988443  41.9094779
  43.6227631  38.2841200  46.4721841  44.3988021  38.7737653  46.7446458
  42.8975765  38.7099254  46.9293710  46.0600189  38.9968819  47.5295782
  46.6544680  38.7564555  46.8189090  46.1326773  38.2775950  48.1569318
  28.2797345  52.8402430  47.8438946  28.1451813  52.0802831  47.2776944
  27.8629407  53.5643330  47.3767735  39.4156308  48.0239354  36.8515522
  40.1192158  48.2289356  37.4673177  38.6918957  48.5916116  37.1164605
  40.2454118  43.7749215  42.9717792  40.1889320  44.2317767  42.1325424
  40.7982461  43.0139900  42.7940635  44.0558924  39.5638947  43.7967911
  43.7995858  39.1635583  44.6276119  43.4311792  40.2782741  43.6718050
  48.3671262  42.3035020  46.3039203  47.8070820  42.3728210  47.0770765
  47.7614765  42.1276005  45.5838699  31.4366471  53.7371747  48.0557389
  31.3198855  54.6817180  47.9536079  30.6158917  53.4345309  48.4443188
  41.3243005  48.4621883  38.9013982  42.1588609  48.0303082  38.7191457
  41.1627348  48.2903897  39.8290876  40.9788898  44.9653996  40.2670321
  40.9237701  44.7998268  39.3258765  40.3534953  45.6730029  40.4232511
  25.7681412  40.2022061  54.0931743  26.4140276  39.6921015  54.5818968
  25.5598564  40.9390742  54.6675168  38.2934805  47.2702908  59.5923884
  39.1625964  47.4443561  59.2310519  37.8141556  48.0897325  59.4699613
  34.2885023  34.4662105  39.8455639  34.2763693  35.4103945  40.0023910
  35.1808445  34.2832251  39.5515101  32.4620985  54.3900009  51.2713317
  33.3648232  54.4223620  51.5879812  32.2358355  53.4600460  51.2859653
  34.2174587  53.1430996  47.9323396  33.2670218  53.1432857  47.8187768
  34.5207073  52.3963730  47.4159431  38.1037142  31.0604882  44.1001576
  37.3369538  30.5063369  44.2458259  38.5147847  31.1326751  44.9615728
  30.1078903  37.3489678  58.1906757  30.9710365  36.9926483  58.4010082
  29.5344314  37.0103573  58.8782162  49.9527280  58.9791534  48.9969158
  50.5905690  58.8598282  48.2932499  49.8348123  59.9272378  49.0557111
  46.7616987  58.9318962  48.9330683  46.4235498  58.8160027  48.0451218
  47.6306755  58.5310127  48.9131689  42.6203802  60.7854439  44.9227574
  42.0568668  60.6944376  44.1543862  42.5056197  59.9654343  45.4030067
  47.2436770  60.0853814  54.8916889  47.2325410  59.6906612  54.0197392
  47.4057409  59.3519887  55.4850660  40.1668234  62.2805630  47.7611795
  40.9589526  61.9396455  47.3458094  40.4064884  62.3900605  48.6813948
  48.2003361  64.4525406  40.2342039  47.5491341  65.0379487  39.8476053
  48.9947724  64.9831601  40.2937076  42.1258988  61.5414544  40.6329173
  42.8989864  60.9943531  40.4942049  42.4784387  62.4058793  40.8443635
  43.9644031  62.8690926  53.8396073  43.6733897  63.7736557  53.7242739
  44.6001015  62.9107453  54.5540142  44.8900238  60.2467774  50.4297432
  45.4863810  60.0223797  49.7154395  44.9475209  59.5052520  51.0322880
  44.4625266  57.7007210  38.2647623  44.7150787  57.1788731  37.5031086
  43.5249825  57.5373355  38.3674307  49.5068549  56.7042988  46.0722367
  50.2931638  56.2862411  45.7212784  49.7707253  57.6089080  46.2404015
  49.6778626  62.1415838  40.7711023  49.0424459  62.2150465  41.4831928
  49.3476033  62.7309437  40.0930103  54.9076976  56.6418221  46.9755345
  55.6402148  56.0717438  47.2093174  54.1516332  56.2539822  47.4161851
  44.1821555  59.6035316  40.4671998  44.0657813  58.9280219  41.1353083
  44.2923815  59.1167690  39.6504151  46.5253096  59.0645463  44.1718687
  46.1611303  58.5376084  44.8831609  47.3820212  58.6743932  43.9985173
  52.4302396  50.3539795  51.4349954  52.0985721  51.2235206  51.2111169
  51.8348010  50.0376079  52.1143984  46.1658583  54.0935362  39.1680036
  46.3332985  54.9615599  39.5350507  45.9755752  54.2562644  38.2441325
  48.9233916  62.5552341  50.8345866  48.6234639  63.4577380  50.7261674
  48.5784975  62.2884525  51.6867019  42.3746397  59.0066138  46.8682571
  41.4496894  58.8742352  47.0760263  42.6230811  59.7860357  47.3652513
  52.3231060  55.0734882  48.5143304  51.4147937  55.0050290  48.2202065
  52.2718655  55.5506826  49.3425129  46.1447804  56.5493020  40.1526703
  46.0247429  56.9950071  40.9912183  45.4500392  56.8978338  39.5940241
  39.7355208  58.6499412  47.7026360  39.8647590  58.9033891  48.6165772
  39.0552660  59.2427120  47.3831015  43.9054696  69.3196662  43.8016834
  43.8278725  70.2704487  43.8805315  43.3016339  68.9742534  44.4591760
  46.3971925  56.4924527  56.4578201  45.6205260  57.0518447  56.4481066
  47.0362489  56.9781310  56.9793071  54.1892706  53.2751320  50.2921178
  53.5467086  53.5683853  49.6460972  53.6847635  53.1604240  51.0974374
  51.8432870  57.0214493  40.9807037  52.7550726  57.2541880  40.8054734
  51.3342517  57.6051537  40.4182115  44.6518298  59.3009981  56.0196168
  45.3932982  59.8395024  55.7430992  43.9455283  59.9276269  56.1767720
  50.1273637  61.4439121  54.6168329  50.5356993  61.0021531  53.8722962
  49.4050899  60.8691748  54.8702522  46.4804707  56.3811728  51.9901886
  47.3265903  56.8051141  52.1336535  46.4203345  55.7245352  52.6840449
  50.4502452  62.0040312  48.3720618  49.8211315  62.1686026  47.6696686
  50.0628114  62.4181921  49.1431582  54.3291684  62.9394749  45.7264982
  53.6442722  63.3193651  45.1762015  54.4135533  63.5490076  46.4596930
  49.6304153  54.0416096  53.6483060  49.3865085  54.7958157  53.1117336
  49.9064083  54.4201444  54.4830307  51.5842616  60.5854708  52.3260326
  51.7959511  61.2286468  51.6494707  51.5372364  59.7517025  51.8582256
  49.1868845  53.1972529  49.2296898  48.3253324  53.4953783  49.5213635
  49.2131279  53.4142928  48.2977930  46.0030414  61.7414720  45.6370703
  46.4668759  62.0202423  44.8475326  45.7387212  60.8398164  45.4543794
  42.8954495  61.2886201  48.5750467  43.4655852  61.7173470  47.9367951
  43.4862607  61.0068786  49.2734652  44.9399300  57.8637872  42.4460269
  45.6423343  58.3158916  42.9134195  44.6079929  57.2221691  43.0740162
  43.3879662  56.4549629  56.8211478  42.7578322  57.1365910  57.0546875
  43.2815749  56.3432710  55.8764616  38.6824634  56.1221425  47.7477402
  37.8923688  56.3778953  47.2717513  39.1735881  56.9369763  47.8529443
  52.6988444  63.4626664  50.4982683  53.5205887  63.0606851  50.2165365
  52.6950846  63.3594898  51.4498799  40.6339379  56.4866004  44.7060879
  39.8370543  56.5984698  45.2244374  40.4064972  56.8252656  43.8401769
  46.4645047  63.0110707  52.6543393  46.5289479  63.4731114  53.4901565
  45.7555971  62.3808072  52.7825703  36.9662337  56.3751915  50.1792393
  37.2170375  57.2598925  50.4449969  37.5021885  56.1956517  49.4067485
  60.7894437  59.8065412  46.8467654  60.0358145  59.2372810  46.6911659
  60.9241978  59.7728077  47.7938289  46.1793065  64.6778815  42.5222374
  46.0438739  65.5230350  42.9507222  46.7202877  64.8798092  41.7588308
  42.6660404  50.7570395  59.1836729  42.2727350  50.2036593  59.8584373
  43.4826545  51.0680973  59.5743247  39.6322462  62.1954253  43.0950299
  40.1446983  62.9897503  43.2455864  40.2845175  61.4980543  43.0283900
  41.4417347  65.3120009  45.1773052  41.6183975  66.2337974  44.9894036
  42.2374180  64.9978428  45.6067432  45.5828365  52.1728274  56.7756986
  46.3238079  52.7735427  56.6961448  45.8146288  51.4305911  56.2175028
  40.7269703  57.3584641  55.0535215  40.6123218  56.4569898  55.3542314
  39.8714221  57.6048338  54.7020032  47.8061541  65.3002381  56.6522716
  47.3625395  64.5138760  56.3343620  48.4678755  65.4881532  55.9866607
  42.5648662  66.8298183  51.1783394  43.1156087  66.7015246  50.4060388
  41.7260138  67.1293072  50.8278287  49.9042779  65.5805181  54.6804117
  49.8861254  66.4014062  54.1884386  50.8262699  65.4559256  54.9054258
  46.3615833  63.0949311  55.5227625  46.8944170  62.3337599  55.2926933
  45.8329914  62.8022962  56.2651780  49.5285528  48.2009377  51.0521267
  49.1849798  49.0911018  50.9760378  49.8964491  48.0111034  50.1890852
  37.5971379  60.5242907  43.8709869  38.4346601  60.9339915  43.6543577
  37.7749647  59.5842349  43.8410063  49.4935811  58.1917988  39.5593702
  48.9782434  58.9622592  39.7982090  49.2213119  57.5183124  40.1826764
  47.0782922  53.0367688  44.6178941  46.2224518  52.6474539  44.4384579
  47.4909874  53.1159649  43.7578726  48.6082069  50.5714032  49.0170500
  48.1046864  50.5344167  48.2038306  48.9012675  51.4806774  49.0767157
  44.8524954  50.6552761  48.0236682  45.7177951  50.4595570  47.6642572
  44.9202463  50.4263113  48.9506039  54.4670085  60.9450342  41.4946876
  53.6899528  60.6061502  41.0502038  55.1461566  60.9502965  40.8201841
  49.2822114  56.0645080  41.3853484  48.9772250  56.3791229  42.2363627
  50.2352556  56.1426500  41.4280817  47.7268546  62.2235303  43.0346438
  47.1989908  61.4888063  42.7219675  47.2256049  63.0009979  42.7886406
  52.7061392  60.4184324  48.1513484  52.0485066  61.1083585  48.2393612
  53.5101791  60.8080756  48.4947470  42.4587274  52.8854969  45.3953049
  43.0331025  52.6630151  44.6626242  43.0458256  52.9543664  46.1481650
  51.5166851  58.7728696  46.2017426  52.0298733  59.4058688  46.7039135
  52.1668075  58.1729892  45.8360786  42.7856861  54.9159430  39.4148934
  41.9494173  55.2534117  39.7358209  42.6461630  54.7808410  38.4776071
  44.7609941  49.7596218  44.1228118  44.1074354  49.4445235  43.4984733
  44.7190415  49.1371959  44.8487941  45.8721146  60.0415513  36.0381411
  44.9648208  59.8104767  36.2372560  46.3692178  59.2453133  36.2255392
  48.7789225  68.7513021  38.9578097  48.1050924  69.0544717  39.5663055
  49.1655047  69.5542101  38.6083554  47.9947682  56.2478152  48.4475766
  47.0770243  56.4693099  48.2897454  48.4107825  56.3224462  47.5887473
  48.7782729  57.6469567  43.5778446  49.5254548  58.1590965  43.2685568
  49.0474319  57.3253620  44.4382840  47.0509380  60.1428108  40.5605401
  46.1420599  59.8587141  40.6577870  47.0804463  60.5627187  39.7008707
  52.2828647  63.7534698  44.3296568  51.8290974  62.9125608  44.3861759
  51.6522614  64.3896096  44.6671348  51.2261567  54.6826684  45.5597236
  50.4884323  54.1704070  45.8907478  51.4788340  54.2427065  44.7480513
  50.7261586  65.5911194  45.2646386  51.0184561  66.1516252  44.5458752
  51.2360207  65.8839755  46.0199545  51.3273194  47.4602936  46.1539005
  51.6332071  46.6000299  45.8664920  52.0525799  48.0520556  45.9537999
  37.6197550  57.8633622  44.5420603  37.4221950  57.2702983  43.8171669
  37.0644214  57.5585833  45.2596542  45.5994274  57.7556729  46.6615196
  45.6542883  56.8030565  46.5857673  44.7885476  57.9116168  47.1456494
  46.7485467  61.6836852  37.8993479  46.3104897  60.9672711  37.4399117
  47.4895908  61.9112967  37.3378571  43.5386634  56.3733789  44.4205575
  42.7254499  56.6727959  44.8270767  44.0345628  55.9789477  45.1380057
  45.6895211  66.3691545  46.3539840  45.6471390  66.5952392  45.4248372
  46.6057910  66.1354920  46.5025641  49.1360845  56.8375613  53.2520469
  49.4910233  57.0647086  54.1114934  49.7832976  57.1693990  52.6297724
  54.8658582  59.9594049  43.9569798  54.7276481  60.1495645  43.0290987
  54.5094801  60.7213432  44.4137849  43.0300708  53.9452144  50.0366810
  43.6700088  53.8040903  49.3389773  42.1978239  53.6586657  49.6605412
  54.8927962  62.0270576  48.9681069  55.3264468  61.9345865  49.8164123
  55.6059542  62.0028076  48.3301085  43.8061012  63.2454575  46.1501802
  44.6001611  62.7504895  45.9484377  43.0952705  62.7172438  45.7869508
  48.6255857  65.6272670  50.5014170  48.6792879  66.1963606  51.2691886
  47.7570638  65.7974555  50.1368207  40.1143776  57.3897656  42.2261555
  39.1841364  57.3282112  42.4431517  40.2101248  56.8673609  41.4298196
  40.0329325  53.9152469  44.8139797  40.2936142  54.8297802  44.7048957
  40.8546497  53.4476912  44.9636409  41.5054250  55.3290226  51.9838621
  42.1777303  55.1207588  51.3351270  40.6784037  55.1312312  51.5443853
  55.7543511  62.0694277  51.5013955  55.9479401  62.9740087  51.7473230
  55.6544129  61.6101696  52.3352540  47.4079822  51.9552167  54.0004282
  46.7607737  52.6542117  53.9068758  48.1780837  52.3888311  54.3680530
  50.8158620  62.2201019  57.0754835  50.6644126  61.9911571  56.1584919
  50.8063299  63.1771621  57.0886180  47.5843956  59.7932932  52.0601102
  48.5136016  59.9444092  51.8870069  47.1634986  59.8816953  51.2049748
  46.3832288  63.8183596  49.8299639  46.2443374  63.4502381  50.7025577
  45.5946884  64.3331236  49.6583597  46.9780440  68.9192693  41.1725176
  47.1532196  68.4480736  41.9870799  46.2913228  69.5458459  41.4006437
  47.9337503  63.1965199  47.2188477  47.5987336  63.1565969  48.1146127
  47.4341449  62.5309915  46.7458887  41.9081747  58.6032829  52.7441058
  41.7701545  57.8713068  53.3452597  42.8186671  58.5141729  52.4625246
  50.8696695  60.5421234  37.4925537  50.2525866  59.8168062  37.3958589
  50.4013183  61.3030594  37.1492611  44.5364048  58.3152789  52.2324738
  45.2463666  57.6745981  52.1911356  44.4933356  58.5665683  53.1550919
  52.5250827  65.2520142  55.1531317  52.4663373  64.5679362  54.4861900
  52.9270345  65.9939132  54.7011943  43.2492982  55.3018006  54.0520377
  42.7130339  54.8508745  54.7041974  42.6609690  55.4363915  53.3090842
  41.5441525  72.0682056  47.9465036  41.7838124  72.7000580  48.6244055
  40.7010722  71.7170096  48.2330395  42.6595241  54.7606658  36.6146841
  41.7824707  54.6395459  36.2509088  43.1352994  53.9692736  36.3625730
  52.5268234  63.2159726  53.3845297  51.6395013  62.8785648  53.5071696
  53.0966785  62.4842757  53.6214062  34.1797381  59.5483818  46.7088348
  34.8668421  59.2345548  46.1209364  34.0245510  60.4525182  46.4355600
  38.9832103  54.4374014  51.1373372  38.8990292  53.8299684  50.4023782
  38.1614810  54.9283032  51.1382868  46.0569387  67.8761178  50.3506540
  45.9839559  68.6816150  50.8625845  45.6146780  68.0753144  49.5254561
  45.8459167  67.1132948  43.8609362  45.0626689  67.6554628  43.9547586
  46.5451912  67.6306928  44.2603603  49.1555817  52.9227578  46.5043567
  49.6524517  52.1697540  46.1844637  48.3842799  52.9591894  45.9386776
  57.0085574  58.6267943  48.1461858  56.9975451  59.5092659  47.7755792
  56.1402954  58.2739494  47.9516396  48.5168071  67.7748012  52.5064699
  49.2296043  68.4095477  52.4340600  48.0258099  67.8711878  51.6904701
  50.2385598  61.6799265  44.0781990  49.3041876  61.8000727  43.9086695
  50.4162266  60.7771732  43.8142000  45.7390786  55.0644961  46.2315252
  45.3688573  54.5116001  46.9196157  46.2349878  54.4603094  45.6790252
  53.6258149  57.5216584  44.6132025  54.0918601  58.3544576  44.5392327
  54.0765650  57.0561566  45.3177283  43.5679984  65.5242456  53.3270270
  44.2689444  66.1578939  53.4799664  43.0975099  65.8657187  52.5665909
  51.6934380  63.8660405  41.6118177  51.9694224  63.7517000  42.5212051
  50.8238879  63.4677890  41.5730350  51.5974812  49.8897171  48.6522926
  50.6837892  50.1201398  48.8205133  52.0267913  49.9735615  49.5036958
  51.3681270  58.0787063  51.1522820  50.7152721  58.3262971  50.4975273
  51.7461650  57.2651201  50.8185297  48.3288444  68.1146756  45.2550990
  48.5110839  67.2968412  45.7178742  49.1521430  68.3314449  44.8175880
  48.6630610  67.0414941  42.5166039  49.1918376  66.5307396  41.9036201
  48.9258829  66.7257472  43.3811572  47.4168843  58.8206874  57.6388857
  46.7409480  58.7201003  58.3091232  48.2396477  58.6646088  58.1024854
  39.1647702  65.0578811  50.2601372  39.7501139  64.3122499  50.3929276
  38.9672541  65.3682767  51.1438036  42.0186358  68.0930058  45.2763815
  41.3496733  68.5776186  44.7927855  41.8799227  68.3399279  46.1907193
  33.7565357  57.6284411  48.9805815  33.7949457  57.0948002  49.7742933
  33.2505650  57.1019616  48.3616793  46.1591626  70.1273802  51.8746473
  46.7109934  70.2905423  52.6395558  46.4997820  70.7178239  51.2026498
  41.1356119  52.4748951  52.4768358  41.1997446  53.3363782  52.0645755
  41.0723240  51.8622953  51.7440716  40.6108392  54.5472084  56.1241392
  41.2380431  54.1649161  56.7378916  39.7536311  54.3286286  56.4897084
  51.0102501  64.9535059  57.7295127  51.5542405  65.5665017  57.2350082
  50.4289345  65.5114638  58.2462140  37.3873935  56.3548513  42.0559747
  37.6827376  55.4459191  42.0026800  36.4861970  56.3336253  41.7340749
  49.2960013  68.0755777  48.8610155  49.1711153  67.2745517  48.3521101
  49.9539105  68.5701971  48.3724125  40.9168182  54.4304510  48.0387295
  40.1954767  55.0440477  47.8994769  41.7061437  54.9662274  47.9603941
  51.3594922  65.8764797  50.4889705  50.4125257  65.7570148  50.4168032
  51.7077695  64.9887295  50.5715967  43.7194495  51.7658936  54.3127947
  44.2428897  52.0121233  55.0754256  43.5006829  52.5978971  53.8931084
  39.1161776  54.0362611  42.1799072  38.7874482  53.1559990  41.9974178
  39.4701147  53.9810279  43.0675461  48.3641355  65.6717513  46.6894057
  48.2166318  64.7434221  46.8701627  49.1894849  65.6937604  46.2051133
  42.2303599  54.3235581  42.5474550  42.5699672  54.8521502  41.8253158
  42.6775720  54.6615987  43.3233116  51.9675477  66.4946072  47.7758930
  52.8922024  66.2888934  47.6383381  51.7990780  66.2462473  48.6848272
  44.9247040  52.7072631  51.9977618  44.5843861  51.9080444  52.3998298
  44.2186047  53.0074342  51.4254451  45.5763512  49.7921944  50.4504941
  46.3989581  49.3182422  50.3283831  45.8201576  50.5712427  50.9503627
  44.2171747  52.8210202  40.7467842  44.9380109  53.1991455  40.2431559
  43.5937051  53.5399079  40.8502820  48.3602869  53.5255351  41.6826175
  48.5766484  54.4079989  41.3815003  47.8796937  53.1341565  40.9531817
  43.1002091  56.4841064  48.2596919  42.9546672  56.7981367  49.1521201
  42.6227295  57.1025965  47.7067818  44.9598474  53.4743612  48.3077809
  44.9460043  52.5784706  47.9710107  45.6770902  53.4814276  48.9416095
  46.8124604  53.9080953  50.3530936  46.5542382  54.8298023  50.3515267
  46.2809645  53.5111387  51.0431400  51.7570793  67.0131740  43.1321022
  51.9307671  66.4478162  42.3794874  52.2499684  67.8132635  42.9500512
  37.5747753  59.0246409  51.1984580  37.0301221  59.8006217  51.3304855
  38.4527103  59.3717213  51.0403702  44.3635370  52.3557993  43.5765379
  44.4851281  51.4274639  43.7756266  44.0737412  52.3696679  42.6643694
  47.2326560  50.0412903  46.7132099  47.2548257  50.1052236  45.7584078
  47.6494619  49.2017412  46.9072605  57.6110184  59.7768163  44.7511321
  58.0541330  59.0275488  44.3530445  56.7336695  59.7678299  44.3685053
  52.7445966  66.3298504  40.2317920  53.4396870  66.9505197  40.4505235
  53.0869116  65.4793855  40.5070298  38.3613775  58.1516305  54.0914737
  37.6195511  58.2998940  54.6779368  38.0406519  58.4124571  53.2281487
  54.6437389  63.7798210  41.7605251  55.1688713  64.1185482  41.0354571
  54.5559741  62.8445225  41.5768385  46.3057438  67.6932283  53.8895127
  46.6144564  67.4481430  54.7617827  47.1032920  67.8978922  53.4013998
  46.3278050  69.8470193  46.1200504  45.8883040  69.3546572  46.8133361
  47.0786167  69.3043161  45.8792579  38.8070389  66.0381734  46.1225132
  39.6328408  65.7385506  45.7423775  38.4564441  65.2689356  46.5714921
  43.7751922  65.3908202  48.1922806  43.1531931  64.7278907  47.8925033
  44.4456789  65.4169334  47.5096453  37.0078994  63.9568060  47.0814066
  36.1710902  63.5290235  46.8998067  36.9802639  64.1500504  48.0184857
  43.8476449  53.8689990  57.7855312  43.8964605  54.7452113  57.4033081
  44.3898963  53.3267383  57.2126955  54.3331295  64.4131113  57.0656449
  53.5426839  64.3955252  56.5260948  54.0964649  64.9519407  57.8205485
  54.4529170  61.2623580  54.3789177  54.5027175  61.0973587  55.3204700
  54.3443093  60.3950839  53.9887058  43.3365429  63.9412125  41.6681266
  43.4853549  64.6247590  41.0147939  44.1431872  63.9217215  42.1830722
  51.7432932  57.2454508  55.6948484  52.6442795  57.1060972  55.4032482
  51.8180907  57.4108962  56.6346661  46.0775738  54.6221362  54.5401670
  45.2079047  54.9154928  54.2684259  46.3135218  55.2061807  55.2608934
  55.9547367  63.6820521  54.6231199  55.6632175  64.0450502  55.4594660
  55.3419498  62.9687529  54.4444531  57.1543049  61.2473401  47.1433769
  57.9889940  61.6863205  47.3071329  57.2902178  60.7712054  46.3242015
  54.2034555  58.8053136  53.0911257  54.6788677  58.9980782  52.2830108
  53.2800120  58.8612322  52.8454640  41.0918062  59.9677303  42.6742335
  40.8464104  59.0639633  42.8722545  41.2613976  59.9694453  41.7321813
  48.7814772  50.8400979  52.0567091  49.2996715  51.5762006  51.7313579
  48.4269904  51.1464973  52.8913850  40.3613709  55.7005660  40.1728496
  39.6682954  55.7750015  39.5168532  40.1165461  54.9366004  40.6950013
  49.0327366  47.2601262  47.5767987  49.3129119  46.5924451  48.2028414
  49.8177973  47.4530357  47.0642651  46.8360834  66.4360256  39.1393014
  46.2634801  67.0550443  38.6863485  47.4093628  66.9859617  39.6732935
  52.9036224  55.6818896  51.3239562  53.8553647  55.7816993  51.3451786
  52.7339674  54.8897164  51.8337647  50.9250603  52.7674479  51.5098963
  50.3300536  53.0479492  50.8145452  50.6400300  53.2568380  52.2815704
  50.0558094  66.7197406  40.2701596  50.9888767  66.6542968  40.4734471
  49.9681307  67.5553673  39.8116128  52.6846111  66.0363276  37.2305543
  52.6059742  65.7023140  38.1241301  53.5055777  66.5285044  37.2297016
  55.3824302  58.9025016  50.4381862  55.3500622  57.9641016  50.6241546
  55.9924925  58.9809052  49.7047687  47.2207633  57.7721068  36.4809066
  48.1666737  57.6427277  36.5497484  46.8421878  57.0335730  36.9578494
  55.5318790  55.6936059  50.4840145  55.0157839  54.9094516  50.2970074
  56.4158739  55.3654776  50.6486665  53.1929517  49.4377075  46.4435958
  52.9954338  49.1292163  47.3279290  53.8029223  50.1638713  46.5733888
  61.2000852  59.9641022  49.5787899  61.9304240  59.7026310  50.1395602
  60.5907797  59.2269744  49.6189967  59.2816149  58.1048885  50.1762350
  58.5549312  57.9704850  49.5678842  58.8663436  58.4125714  50.9819068
  47.1046325  61.8238815  57.9409723  48.0249335  62.0017414  58.1349769
  47.0695908  60.8794860  57.7889422  45.4050550  55.6971045  36.4163951
  44.4982005  55.4004158  36.4926665  45.6826531  55.4000863  35.5498237
  36.3228490  57.0177408  46.8662998  36.0031275  56.1642716  46.5737372
  35.7761918  57.2325986  47.6220965  40.1008398  59.7339849  50.5832504
  40.3194408  60.6656957  50.6020538  40.5134172  59.3747824  51.3687308
  47.0212616  50.2407935  42.5708193  46.2113344  49.8955020  42.9463439
  47.7097032  49.9315478  43.1595804  48.9503164  49.3185981  44.1932489
  49.5034202  49.7381435  44.8522512  49.1873250  48.3921729  44.2355445
  44.9736263  55.3073055  59.9735253  44.8732990  56.2567412  59.9047344
  44.7557805  54.9791294  59.1011323  44.1749334  52.5557980  36.5575930
  45.0368498  52.8812878  36.8171748  44.3599679  51.7689476  36.0448996
  36.1916750  60.6380320  48.8356119  35.4980222  60.2234273  48.3226074
  36.9389741  60.6800856  48.2389538  52.3281971  51.4286507  43.7011153
  51.7480640  52.0871311  43.3189206  52.0617904  50.6063851  43.2898571
  50.7785537  50.8291564  45.9032474  51.2785316  50.9408099  45.0946793
  51.4221145  50.5252617  46.5433282  44.8367533  58.7370194  58.7900315
  44.3534615  59.5370554  58.9964204  44.9228472  58.7478139  57.8367759
  38.1053493  60.5698574  46.7122134  38.0824181  60.6686261  45.7604017
  38.4154129  61.4163724  47.0339300  40.7640871  62.6274729  50.8268749
  41.7184124  62.5958671  50.7598680  40.5653394  62.1665352  51.6418974
  41.3540253  61.1975845  53.3939546  42.1733142  61.6919923  53.4174383
  41.6277060  60.2807813  53.3657114  51.1106849  53.5886597  42.7567502
  50.2232704  53.8736248  42.5387696  51.5260838  53.4280360  41.9094779
  54.4621385  53.6133118  46.4721841  55.2381775  54.1029570  46.7446458
  53.7369519  54.0391172  46.9293710  56.8993944  54.3260737  47.5295782
  57.4938435  54.0856473  46.8189090  56.9720527  53.6067868  48.1569318
  39.1191099  68.1694348  47.8438946  38.9845567  67.4094749  47.2776944
  38.7023162  68.8935248  47.3767735  50.2550062  63.3531272  36.8515522
  50.9585913  63.5581274  37.4673177  49.5312711  63.9208033  37.1164605
  51.0847873  59.1041133  42.9717792  51.0283074  59.5609684  42.1325424
  51.6376215  58.3431817  42.7940635  54.8952679  54.8930865  43.7967911
  54.6389613  54.4927500  44.6276119  54.2705547  55.6074659  43.6718050
  59.2065016  57.6326938  46.3039203  58.6464574  57.7020127  47.0770765
  58.6008520  57.4567923  45.5838699  42.2760225  69.0663665  48.0557389
  42.1592609  70.0109098  47.9536079  41.4552672  68.7637227  48.4443188
  52.1636760  63.7913801  38.9013982  52.9982364  63.3594999  38.7191457
  52.0021103  63.6195814  39.8290876  51.8182652  60.2945914  40.2670321
  51.7631456  60.1290186  39.3258765  51.1928707  61.0021947  40.4232511
  36.6075167  55.5313978  54.0931743  37.2534031  55.0212932  54.5818968
  36.3992318  56.2682660  54.6675168  49.1328559  62.5994826  59.5923884
  50.0019719  62.7735478  59.2310519  48.6535311  63.4189243  59.4699613
  45.1278777  49.7954023  39.8455639  45.1157447  50.7395863  40.0023910
  46.0202199  49.6124169  39.5515101  43.3014739  69.7191927  51.2713317
  44.2041986  69.7515537  51.5879812  43.0752109  68.7892378  51.2859653
  45.0568341  68.4722914  47.9323396  44.1063972  68.4724775  47.8187768
  45.3600828  67.7255648  47.4159431  48.9430897  46.3896800  44.1001576
  48.1763293  45.8355286  44.2458259  49.3541602  46.4618669  44.9615728
  40.9472658  52.6781596  58.1906757  41.8104120  52.3218400  58.4010082
  40.3738069  52.3395490  58.8782162  60.7921035  74.3083452  48.9969158
  61.4299445  74.1890199  48.2932499  60.6741878  75.2564296  49.0557111
  57.6010741  74.2610880  48.9330683  57.2629253  74.1451945  48.0451218
  58.4700509  73.8602045  48.9131689  53.4597557  76.1146356  44.9227574
  52.8962422  76.0236293  44.1543862  53.3449952  75.2946261  45.4030067
  58.0830524  75.4145732  54.8916889  58.0719165  75.0198530  54.0197392
  58.2451164  74.6811804  55.4850660  51.0061989  77.6097548  47.7611795
  51.7983281  77.2688373  47.3458094  51.2458639  77.7192523  48.6813948
  59.0397116  79.7817324  40.2342039  58.3885095  80.3671405  39.8476053
  59.8341478  80.3123519  40.2937076  52.9652743  76.8706461  40.6329173
  53.7383619  76.3235448  40.4942049  53.3178142  77.7350711  40.8443635
  54.8037785  78.1982844  53.8396073  54.5127651  79.1028474  53.7242739
  55.4394770  78.2399371  54.5540142  55.7293992  75.5759692  50.4297432
  56.3257564  75.3515714  49.7154395  55.7868964  74.8344438  51.0322880
  55.3019021  73.0299127  38.2647623  55.5544541  72.5080649  37.5031086
  54.3643580  72.8665273  38.3674307  60.3462303  72.0334906  46.0722367
  61.1325393  71.6154329  45.7212784  60.6101008  72.9380998  46.2404015
  60.5172381  77.4707756  40.7711023  59.8818214  77.5442383  41.4831928
  60.1869787  78.0601355  40.0930103  55.0215309  74.9327233  40.4671998
  54.9051567  74.2572137  41.1353083  55.1317569  74.4459607  39.6504151
  63.2696151  65.6831713  51.4349954  62.9379476  66.5527124  51.2111169
  62.6741764  65.3667997  52.1143984  57.0052337  69.4227280  39.1680036
  57.1726740  70.2907517  39.5350507  56.8149506  69.5854562  38.2441325
  53.2140152  74.3358056  46.8682571  52.2890648  74.2034270  47.0760263
  53.4624565  75.1152275  47.3652513  56.9841558  71.8784938  40.1526703
  56.8641183  72.3241988  40.9912183  56.2894146  72.2270255  39.5940241
  50.5748963  73.9791329  47.7026360  50.7041344  74.2325808  48.6165772
  49.8946414  74.5719037  47.3831015  54.7448450  84.6488579  43.8016834
  54.6672480  85.5996404  43.8805315  54.1410094  84.3034452  44.4591760
  57.2365680  71.8216445  56.4578201  56.4599014  72.3810365  56.4481066
  57.8756243  72.3073228  56.9793071  62.6826624  72.3506411  40.9807037
  63.5944480  72.5833798  40.8054734  62.1736271  72.9343455  40.4182115
  55.4912052  74.6301898  56.0196168  56.2326737  75.1686942  55.7430992
  54.7849038  75.2568187  56.1767720  57.3198462  71.7103645  51.9901886
  58.1659657  72.1343059  52.1336535  57.2597100  71.0537270  52.6840449
  60.4697907  69.3708014  53.6483060  60.2258839  70.1250074  53.1117336
  60.7457838  69.7493361  54.4830307  60.0262599  68.5264447  49.2296898
  59.1647078  68.8245700  49.5213635  60.0525034  68.7434846  48.2977930
  53.7348250  76.6178119  48.5750467  54.3049607  77.0465387  47.9367951
  54.3256361  76.3360704  49.2734652  55.7793055  73.1929790  42.4460269
  56.4817098  73.6450833  42.9134195  55.4473683  72.5513609  43.0740162
  54.2273416  71.7841546  56.8211478  53.5972077  72.4657827  57.0546875
  54.1209504  71.6724628  55.8764616  49.5218388  71.4513342  47.7477402
  48.7317442  71.7070871  47.2717513  50.0129636  72.2661680  47.8529443
  51.4733134  71.8157922  44.7060879  50.6764297  71.9276616  45.2244374
  51.2458726  72.1544574  43.8401769  47.8056091  71.7043833  50.1792393
  48.0564130  72.5890843  50.4449969  48.3415640  71.5248434  49.4067485
  53.5054159  66.0862312  59.1836729  53.1121104  65.5328511  59.8584373
  54.3220299  66.3972891  59.5743247  50.4716217  77.5246170  43.0950299
  50.9840737  78.3189421  43.2455864  51.1238929  76.8272461  43.0283900
  52.2811101  80.6411927  45.1773052  52.4577730  81.5629891  44.9894036
  53.0767935  80.3270346  45.6067432  56.4222120  67.5020191  56.7756986
  57.1631833  68.1027344  56.6961448  56.6540043  66.7597829  56.2175028
  51.5663458  72.6876559  55.0535215  51.4516973  71.7861816  55.3542314
  50.7107976  72.9340255  54.7020032  58.6455296  80.6294299  56.6522716
  58.2019150  79.8430677  56.3343620  59.3072509  80.8173449  55.9866607
  53.4042417  82.1590100  51.1783394  53.9549842  82.0307164  50.4060388
  52.5653893  82.4584989  50.8278287  57.2009588  78.4241228  55.5227625
  57.7337925  77.6629516  55.2926933  56.6723669  78.1314880  56.2651780
  60.3679283  63.5301294  51.0521267  60.0243552  64.4202936  50.9760378
  60.7358245  63.3402952  50.1890852  48.4365133  75.8534825  43.8709869
  49.2740355  76.2631833  43.6543577  48.6143401  74.9134267  43.8410063
  60.3329565  73.5209905  39.5593702  59.8176189  74.2914510  39.7982090
  60.0606874  72.8475042  40.1826764  57.9176676  68.3659606  44.6178941
  57.0618273  67.9766457  44.4384579  58.3303628  68.4451567  43.7578726
  59.4475823  65.9005949  49.0170500  58.9440619  65.8636085  48.2038306
  59.7406430  66.8098692  49.0767157  55.6918709  65.9844679  48.0236682
  56.5571706  65.7887488  47.6642572  55.7596218  65.7555031  48.9506039
  60.1215869  71.3936997  41.3853484  59.8166004  71.7083147  42.2363627
  61.0746311  71.4718417  41.4280817  53.2981028  68.2146887  45.3953049
  53.8724780  67.9922069  44.6626242  53.8852010  68.2835582  46.1481650
  53.6250615  70.2451348  39.4148934  52.7887927  70.5826035  39.7358209
  53.4855385  70.1100328  38.4776071  55.6003696  65.0888136  44.1228118
  54.9468108  64.7737153  43.4984733  55.5584170  64.4663876  44.8487941
  56.7114901  75.3707431  36.0381411  55.8041962  75.1396684  36.2372560
  57.2085933  74.5745050  36.2255392  59.6182979  84.0804938  38.9578097
  58.9444678  84.3836635  39.5663055  60.0048801  84.8834019  38.6083554
  58.8341436  71.5770069  48.4475766  57.9163997  71.7985016  48.2897454
  59.2501580  71.6516380  47.5887473  57.8903134  75.4720026  40.5605401
  56.9814353  75.1879059  40.6577870  57.9198218  75.8919104  39.7008707
  62.0655321  70.0118601  45.5597236  61.3278078  69.4995988  45.8907478
  62.3182095  69.5718983  44.7480513  62.1666948  62.7894853  46.1539005
  62.4725825  61.9292217  45.8664920  62.8919553  63.3812474  45.9537999
  48.4591304  73.1925540  44.5420603  48.2615704  72.5994901  43.8171669
  47.9037968  72.8877750  45.2596542  56.4388028  73.0848646  46.6615196
  56.4936638  72.1322483  46.5857673  55.6279230  73.2408086  47.1456494
  57.5879222  77.0128770  37.8993479  57.1498652  76.2964628  37.4399117
  58.3289663  77.2404884  37.3378571  54.3780388  71.7025706  44.4205575
  53.5648254  72.0019877  44.8270767  54.8739382  71.3081395  45.1380057
  56.5288966  81.6983463  46.3539840  56.4865145  81.9244309  45.4248372
  57.4451665  81.4646838  46.5025641  59.9754600  72.1667531  53.2520469
  60.3303987  72.3939004  54.1114934  60.6226731  72.4985907  52.6297724
  53.8694463  69.2744062  50.0366810  54.5093842  69.1332821  49.3389773
  53.0371993  68.9878575  49.6605412  54.6454767  78.5746492  46.1501802
  55.4395365  78.0796812  45.9484377  53.9346459  78.0464355  45.7869508
  50.9537530  72.7189574  42.2261555  50.0235118  72.6574029  42.4431517
  51.0495002  72.1965527  41.4298196  50.8723079  69.2444387  44.8139797
  51.1329896  70.1589720  44.7048957  51.6940252  68.7768829  44.9636409
  52.3448005  70.6582144  51.9838621  53.0171058  70.4499506  51.3351270
  51.5177791  70.4604230  51.5443853  58.2473577  67.2844085  54.0004282
  57.6001492  67.9834034  53.9068758  59.0174592  67.7180229  54.3680530
  58.4237711  75.1224850  52.0601102  59.3529771  75.2736009  51.8870069
  58.0028741  75.2108871  51.2049748  57.2226043  79.1475514  49.8299639
  57.0837128  78.7794299  50.7025577  56.4340639  79.6623154  49.6583597
  57.8174195  84.2484611  41.1725176  57.9925950  83.7772654  41.9870799
  57.1306983  84.8750377  41.4006437  52.7475502  73.9324747  52.7441058
  52.6095300  73.2004986  53.3452597  53.6580425  73.8433647  52.4625246
  61.7090449  75.8713151  37.4925537  61.0919620  75.1459979  37.3958589
  61.2406938  76.6322511  37.1492611  55.3757802  73.6444706  52.2324738
  56.0857421  73.0037898  52.1911356  55.3327111  73.8957601  53.1550919
  54.0886736  70.6309924  54.0520377  53.5524093  70.1800663  54.7041974
  53.5003445  70.7655833  53.3090842  52.3835280  87.3973973  47.9465036
  52.6231878  88.0292498  48.6244055  51.5404476  87.0462013  48.2330395
  53.4988995  70.0898576  36.6146841  52.6218462  69.9687376  36.2509088
  53.9746748  69.2984654  36.3625730  45.0191136  74.8775735  46.7088348
  45.7062175  74.5637465  46.1209364  44.8639264  75.7817100  46.4355600
  49.8225858  69.7665932  51.1373372  49.7384046  69.1591601  50.4023782
  49.0008564  70.2574950  51.1382868  56.8963142  83.2053096  50.3506540
  56.8233313  84.0108067  50.8625845  56.4540535  83.4045062  49.5254561
  56.6852921  82.4424866  43.8609362  55.9020443  82.9846546  43.9547586
  57.3845667  82.9598846  44.2603603  59.9949572  68.2519495  46.5043567
  60.4918271  67.4989458  46.1844637  59.2236553  68.2883812  45.9386776
  56.5784540  70.3936878  46.2315252  56.2082328  69.8407919  46.9196157
  57.0743633  69.7895012  45.6790252  64.4651904  72.8508502  44.6132025
  64.9312356  73.6836493  44.5392327  64.9159404  72.3853483  45.3177283
  54.4073739  80.8534373  53.3270270  55.1083198  81.4870856  53.4799664
  53.9368854  81.1949105  52.5665909  62.4368566  65.2189089  48.6522926
  61.5231646  65.4493316  48.8205133  62.8661668  65.3027533  49.5036958
  58.2562598  74.1498792  57.6388857  57.5803235  74.0492921  58.3091232
  59.0790232  73.9938006  58.1024854  50.0041457  80.3870728  50.2601372
  50.5894894  79.6414416  50.3929276  49.8066295  80.6974685  51.1438036
  52.8580112  83.4221976  45.2763815  52.1890487  83.9068103  44.7927855
  52.7192982  83.6691196  46.1907193  44.5959112  72.9576329  48.9805815
  44.6343211  72.4239919  49.7742933  44.0899404  72.4311534  48.3616793
  51.9749874  67.8040869  52.4768358  52.0391200  68.6655700  52.0645755
  51.9116994  67.1914871  51.7440716  51.4502146  69.8764002  56.1241392
  52.0774185  69.4941079  56.7378916  50.5930065  69.6578204  56.4897084
  48.2267689  71.6840431  42.0559747  48.5221130  70.7751109  42.0026800
  47.3255725  71.6628170  41.7340749  51.7561936  69.7596427  48.0387295
  51.0348522  70.3732395  47.8994769  52.5455192  70.2954192  47.9603941
  54.5588250  67.0950854  54.3127947  55.0822652  67.3413150  55.0754256
  54.3400583  67.9270889  53.8931084  49.9555531  69.3654528  42.1799072
  49.6268237  68.4851907  41.9974178  50.3094901  69.3102197  43.0675461
  53.0697354  69.6527498  42.5474550  53.4093426  70.1813419  41.8253158
  53.5169474  69.9907904  43.3233116  55.7640795  68.0364549  51.9977618
  55.4237615  67.2372362  52.3998298  55.0579801  68.3366260  51.4254451
  56.4157267  65.1213861  50.4504941  57.2383336  64.6474340  50.3283831
  56.6595330  65.9004345  50.9503627  55.0565501  68.1502120  40.7467842
  55.7773864  68.5283373  40.2431559  54.4330805  68.8690997  40.8502820
  59.1996624  68.8547269  41.6826175  59.4160238  69.7371907  41.3815003
  58.7190691  68.4633482  40.9531817  53.9395845  71.8132982  48.2596919
  53.7940426  72.1273285  49.1521201  53.4621049  72.4317882  47.7067818
  55.7992228  68.8035530  48.3077809  55.7853797  67.9076623  47.9710107
  56.5164656  68.8106194  48.9416095  57.6518359  69.2372870  50.3530936
  57.3936137  70.1589941  50.3515267  57.1203399  68.8403305  51.0431400
  48.4141508  74.3538326  51.1984580  47.8694976  75.1298134  51.3304855
  49.2920857  74.7009131  51.0403702  55.2029124  67.6849910  43.5765379
  55.3245035  66.7566556  43.7756266  54.9131167  67.6988596  42.6643694
  58.0720315  65.3704821  46.7132099  58.0942011  65.4344154  45.7584078
  58.4888374  64.5309329  46.9072605  49.2007529  73.4808223  54.0914737
  48.4589265  73.6290858  54.6779368  48.8800274  73.7416488  53.2281487
  57.1451192  83.0224201  53.8895127  57.4538318  82.7773348  54.7617827
  57.9426674  83.2270839  53.4013998  57.1671804  85.1762111  46.1200504
  56.7276794  84.6838489  46.8133361  57.9179921  84.6335078  45.8792579
  49.6464143  81.3673651  46.1225132  50.4722163  81.0677423  45.7423775
  49.2958195  80.5981274  46.5714921  54.6145676  80.7200120  48.1922806
  53.9925686  80.0570825  47.8925033  55.2850543  80.7461251  47.5096453
  47.8472748  79.2859978  47.0814066  47.0104656  78.8582152  46.8998067
  47.8196394  79.4792421  48.0184857  54.6870204  69.1981908  57.7855312
  54.7358359  70.0744030  57.4033081  55.2292718  68.6559301  57.2126955
  54.1759183  79.2704043  41.6681266  54.3247304  79.9539507  41.0147939
  54.9825627  79.2509133  42.1830722  56.9169492  69.9513280  54.5401670
  56.0472802  70.2446846  54.2684259  57.1528973  70.5353725  55.2608934
  51.9311816  75.2969221  42.6742335  51.6857858  74.3931551  42.8722545
  52.1007731  75.2986371  41.7321813  59.6208526  66.1692897  52.0567091
  60.1390470  66.9053924  51.7313579  59.2663659  66.4756890  52.8913850
  51.2007464  71.0297578  40.1728496  50.5076709  71.1041933  39.5168532
  50.9559216  70.2657922  40.6950013  59.8721120  62.5893179  47.5767987
  60.1522874  61.9216369  48.2028414  60.6571727  62.7822275  47.0642651
  57.6754589  81.7652173  39.1393014  57.1028556  82.3842361  38.6863485
  58.2487382  82.3151535  39.6732935  61.7644358  68.0966397  51.5098963
  61.1694290  68.3771409  50.8145452  61.4794055  68.5860298  52.2815704
  63.5239865  81.3655194  37.2305543  63.4453497  81.0315057  38.1241301
  64.3449532  81.8576962  37.2297016  58.0601387  73.1012986  36.4809066
  59.0060492  72.9719194  36.5497484  57.6815632  72.3627648  36.9578494
  64.0323272  64.7668992  46.4435958  63.8348093  64.4584080  47.3279290
  64.6422977  65.4930631  46.5733888  57.9440080  77.1530732  57.9409723
  58.8643089  77.3309331  58.1349769  57.9089663  76.2086778  57.7889422
  56.2444304  71.0262963  36.4163951  55.3375760  70.7296075  36.4926665
  56.5220285  70.7292781  35.5498237  47.1622245  72.3469326  46.8662998
  46.8425029  71.4934634  46.5737372  46.6155673  72.5617904  47.6220965
  50.9402152  75.0631767  50.5832504  51.1588162  75.9948875  50.6020538
  51.3527926  74.7039741  51.3687308  57.8606370  65.5699852  42.5708193
  57.0507098  65.2246937  42.9463439  58.5490787  65.2607396  43.1595804
  59.7896918  64.6477899  44.1932489  60.3427957  65.0673352  44.8522512
  60.0267005  63.7213647  44.2355445  55.8130018  70.6364973  59.9735253
  55.7126744  71.5859330  59.9047344  55.5951560  70.3083212  59.1011323
  55.0143089  67.8849898  36.5575930  55.8762253  68.2104796  36.8171748
  55.1993433  67.0981394  36.0448996  47.0310505  75.9672237  48.8356119
  46.3373976  75.5526190  48.3226074  47.7783496  76.0092774  48.2389538
  63.1675725  66.7578424  43.7011153  62.5874394  67.4163228  43.3189206
  62.9011658  65.9355769  43.2898571  61.6179292  66.1583482  45.9032474
  62.1179070  66.2700016  45.0946793  62.2614900  65.8544535  46.5433282
  55.6761288  74.0662112  58.7900315  55.1928369  74.8662472  58.9964204
  55.7622227  74.0770056  57.8367759  48.9447247  75.8990491  46.7122134
  48.9217935  75.9978178  45.7604017  49.2547884  76.7455642  47.0339300
  51.6034625  77.9566646  50.8268749  52.5577879  77.9250589  50.7598680
  51.4047149  77.4957270  51.6418974  52.1934007  76.5267762  53.3939546
  53.0126896  77.0211841  53.4174383  52.4670815  75.6099730  53.3657114
  61.9500603  68.9178515  42.7567502  61.0626458  69.2028165  42.5387696
  62.3654593  68.7572278  41.9094779  65.3015140  68.9425036  46.4721841
  66.0775530  69.4321488  46.7446458  64.5763274  69.3683090  46.9293710
  49.9584854  83.4986266  47.8438946  49.8239322  82.7386667  47.2776944
  49.5416916  84.2227166  47.3767735  61.0943817  78.6823189  36.8515522
  61.7979667  78.8873192  37.4673177  60.3706466  79.2499951  37.1164605
  61.9241627  74.4333051  42.9717792  61.8676829  74.8901602  42.1325424
  62.4769970  73.6723735  42.7940635  65.7346433  70.2222782  43.7967911
  65.4783367  69.8219418  44.6276119  65.1099301  70.9366576  43.6718050
  53.1153980  84.3955583  48.0557389  52.9986364  85.3401015  47.9536079
  52.2946426  84.0929144  48.4443188  47.4468921  70.8605896  54.0931743
  48.0927785  70.3504850  54.5818968  47.2386073  71.5974578  54.6675168
  59.9722314  77.9286744  59.5923884  60.8413473  78.1027396  59.2310519
  59.4929065  78.7481160  59.4699613  55.9672532  65.1245941  39.8455639
  55.9551202  66.0687781  40.0023910  56.8595954  64.9416086  39.5515101
  54.1408494  85.0483845  51.2713317  55.0435741  85.0807455  51.5879812
  53.9145864  84.1184296  51.2859653  55.8962096  83.8014831  47.9323396
  54.9457727  83.8016693  47.8187768  56.1994582  83.0547566  47.4159431
  59.7824651  61.7188717  44.1001576  59.0157047  61.1647204  44.2458259
  60.1935356  61.7910586  44.9615728  51.7866412  68.0073513  58.1906757
  52.6497874  67.6510318  58.4010082  51.2131823  67.6687408  58.8782162
  63.8046497  92.1998379  40.6329173  64.5777373  91.6527366  40.4942049
  64.1571896  93.0642628  40.8443635  66.1412775  88.3591045  38.2647623
  66.3938296  87.8372566  37.5031086  65.2037334  88.1957191  38.3674307
  65.8609064  90.2619151  40.4671998  65.7445322  89.5864054  41.1353083
  65.9711324  89.7751525  39.6504151  58.6449846  87.0335751  50.1792393
  58.8957884  87.9182760  50.4449969  59.1809394  86.8540352  49.4067485
  61.3109971  92.8538088  43.0950299  61.8234492  93.6481338  43.2455864
  61.9632684  92.1564379  43.0283900  59.2758888  91.1826742  43.8709869
  60.1134110  91.5923751  43.6543577  59.4537155  90.2426185  43.8410063
  64.4644370  85.5743266  39.4148934  63.6281682  85.9117952  39.7358209
  64.3249139  85.4392246  38.4776071  67.5508655  90.6999349  36.0381411
  66.6435717  90.4688602  36.2372560  68.0479687  89.9036968  36.2255392
  68.4272976  92.3420687  37.8993479  67.9892406  91.6256546  37.4399117
  69.1683417  92.5696802  37.3378571  72.5484204  91.2005069  37.4925537
  71.9313375  90.4751897  37.3958589  72.0800692  91.9614429  37.1492611
  64.3382750  85.4190493  36.6146841  63.4612216  85.2979294  36.2509088
  64.8140503  84.6276571  36.3625730  55.8584890  90.2067653  46.7088348
  56.5455930  89.8929383  46.1209364  55.7033019  91.1109018  46.4355600
  60.8435211  95.7162646  50.2601372  61.4288648  94.9706334  50.3929276
  60.6460050  96.0266603  51.1438036  55.4352866  88.2868246  48.9805815
  55.4736966  87.7531837  49.7742933  54.9293159  87.7603452  48.3616793
  59.2535262  89.6830244  51.1984580  58.7088730  90.4590052  51.3304855
  60.1314612  90.0301049  51.0403702  60.4857898  96.6965569  46.1225132
  61.3115917  96.3969341  45.7423775  60.1351950  95.9273191  46.5714921
  58.6866503  94.6151896  47.0814066  57.8498411  94.1874070  46.8998067
  58.6590148  94.8084339  48.0184857  62.7705571  90.6261138  42.6742335
  62.5251613  89.7223468  42.8722545  62.9401485  90.6278289  41.7321813
  74.3633620  96.6947112  37.2305543  74.2847251  96.3606975  38.1241301
  75.1843286  97.1868879  37.2297016  68.8995142  88.4304904  36.4809066
  69.8454246  88.3011112  36.5497484  68.5209387  87.6919566  36.9578494
  67.0838059  86.3554880  36.4163951  66.1769514  86.0587993  36.4926665
  67.3614040  86.0584698  35.5498237  58.0015999  87.6761244  46.8662998
  57.6818784  86.8226552  46.5737372  57.4549427  87.8909822  47.6220965
  65.8536843  83.2141815  36.5575930  66.7156007  83.5396714  36.8171748
  66.0387188  82.4273311  36.0448996  57.8704259  91.2964155  48.8356119
  57.1767731  90.8818108  48.3226074  58.6177250  91.3384692  48.2389538
  59.7841002  91.2282409  46.7122134  59.7611690  91.3270096  45.7604017
  60.0941638  92.0747560  47.0339300  60.7978608  98.8278183  47.8438946
  60.6633076  98.0678584  47.2776944  60.3810671  99.5519083  47.3767735
  71.9337571  94.0115107  36.8515522  72.6373422  94.2165109  37.4673177
  71.2100220  94.5791869  37.1164605  73.8424269  94.4497636  38.9013982
  74.6769873  94.0178835  38.7191457  73.6808612  94.2779650  39.8290876
  58.2862676  86.1897814  54.0931743  58.9321540  85.6796768  54.5818968
  58.0779827  86.9266495  54.6675168  80.7184625 110.4401159  40.2342039
  80.0672604 111.0255240  39.8476053  81.5128987 110.9707354  40.2937076
  74.6440252 107.5290297  40.6329173  75.4171128 106.9819284  40.4942049
  74.9965651 108.3934546  40.8443635  76.9806530 103.6882963  38.2647623
  77.2332050 103.1664484  37.5031086  76.0431089 103.5249108  38.3674307
  82.1959890 108.1291591  40.7711023  81.5605723 108.2026218  41.4831928
  81.8657296 108.7185190  40.0930103  76.7002818 105.5911069  40.4671998
  76.5839076 104.9155972  41.1353083  76.8105078 105.1043443  39.6504151
  78.6839846 100.0811115  39.1680036  78.8514249 100.9491352  39.5350507
  78.4937015 100.2438397  38.2441325  78.6629067 102.5368773  40.1526703
  78.5428692 102.9825824  40.9912183  77.9681655 102.8854091  39.5940241
  76.4235959 115.3072415  43.8016834  76.3459989 116.2580240  43.8805315
  75.8197603 114.9618287  44.4591760  93.3075700 105.7941165  46.8467654
  92.5539408 105.2248563  46.6911659  93.4423241 105.7603830  47.7938289
  78.6974328 110.6654568  42.5222374  78.5620003 111.5106103  42.9507222
  79.2384141 110.8673845  41.7588308  72.1503725 108.1830006  43.0950299
  72.6628246 108.9773256  43.2455864  72.8026438 107.4856296  43.0283900
  80.3242804 111.2878134  56.6522716  79.8806659 110.5014513  56.3343620
  80.9860018 111.4757285  55.9866607  82.4224043 111.5680934  54.6804117
  82.4042518 112.3889815  54.1884386  83.3443963 111.4435009  54.9054258
  82.0117074 104.1793741  39.5593702  81.4963698 104.9498345  39.7982090
  81.7394383 103.5058877  40.1826764  80.2449809 108.2111056  43.0346438
  79.7171171 107.4763816  42.7219675  79.7437312 108.9885732  42.7886406
  75.3038124 100.9035183  39.4148934  74.4675436 101.2409870  39.7358209
  75.1642894 100.7684163  38.4776071  78.3902410 106.0291266  36.0381411
  77.4829471 105.7980520  36.2372560  78.8873442 105.2328886  36.2255392
  81.2970488 114.7388774  38.9578097  80.6232187 115.0420470  39.5663055
  81.6836310 115.5417854  38.6083554  79.5690643 106.1303861  40.5605401
  78.6601862 105.8462894  40.6577870  79.5985727 106.5502940  39.7008707
  79.2666731 107.6712605  37.8993479  78.8286161 106.9548464  37.4399117
  80.0077172 107.8988720  37.3378571  79.4961704 114.9068446  41.1725176
  79.6713459 114.4356489  41.9870799  78.8094492 115.5334212  41.4006437
  83.3877958 106.5296987  37.4925537  82.7707129 105.8043815  37.3958589
  82.9194447 107.2906347  37.1492611  74.0622789 118.0557809  47.9465036
  74.3019387 118.6876333  48.6244055  73.2191985 117.7045849  48.2330395
  75.1776504 100.7482411  36.6146841  74.3005971 100.6271212  36.2509088
  75.6534257  99.9568489  36.3625730  78.5750651 113.8636931  50.3506540
  78.5020822 114.6691903  50.8625845  78.1328044 114.0628897  49.5254561
  78.3640430 113.1008701  43.8609362  77.5807952 113.6430381  43.9547586
  79.0633176 113.6182681  44.2603603  80.8469708 114.1022509  45.2550990
  81.0292102 113.2844165  45.7178742  81.6702694 114.3190202  44.8175880
  81.1811873 113.0290694  42.5166039  81.7099640 112.5183149  41.9036201
  81.4440093 112.7133225  43.3811572  74.5367621 114.0805811  45.2763815
  73.8677996 114.5651939  44.7927855  74.3980491 114.3275032  46.1907193
  78.6772890 116.1149555  51.8746473  79.2291198 116.2781176  52.6395558
  79.0179083 116.7053992  51.2026498  81.8141277 114.0631530  48.8610155
  81.6892416 113.2621270  48.3521101  82.4720368 114.5577724  48.3724125
  83.8776185 111.8640550  50.4889705  82.9306521 111.7445901  50.4168032
  84.2258958 110.9763048  50.5715967  84.4856740 112.4821825  47.7758930
  85.4103288 112.2764687  47.6383381  84.3172044 112.2338226  48.6848272
  84.2752057 113.0007493  43.1321022  84.4488934 112.4353915  42.3794874
  84.7680948 113.8008388  42.9500512  85.2627229 112.3174257  40.2317920
  85.9578134 112.9380950  40.4505235  85.6050379 111.4669608  40.5070298
  78.8238701 113.6808036  53.8895127  79.1325827 113.4357183  54.7617827
  79.6214183 113.8854675  53.4013998  78.8459313 115.8345946  46.1200504
  78.4064303 115.3422325  46.8133361  79.5967430 115.2918914  45.8792579
  75.8546692 109.9287878  41.6681266  76.0034812 110.6123343  41.0147939
  76.6613136 109.9092968  42.1830722  73.6099325 105.9553056  42.6742335
  73.3645367 105.0515386  42.8722545  73.7795240 105.9570206  41.7321813
  79.3542098 112.4236009  39.1393014  78.7816065 113.0426196  38.6863485
  79.9274891 112.9735370  39.6732935  82.5739357 112.7073159  40.2701596
  83.5070031 112.6418721  40.4734471  82.4862570 113.5429426  39.8116128
  85.2027374 112.0239029  37.2305543  85.1241006 111.6898893  38.1241301
  86.0237041 112.5160797  37.2297016  79.7388896 103.7596822  36.4809066
  80.6848001 103.6303030  36.5497484  79.3603141 103.0211483  36.9578494
  77.9231813 101.6846798  36.4163951  77.0163269 101.3879911  36.4926665
  78.2007794 101.3876616  35.5498237  76.6930598  98.5433733  36.5575930
  77.5549762  98.8688631  36.8171748  76.8780942  97.7565229  36.0448996
  71.6372363 114.1570101  47.8438946  71.5026831 113.3970502  47.2776944
  71.2204425 114.8811001  47.3767735  82.7731326 109.3407025  36.8515522
  83.4767176 109.5457027  37.4673177  82.0493975 109.9083787  37.1164605
  91.7246280 103.6202691  46.3039203  91.1645838 103.6895880  47.0770765
  91.1189783 103.4443676  45.5838699  74.7941489 115.0539418  48.0557389
  74.6773873 115.9984851  47.9536079  73.9733935 114.7512980  48.4443188
  84.6818023 109.7789554  38.9013982  85.5163627 109.3470752  38.7191457
  84.5202366 109.6071568  39.8290876  75.8196003 115.7067680  51.2713317
  76.7223250 115.7391290  51.5879812  75.5933373 114.7768131  51.2859653
  77.5749605 114.4598667  47.9323396  76.6245236 114.4600528  47.8187768
  77.8782091 113.7131401  47.4159431  93.3102298 120.2959205  48.9969158
  93.9480708 120.1765952  48.2932499  93.1923141 121.2440049  49.0557111
  90.1192005 120.2486633  48.9330683  89.7810516 120.1327698  48.0451218
  90.9881773 119.8477798  48.9131689  85.9778820 122.1022109  44.9227574
  85.4143685 122.0112046  44.1543862  85.8631215 121.2822014  45.4030067
  90.6011788 121.4021485  54.8916889  90.5900428 121.0074283  54.0197392
  90.7632427 120.6687557  55.4850660  83.5243252 123.5973301  47.7611795
  84.3164544 123.2564126  47.3458094  83.7639902 123.7068276  48.6813948
  91.5578379 125.7693077  40.2342039  90.9066359 126.3547158  39.8476053
  92.3522742 126.2999272  40.2937076  85.4834006 122.8582214  40.6329173
  86.2564882 122.3111201  40.4942049  85.8359405 123.7226464  40.8443635
  87.3219049 124.1858597  53.8396073  87.0308915 125.0904227  53.7242739
  87.9576033 124.2275124  54.5540142  88.2475256 121.5635445  50.4297432
  88.8438828 121.3391467  49.7154395  88.3050227 120.8220191  51.0322880
  87.8200284 119.0174880  38.2647623  88.0725805 118.4956402  37.5031086
  86.8824843 118.8541026  38.3674307  92.8643567 118.0210659  46.0722367
  93.6506656 117.6030082  45.7212784  93.1282271 118.9256751  46.2404015
  93.0353644 123.4583509  40.7711023  92.3999477 123.5318136  41.4831928
  92.7051051 124.0477108  40.0930103  98.2651994 117.9585892  46.9755345
  98.9977166 117.3885109  47.2093174  97.5091350 117.5707492  47.4161851
  87.5396573 120.9202986  40.4671998  87.4232831 120.2447890  41.1353083
  87.6498833 120.4335360  39.6504151  89.8828114 120.3813133  44.1718687
  89.5186321 119.8543754  44.8831609  90.7395230 119.9911603  43.9985173
  95.7877414 111.6707466  51.4349954  95.4560739 112.5402877  51.2111169
  95.1923028 111.3543750  52.1143984  89.5233601 115.4103033  39.1680036
  89.6908003 116.2783270  39.5350507  89.3330770 115.5730315  38.2441325
  92.2808934 123.8720012  50.8345866  91.9809657 124.7745051  50.7261674
  91.9359993 123.6052195  51.6867019  85.7321415 120.3233809  46.8682571
  84.8071912 120.1910023  47.0760263  85.9805829 121.1028028  47.3652513
  95.6806078 116.3902552  48.5143304  94.7722955 116.3217961  48.2202065
  95.6293673 116.8674497  49.3425129  89.5022822 117.8660691  40.1526703
  89.3822447 118.3117741  40.9912183  88.8075410 118.2146008  39.5940241
  83.0930226 119.9667082  47.7026360  83.2222608 120.2201561  48.6165772
  82.4127678 120.5594790  47.3831015  87.2629714 130.6364332  43.8016834
  87.1853743 131.5872158  43.8805315  86.6591357 130.2910205  44.4591760
  89.7546943 117.8092198  56.4578201  88.9780278 118.3686118  56.4481066
  90.3937507 118.2948981  56.9793071  97.5467724 114.5918991  50.2921178
  96.9042104 114.8851524  49.6460972  97.0422653 114.4771911  51.0974374
  95.2007888 118.3382164  40.9807037  96.1125744 118.5709551  40.8054734
  94.6917535 118.9219208  40.4182115  88.0093316 120.6177651  56.0196168
  88.7508000 121.1562695  55.7430992  87.3030301 121.2443940  56.1767720
  93.4848655 122.7606792  54.6168329  93.8932011 122.3189202  53.8722962
  92.7625917 122.1859419  54.8702522  89.8379725 117.6979398  51.9901886
  90.6840921 118.1218812  52.1336535  89.7778363 117.0413023  52.6840449
  93.8077470 123.3207982  48.3720618  93.1786332 123.4853696  47.6696686
  93.4203132 123.7349592  49.1431582  97.6866702 124.2562420  45.7264982
  97.0017740 124.6361322  45.1762015  97.7710551 124.8657747  46.4596930
  92.9879171 115.3583767  53.6483060  92.7440103 116.1125827  53.1117336
  93.2639101 115.7369114  54.4830307  94.9417634 121.9022379  52.3260326
  95.1534529 122.5454139  51.6494707  94.8947382 121.0684696  51.8582256
  92.5443863 114.5140200  49.2296898  91.6828342 114.8121453  49.5213635
  92.5706297 114.7310599  48.2977930  89.3605432 123.0582390  45.6370703
  89.8243777 123.3370093  44.8475326  89.0962230 122.1565835  45.4543794
  86.2529513 122.6053872  48.5750467  86.8230870 123.0341140  47.9367951
  86.8437625 122.3236457  49.2734652  88.2974318 119.1805543  42.4460269
  88.9998361 119.6326586  42.9134195  87.9654946 118.5389362  43.0740162
  86.7454680 117.7717299  56.8211478  86.1153340 118.4533580  57.0546875
  86.6390767 117.6600381  55.8764616  82.0399652 117.4389095  47.7477402
  81.2498706 117.6946624  47.2717513  82.5310899 118.2537433  47.8529443
  96.0563461 124.7794335  50.4982683  96.8780905 124.3774522  50.2165365
  96.0525864 124.6762569  51.4498799  83.9914397 117.8033675  44.7060879
  83.1945561 117.9152369  45.2244374  83.7639990 118.1420327  43.8401769
  89.8220065 124.3278378  52.6543393  89.8864497 124.7898785  53.4901565
  89.1130989 123.6975743  52.7825703  80.3237355 117.6919586  50.1792393
  80.5745393 118.5766596  50.4449969  80.8596903 117.5124187  49.4067485
 104.1469455 121.1233083  46.8467654 103.3933163 120.5540481  46.6911659
 104.2816996 121.0895748  47.7938289  89.5368083 125.9946485  42.5222374
  89.4013757 126.8398021  42.9507222  90.0777895 126.1965763  41.7588308
  82.9897480 123.5121923  43.0950299  83.5022001 124.3065174  43.2455864
  83.6420193 122.8148214  43.0283900  84.7992365 126.6287680  45.1773052
  84.9758993 127.5505644  44.9894036  85.5949198 126.3146099  45.6067432
  88.9403383 113.4895944  56.7756986  89.6813097 114.0903097  56.6961448
  89.1721306 112.7473582  56.2175028  84.0844721 118.6752312  55.0535215
  83.9698236 117.7737569  55.3542314  83.2289239 118.9216008  54.7020032
  91.1636559 126.6170052  56.6522716  90.7200413 125.8306430  56.3343620
  91.8253773 126.8049202  55.9866607  85.9223680 128.1465853  51.1783394
  86.4731105 128.0182917  50.4060388  85.0835156 128.4460743  50.8278287
  93.2617797 126.8972852  54.6804117  93.2436272 127.7181733  54.1884386
  94.1837717 126.7726927  54.9054258  89.7190851 124.4116981  55.5227625
  90.2519188 123.6505269  55.2926933  89.1904932 124.1190633  56.2651780
  80.9546397 121.8410578  43.8709869  81.7921619 122.2507586  43.6543577
  81.1324664 120.9010020  43.8410063  92.8510829 119.5085658  39.5593702
  92.3357452 120.2790263  39.7982090  92.5788137 118.8350795  40.1826764
  90.4357940 114.3535359  44.6178941  89.5799536 113.9642210  44.4384579
  90.8484892 114.4327320  43.7578726  91.9657087 111.8881702  49.0170500
  91.4621882 111.8511838  48.2038306  92.2587693 112.7974445  49.0767157
  88.2099972 111.9720432  48.0236682  89.0752969 111.7763241  47.6642572
  88.2777481 111.7430784  48.9506039  97.8245103 122.2618013  41.4946876
  97.0474546 121.9229173  41.0502038  98.5036584 122.2670636  40.8201841
  92.6397132 117.3812750  41.3853484  92.3347268 117.6958900  42.2363627
  93.5927574 117.4594170  41.4280817  91.0843564 123.5402974  43.0346438
  90.5564925 122.8055733  42.7219675  90.5831067 124.3177650  42.7886406
  96.0636410 121.7351994  48.1513484  95.4060084 122.4251256  48.2393612
  96.8676809 122.1248426  48.4947470  85.8162292 114.2022640  45.3953049
  86.3906043 113.9797822  44.6626242  86.4033274 114.2711335  46.1481650
  94.8741869 120.0896367  46.2017426  95.3873750 120.7226359  46.7039135
  95.5243093 119.4897562  45.8360786  86.1431879 116.2327101  39.4148934
  85.3069191 116.5701788  39.7358209  86.0036648 116.0976081  38.4776071
  88.1184959 111.0763889  44.1228118  87.4649372 110.7612906  43.4984733
  88.0765433 110.4539629  44.8487941  89.2296164 121.3583184  36.0381411
  88.3223226 121.1272438  36.2372560  89.7267196 120.5620803  36.2255392
  92.1364243 130.0680691  38.9578097  91.4625942 130.3712388  39.5663055
  92.5230065 130.8709772  38.6083554  91.3522700 117.5645823  48.4475766
  90.4345261 117.7860770  48.2897454  91.7682843 117.6392133  47.5887473
  92.1357747 118.9637238  43.5778446  92.8829566 119.4758635  43.2685568
  92.4049337 118.6421291  44.4382840  90.4084398 121.4595779  40.5605401
  89.4995617 121.1754812  40.6577870  90.4379481 121.8794857  39.7008707
  95.6403665 125.0702368  44.3296568  95.1865992 124.2293278  44.3861759
  95.0097632 125.7063767  44.6671348  94.5836584 115.9994354  45.5597236
  93.8459341 115.4871741  45.8907478  94.8363358 115.5594736  44.7480513
  94.0836604 126.9078865  45.2646386  94.3759579 127.4683922  44.5458752
  94.5935225 127.2007426  46.0199545  94.6848212 108.7770606  46.1539005
  94.9907089 107.9167970  45.8664920  95.4100817 109.3688227  45.9537999
  80.9772568 119.1801293  44.5420603  80.7796968 118.5870654  43.8171669
  80.4219232 118.8753503  45.2596542  88.9569292 119.0724400  46.6615196
  89.0117901 118.1198236  46.5857673  88.1460494 119.2283839  47.1456494
  90.1060485 123.0004523  37.8993479  89.6679915 122.2840382  37.4399117
  90.8470926 123.2280637  37.3378571  86.8961651 117.6901459  44.4205575
  86.0829517 117.9895630  44.8270767  87.3920646 117.2957148  45.1380057
  89.0470229 127.6859216  46.3539840  89.0046408 127.9120063  45.4248372
  89.9632928 127.4522591  46.5025641  92.4935863 118.1543284  53.2520469
  92.8485251 118.3814757  54.1114934  93.1407994 118.4861661  52.6297724
  98.2233600 121.2761720  43.9569798  98.0851499 121.4663316  43.0290987
  97.8669819 122.0381102  44.4137849  86.3875726 115.2619815  50.0366810
  87.0275106 115.1208574  49.3389773  85.5553257 114.9754328  49.6605412
  98.2502980 123.3438247  48.9681069  98.6839486 123.2513536  49.8164123
  98.9634560 123.3195747  48.3301085  87.1636030 124.5622245  46.1501802
  87.9576629 124.0672565  45.9484377  86.4527723 124.0340108  45.7869508
  91.9830875 126.9440341  50.5014170  92.0367897 127.5131277  51.2691886
  91.1145656 127.1142226  50.1368207  83.4718794 118.7065327  42.2261555
  82.5416382 118.6449782  42.4431517  83.5676266 118.1841280  41.4298196
  83.3904343 115.2320140  44.8139797  83.6511160 116.1465473  44.7048957
  84.2121515 114.7644582  44.9636409  84.8629268 116.6457897  51.9838621
  85.5352321 116.4375259  51.3351270  84.0359055 116.4479983  51.5443853
  99.1118529 123.3861947  51.5013955  99.3054419 124.2907758  51.7473230
  99.0119147 122.9269366  52.3352540  90.7654840 113.2719838  54.0004282
  90.1182755 113.9709788  53.9068758  91.5355855 113.7055982  54.3680530
  94.1733638 123.5368690  57.0754835  94.0219144 123.3079242  56.1584919
  94.1638317 124.4939291  57.0886180  90.9418974 121.1100603  52.0601102
  91.8711034 121.2611762  51.8870069  90.5210004 121.1984624  51.2049748
  89.7407306 125.1351267  49.8299639  89.6018392 124.7670052  50.7025577
  88.9521902 125.6498907  49.6583597  90.3355458 130.2360364  41.1725176
  90.5107214 129.7648407  41.9870799  89.6488246 130.8626130  41.4006437
  91.2912521 124.5132870  47.2188477  90.9562354 124.4733640  48.1146127
  90.7916467 123.8477586  46.7458887  85.2656765 119.9200500  52.7441058
  85.1276563 119.1880739  53.3452597  86.1761689 119.8309400  52.4625246
  94.2271713 121.8588904  37.4925537  93.6100884 121.1335732  37.3958589
  93.7588201 122.6198265  37.1492611  87.8939066 119.6320459  52.2324738
  88.6038684 118.9913651  52.1911356  87.8508374 119.8833354  53.1550919
  95.8825845 126.5687813  55.1531317  95.8238391 125.8847033  54.4861900
  96.2845363 127.3106803  54.7011943  86.6068000 116.6185677  54.0520377
  86.0705357 116.1676416  54.7041974  86.0184708 116.7531586  53.3090842
  84.9016543 133.3849726  47.9465036  85.1413142 134.0168251  48.6244055
  84.0585740 133.0337766  48.2330395  86.0170259 116.0774329  36.6146841
  85.1399725 115.9563129  36.2509088  86.4928012 115.2860407  36.3625730
  95.8843252 124.5327397  53.3845297  94.9970031 124.1953318  53.5071696
  96.4541803 123.8010428  53.6214062  77.5372399 120.8651488  46.7088348
  78.2243439 120.5513218  46.1209364  77.3820528 121.7692853  46.4355600
  82.3407121 115.7541685  51.1373372  82.2565310 115.1467354  50.4023782
  81.5189828 116.2450703  51.1382868  89.4144405 129.1928849  50.3506540
  89.3414577 129.9983820  50.8625845  88.9721798 129.3920815  49.5254561
  89.2034185 128.4300619  43.8609362  88.4201707 128.9722299  43.9547586
  89.9026930 128.9474599  44.2603603  92.5130835 114.2395248  46.5043567
  93.0099535 113.4865211  46.1844637  91.7417816 114.2759565  45.9386776
 100.3660592 119.9435614  48.1461858 100.3550469 120.8260329  47.7755792
  99.4977972 119.5907165  47.9516396  91.8743089 129.0915683  52.5064699
  92.5871061 129.7263148  52.4340600  91.3833117 129.1879549  51.6904701
  93.5960616 122.9966936  44.0781990  92.6616894 123.1168398  43.9086695
  93.7737284 122.0939402  43.8142000  89.0965804 116.3812631  46.2315252
  88.7263591 115.8283672  46.9196157  89.5924896 115.7770765  45.6790252
  96.9833167 118.8384255  44.6132025  97.4493619 119.6712246  44.5392327
  97.4340668 118.3729236  45.3177283  86.9255002 126.8410126  53.3270270
  87.6264462 127.4746609  53.4799664  86.4550117 127.1824858  52.5665909
  95.0509398 125.1828076  41.6118177  95.3269242 125.0684671  42.5212051
  94.1813897 124.7845561  41.5730350  94.9549830 111.2064842  48.6522926
  94.0412910 111.4369069  48.8205133  95.3842931 111.2903286  49.5036958
  94.7256288 119.3954734  51.1522820  94.0727739 119.6430641  50.4975273
  95.1036668 118.5818872  50.8185297  91.6863462 129.4314427  45.2550990
  91.8685857 128.6136083  45.7178742  92.5096448 129.6482119  44.8175880
  92.0205628 128.3582612  42.5166039  92.5493394 127.8475067  41.9036201
  92.2833847 128.0425142  43.3811572  90.7743861 120.1374545  57.6388857
  90.0984498 120.0368674  58.3091232  91.5971495 119.9813759  58.1024854
  82.5222720 126.3746481  50.2601372  83.1076157 125.6290169  50.3929276
  82.3247559 126.6850438  51.1438036  85.3761376 129.4097729  45.2763815
  84.7071751 129.8943856  44.7927855  85.2374245 129.6566949  46.1907193
  77.1140375 118.9452082  48.9805815  77.1524475 118.4115672  49.7742933
  76.6080668 118.4187287  48.3616793  89.5166644 131.4441472  51.8746473
  90.0684952 131.6073094  52.6395558  89.8572838 132.0345910  51.2026498
  84.4931137 113.7916622  52.4768358  84.5572464 114.6531453  52.0645755
  84.4298258 113.1790624  51.7440716  83.9683410 115.8639755  56.1241392
  84.5955449 115.4816832  56.7378916  83.1111329 115.6453957  56.4897084
  94.3677519 126.2702730  57.7295127  94.9117422 126.8832688  57.2350082
  93.7864363 126.8282308  58.2462140  80.7448953 117.6716184  42.0559747
  81.0402394 116.7626862  42.0026800  79.8436988 117.6503923  41.7340749
  92.6535031 129.3923448  48.8610155  92.5286171 128.5913188  48.3521101
  93.3114123 129.8869641  48.3724125  84.2743200 115.7472180  48.0387295
  83.5529785 116.3608148  47.8994769  85.0636455 116.2829945  47.9603941
  94.7169940 127.1932468  50.4889705  93.7700275 127.0737819  50.4168032
  95.0652713 126.3054966  50.5715967  87.0769513 113.0826607  54.3127947
  87.6003915 113.3288903  55.0754256  86.8581846 113.9146642  53.8931084
  82.4736794 115.3530281  42.1799072  82.1449500 114.4727660  41.9974178
  82.8276165 115.2977950  43.0675461  91.7216373 126.9885184  46.6894057
  91.5741336 126.0601892  46.8701627  92.5469867 127.0105275  46.2051133
  85.5878617 115.6403251  42.5474550  85.9274690 116.1689172  41.8253158
  86.0350738 115.9783657  43.3233116  95.3250495 127.8113743  47.7758930
  96.2497042 127.6056604  47.6383381  95.1565798 127.5630144  48.6848272
  88.2822058 114.0240302  51.9977618  87.9418879 113.2248115  52.3998298
  87.5761065 114.3242013  51.4254451  87.5746765 114.1377873  40.7467842
  88.2955127 114.5159126  40.2431559  86.9512069 114.8566750  40.8502820
  91.7177887 114.8423022  41.6826175  91.9341502 115.7247660  41.3815003
  91.2371955 114.4509235  40.9531817  86.4577109 117.8008735  48.2596919
  86.3121690 118.1149038  49.1521201  85.9802312 118.4193635  47.7067818
  88.3173492 114.7911283  48.3077809  88.3035060 113.8952376  47.9710107
  89.0345920 114.7981947  48.9416095  90.1699622 115.2248623  50.3530936
  89.9117400 116.1465694  50.3515267  89.6384663 114.8279058  51.0431400
  95.1145811 128.3299410  43.1321022  95.2882689 127.7645833  42.3794874
  95.6074702 129.1300305  42.9500512  80.9322771 120.3414079  51.1984580
  80.3876239 121.1173887  51.3304855  81.8102121 120.6884884  51.0403702
  87.7210388 113.6725663  43.5765379  87.8426299 112.7442309  43.7756266
  87.4312430 113.6864349  42.6643694  90.5901578 111.3580574  46.7132099
  90.6123275 111.4219907  45.7584078  91.0069637 110.5185082  46.9072605
 100.9685202 121.0935833  44.7511321 101.4116348 120.3443158  44.3530445
 100.0911713 121.0845970  44.3685053  96.1020984 127.6466175  40.2317920
  96.7971888 128.2672867  40.4505235  96.4444134 126.7961526  40.5070298
  81.7188793 119.4683976  54.0914737  80.9770529 119.6166611  54.6779368
  81.3981537 119.7292241  53.2281487  98.0012407 125.0965880  41.7605251
  98.5263731 125.4353153  41.0354571  97.9134759 124.1612896  41.5768385
  89.6632455 129.0099954  53.8895127  89.9719582 128.7649101  54.7617827
  90.4607938 129.2146592  53.4013998  89.6853068 131.1637864  46.1200504
  89.2458058 130.6714242  46.8133361  90.4361185 130.6210831  45.8792579
  82.1645407 127.3549404  46.1225132  82.9903426 127.0553176  45.7423775
  81.8139459 126.5857027  46.5714921  87.1326940 126.7075873  48.1922806
  86.5106949 126.0446578  47.8925033  87.8031807 126.7337005  47.5096453
  80.3654012 125.2735731  47.0814066  79.5285920 124.8457905  46.8998067
  80.3377657 125.4668174  48.0184857  87.2051467 115.1857661  57.7855312
  87.2539623 116.0619783  57.4033081  87.7473981 114.6435054  57.2126955
  97.6906313 125.7298784  57.0656449  96.9001857 125.7122923  56.5260948
  97.4539667 126.2687078  57.8205485  97.8104188 122.5791250  54.3789177
  97.8602193 122.4141258  55.3204700  97.7018111 121.7118509  53.9887058
  86.6940447 125.2579796  41.6681266  86.8428567 125.9415260  41.0147939
  87.5006890 125.2384886  42.1830722  95.1007950 118.5622178  55.6948484
  96.0017813 118.4228643  55.4032482  95.1755925 118.7276633  56.6346661
  89.4350756 115.9389033  54.5401670  88.5654065 116.2322599  54.2684259
  89.6710236 116.5229478  55.2608934  99.3122385 124.9988192  54.6231199
  99.0207193 125.3618172  55.4594660  98.6994516 124.2855200  54.4444531
 100.5118067 122.5641072  47.1433769 101.3464958 123.0030876  47.3071329
 100.6477196 122.0879725  46.3242015  97.5609573 120.1220806  53.0911257
  98.0363695 120.3148453  52.2830108  96.6375138 120.1779992  52.8454640
  84.4493080 121.2844974  42.6742335  84.2039122 120.3807304  42.8722545
  84.6188994 121.2862124  41.7321813  92.1389789 112.1568650  52.0567091
  92.6571733 112.8929677  51.7313579  91.7844922 112.4632643  52.8913850
  83.7188727 117.0173331  40.1728496  83.0257972 117.0917686  39.5168532
  83.4740479 116.2533675  40.6950013  90.1935852 127.7527926  39.1393014
  89.6209819 128.3718114  38.6863485  90.7668646 128.3027288  39.6732935
  96.2611242 116.9986567  51.3239562  97.2128665 117.0984664  51.3451786
  96.0914692 116.2064835  51.8337647  94.2825621 114.0842150  51.5098963
  93.6875554 114.3647162  50.8145452  93.9975318 114.5736051  52.2815704
  93.4133112 128.0365077  40.2701596  94.3463785 127.9710638  40.4734471
  93.3256325 128.8721343  39.8116128  96.0421129 127.3530947  37.2305543
  95.9634760 127.0190811  38.1241301  96.8630795 127.8452715  37.2297016
  98.7399320 120.2192686  50.4381862  98.7075640 119.2808687  50.6241546
  99.3499943 120.2976723  49.7047687  90.5782651 119.0888739  36.4809066
  91.5241755 118.9594947  36.5497484  90.1996896 118.3503401  36.9578494
  98.8893808 117.0103730  50.4840145  98.3732857 116.2262186  50.2970074
  99.7733757 116.6822446  50.6486665  96.5504535 110.7544745  46.4435958
  96.3529356 110.4459833  47.3279290  97.1604241 111.4806384  46.5733888
 104.5575870 121.2808693  49.5787899 105.2879258 121.0193981  50.1395602
 103.9482815 120.5437415  49.6189967 102.6391167 119.4216556  50.1762350
 101.9124330 119.2872521  49.5678842 102.2238454 119.7293384  50.9819068
  90.4621343 123.1406485  57.9409723  91.3824353 123.3185084  58.1349769
  90.4270926 122.1962531  57.7889422  88.7625568 117.0138716  36.4163951
  87.8557023 116.7171828  36.4926665  89.0401549 116.7168534  35.5498237
  79.6803508 118.3345079  46.8662998  79.3606293 117.4810387  46.5737372
  79.1336936 118.5493657  47.6220965  83.4583416 121.0507520  50.5832504
  83.6769425 121.9824628  50.6020538  83.8709190 120.6915494  51.3687308
  90.3787634 111.5575605  42.5708193  89.5688362 111.2122690  42.9463439
  91.0672050 111.2483149  43.1595804  92.3078182 110.6353652  44.1932489
  92.8609220 111.0549106  44.8522512  92.5448268 109.7089400  44.2355445
  88.3311281 116.6240726  59.9735253  88.2308008 117.5735083  59.9047344
  88.1132823 116.2958965  59.1011323  87.5324352 113.8725651  36.5575930
  88.3943516 114.1980549  36.8171748  87.7174697 113.0857147  36.0448996
  79.5491768 121.9547990  48.8356119  78.8555240 121.5401943  48.3226074
  80.2964759 121.9968527  48.2389538  95.6856989 112.7454177  43.7011153
  95.1055658 113.4038981  43.3189206  95.4192922 111.9231522  43.2898571
  94.1360555 112.1459235  45.9032474  94.6360334 112.2575769  45.0946793
  94.7796163 111.8420288  46.5433282  88.1942551 120.0537865  58.7900315
  87.7109633 120.8538225  58.9964204  88.2803490 120.0645809  57.8367759
  81.4628511 121.8866244  46.7122134  81.4399199 121.9853932  45.7604017
  81.7729147 122.7331395  47.0339300  84.1215889 123.9442399  50.8268749
  85.0759142 123.9126342  50.7598680  83.9228412 123.4833023  51.6418974
  84.7115271 122.5143515  53.3939546  85.5308160 123.0087594  53.4174383
  84.9852078 121.5975483  53.3657114  94.4681867 114.9054268  42.7567502
  93.5807722 115.1903918  42.5387696  94.8835856 114.7448031  41.9094779
  97.8196403 114.9300789  46.4721841  98.5956793 115.4197241  46.7446458
  97.0944537 115.3558843  46.9293710 100.2568962 115.6428408  47.5295782
 100.8513452 115.4024144  46.8189090 100.3295545 114.9235538  48.1569318
  82.4766117 129.4862019  47.8438946  82.3420585 128.7262420  47.2776944
  82.0598180 130.2102919  47.3767735  93.6125080 124.6698942  36.8515522
  94.3160930 124.8748945  37.4673177  92.8887729 125.2375704  37.1164605
  94.4422891 120.4208804  42.9717792  94.3858092 120.8777355  42.1325424
  94.9951233 119.6599488  42.7940635  98.2527697 116.2098535  43.7967911
  97.9964631 115.8095171  44.6276119  97.6280565 116.9242329  43.6718050
 102.5640034 118.9494609  46.3039203 102.0039592 119.0187798  47.0770765
 101.9583538 118.7735593  45.5838699  85.6335243 130.3831336  48.0557389
  85.5167627 131.3276768  47.9536079  84.8127690 130.0804897  48.4443188
  95.5211778 125.1081472  38.9013982  96.3557382 124.6762670  38.7191457
  95.3596121 124.9363485  39.8290876  95.1757670 121.6113585  40.2670321
  95.1206474 121.4457856  39.3258765  94.5503725 122.3189618  40.4232511
  79.9650185 116.8481649  54.0931743  80.6109049 116.3380603  54.5818968
  79.7567336 117.5850331  54.6675168  92.4903577 123.9162497  59.5923884
  93.3594737 124.0903149  59.2310519  92.0110329 124.7356913  59.4699613
  88.4853795 111.1121694  39.8455639  88.4732465 112.0563534  40.0023910
  89.3777217 110.9291839  39.5515101  86.6589757 131.0359598  51.2713317
  87.5617004 131.0683208  51.5879812  86.4327127 130.1060049  51.2859653
  88.4143359 129.7890584  47.9323396  87.4638990 129.7892446  47.8187768
  88.7175846 129.0423319  47.4159431  92.3005915 107.7064470  44.1001576
  91.5338311 107.1522957  44.2458259  92.7116620 107.7786339  44.9615728
 104.1496053 135.6251123  48.9969158 104.7874463 135.5057870  48.2932499
 104.0316896 136.5731967  49.0557111 100.9585759 135.5778551  48.9330683
 100.6204271 135.4619615  48.0451218 101.8275527 135.1769716  48.9131689
  96.8172575 137.4314027  44.9227574  96.2537440 137.3403964  44.1543862
  96.7024970 136.6113932  45.4030067 101.4405542 136.7313402  54.8916889
 101.4294183 136.3366201  54.0197392 101.6026182 135.9979475  55.4850660
  94.3637007 138.9265219  47.7611795  95.1558299 138.5856043  47.3458094
  94.6033657 139.0360194  48.6813948 102.3972134 141.0984995  40.2342039
 101.7460113 141.6839075  39.8476053 103.1916496 141.6291190  40.2937076
  96.3227761 138.1874132  40.6329173  97.0958637 137.6403119  40.4942049
  96.6753160 139.0518381  40.8443635  98.1612803 139.5150514  53.8396073
  97.8702669 140.4196145  53.7242739  98.7969788 139.5567042  54.5540142
  99.0869010 136.8927363  50.4297432  99.6832582 136.6683385  49.7154395
  99.1443982 136.1512108  51.0322880  98.6594039 134.3466798  38.2647623
  98.9119559 133.8248319  37.5031086  97.7218598 134.1832944  38.3674307
 103.7037321 133.3502576  46.0722367 104.4900411 132.9322000  45.7212784
 103.9676026 134.2548669  46.2404015 103.8747399 138.7875427  40.7711023
 103.2393232 138.8610053  41.4831928 103.5444805 139.3769026  40.0930103
 109.1045748 133.2877810  46.9755345 109.8370920 132.7177026  47.2093174
 108.3485104 132.8999410  47.4161851  98.3790327 136.2494904  40.4671998
  98.2626585 135.5739807  41.1353083  98.4892587 135.7627278  39.6504151
 100.7221868 135.7105051  44.1718687 100.3580075 135.1835672  44.8831609
 101.5788984 135.3203520  43.9985173 106.6271169 126.9999384  51.4349954
 106.2954494 127.8694795  51.2111169 106.0316782 126.6835668  52.1143984
 100.3627355 130.7394951  39.1680036 100.5301758 131.6075187  39.5350507
 100.1724524 130.9022233  38.2441325 103.1202688 139.2011930  50.8345866
 102.8203411 140.1036969  50.7261674 102.7753748 138.9344113  51.6867019
  96.5715170 135.6525727  46.8682571  95.6465666 135.5201941  47.0760263
  96.8199583 136.4319946  47.3652513 106.5199832 131.7194470  48.5143304
 105.6116709 131.6509878  48.2202065 106.4687428 132.1966415  49.3425129
 100.3416576 133.1952608  40.1526703 100.2216201 133.6409659  40.9912183
  99.6469164 133.5437926  39.5940241  93.9323981 135.2959000  47.7026360
  94.0616362 135.5493479  48.6165772  93.2521432 135.8886708  47.3831015
  98.1023468 145.9656250  43.8016834  98.0247498 146.9164075  43.8805315
  97.4985112 145.6202123  44.4591760 100.5940698 133.1384116  56.4578201
  99.8174032 133.6978036  56.4481066 101.2331261 133.6240899  56.9793071
 108.3861479 129.9210908  50.2921178 107.7435859 130.2143442  49.6460972
 107.8816407 129.8063829  51.0974374 106.0401642 133.6674082  40.9807037
 106.9519498 133.9001468  40.8054734 105.5311289 134.2511126  40.4182115
  98.8487070 135.9469569  56.0196168  99.5901755 136.4854613  55.7430992
  98.1424056 136.5735858  56.1767720 104.3242410 138.0898709  54.6168329
 104.7325766 137.6481120  53.8722962 103.6019671 137.5151337  54.8702522
 100.6773480 133.0271316  51.9901886 101.5234675 133.4510730  52.1336535
 100.6172118 132.3704940  52.6840449 104.6471225 138.6499900  48.3720618
 104.0180087 138.8145614  47.6696686 104.2596887 139.0641510  49.1431582
 108.5260456 139.5854338  45.7264982 107.8411495 139.9653239  45.1762015
 108.6104306 140.1949664  46.4596930 103.8272925 130.6875684  53.6483060
 103.5833857 131.4417745  53.1117336 104.1032856 131.0661032  54.4830307
 105.7811388 137.2314297  52.3260326 105.9928283 137.8746057  51.6494707
 105.7341136 136.3976613  51.8582256 103.3837617 129.8432118  49.2296898
 102.5222096 130.1413371  49.5213635 103.4100052 130.0602516  48.2977930
 100.1999186 138.3874308  45.6370703 100.6637532 138.6662011  44.8475326
  99.9355985 137.4857753  45.4543794  97.0923267 137.9345790  48.5750467
  97.6624625 138.3633058  47.9367951  97.6831379 137.6528374  49.2734652
  99.1368072 134.5097460  42.4460269  99.8392116 134.9618504  42.9134195
  98.8048701 133.8681279  43.0740162  97.5848434 133.1009217  56.8211478
  96.9547095 133.7825498  57.0546875  97.4784522 132.9892299  55.8764616
  92.8793406 132.7681013  47.7477402  92.0892460 133.0238542  47.2717513
  93.3704654 133.5829351  47.8529443 106.8957216 140.1086252  50.4982683
 107.7174660 139.7066440  50.2165365 106.8919619 140.0054486  51.4498799
  94.8308152 133.1325592  44.7060879  94.0339315 133.2444287  45.2244374
  94.6033744 133.4712245  43.8401769 100.6613819 139.6570296  52.6543393
 100.7258252 140.1190703  53.4901565  99.9524743 139.0267660  52.7825703
  91.1631109 133.0211504  50.1792393  91.4139148 133.9058513  50.4449969
  91.6990658 132.8416105  49.4067485 114.9863209 136.4525001  46.8467654
 114.2326917 135.8832399  46.6911659 115.1210750 136.4187665  47.7938289
 100.3761837 141.3238403  42.5222374 100.2407512 142.1689939  42.9507222
 100.9171650 141.5257681  41.7588308  96.8629177 127.4029983  59.1836729
  96.4696122 126.8496181  59.8584373  97.6795317 127.7140561  59.5743247
  93.8291234 138.8413841  43.0950299  94.3415755 139.6357091  43.2455864
  94.4813947 138.1440132  43.0283900  95.6386119 141.9579597  45.1773052
  95.8152748 142.8797562  44.9894036  96.4342953 141.6438017  45.6067432
  99.7797138 128.8187862  56.7756986 100.5206851 129.4195015  56.6961448
 100.0115061 128.0765500  56.2175028  94.9238476 134.0044229  55.0535215
  94.8091991 133.1029487  55.3542314  94.0682993 134.2507926  54.7020032
 102.0030313 141.9461970  56.6522716 101.5594168 141.1598348  56.3343620
 102.6647527 142.1341120  55.9866607  96.7617435 143.4757771  51.1783394
  97.3124860 143.3474835  50.4060388  95.9228911 143.7752660  50.8278287
 104.1011552 142.2264770  54.6804117 104.0830027 143.0473651  54.1884386
 105.0231472 142.1018845  54.9054258 100.5584606 139.7408899  55.5227625
 101.0912942 138.9797187  55.2926933 100.0298687 139.4482551  56.2651780
 103.7254301 124.8468965  51.0521267 103.3818570 125.7370607  50.9760378
 104.0933263 124.6570623  50.1890852  91.7940151 137.1702495  43.8709869
  92.6315373 137.5799504  43.6543577  91.9718419 136.2301938  43.8410063
 103.6904583 134.8377576  39.5593702 103.1751207 135.6082181  39.7982090
 103.4181892 134.1642712  40.1826764 101.2751694 129.6827277  44.6178941
 100.4193291 129.2934127  44.4384579 101.6878646 129.7619238  43.7578726
 102.8050841 127.2173620  49.0170500 102.3015637 127.1803755  48.2038306
 103.0981448 128.1266363  49.0767157  99.0493727 127.3012350  48.0236682
  99.9146724 127.1055159  47.6642572  99.1171236 127.0722702  48.9506039
 108.6638858 137.5909931  41.4946876 107.8868300 137.2521090  41.0502038
 109.3430338 137.5962554  40.8201841 103.4790887 132.7104668  41.3853484
 103.1741022 133.0250817  42.2363627 104.4321329 132.7886088  41.4280817
 101.9237318 138.8694891  43.0346438 101.3958680 138.1347651  42.7219675
 101.4224821 139.6469568  42.7886406 106.9030164 137.0643912  48.1513484
 106.2453839 137.7543173  48.2393612 107.7070564 137.4540344  48.4947470
  96.6556046 129.5314558  45.3953049  97.2299798 129.3089739  44.6626242
  97.2427028 129.6003252  46.1481650 105.7135623 135.4188285  46.2017426
 106.2267505 136.0518276  46.7039135 106.3636847 134.8189480  45.8360786
  96.9825633 131.5619019  39.4148934  96.1462945 131.8993705  39.7358209
  96.8430403 131.4267999  38.4776071  98.9578714 126.4055807  44.1228118
  98.3043126 126.0904824  43.4984733  98.9159188 125.7831547  44.8487941
 100.0689919 136.6875102  36.0381411  99.1616980 136.4564355  36.2372560
 100.5660951 135.8912721  36.2255392 102.9757997 145.3972609  38.9578097
 102.3019696 145.7004306  39.5663055 103.3623819 146.2001689  38.6083554
 102.1916454 132.8937740  48.4475766 101.2739015 133.1152687  48.2897454
 102.6076598 132.9684051  47.5887473 102.9751502 134.2929156  43.5778446
 103.7223321 134.8050553  43.2685568 103.2443091 133.9713209  44.4382840
 101.2478152 136.7887697  40.5605401 100.3389371 136.5046729  40.6577870
 101.2773236 137.2086775  39.7008707 106.4797419 140.3994286  44.3296568
 106.0259747 139.5585196  44.3861759 105.8491386 141.0355684  44.6671348
 105.4230339 131.3286272  45.5597236 104.6853096 130.8163658  45.8907478
 105.6757113 130.8886654  44.7480513 104.9230359 142.2370783  45.2646386
 105.2153333 142.7975840  44.5458752 105.4328979 142.5299344  46.0199545
 105.5241966 124.1062524  46.1539005 105.8300843 123.2459888  45.8664920
 106.2494571 124.6980144  45.9537999  91.8166322 134.5093211  44.5420603
  91.6190722 133.9162571  43.8171669  91.2612986 134.2045421  45.2596542
  99.7963046 134.4016317  46.6615196  99.8511656 133.4490154  46.5857673
  98.9854248 134.5575756  47.1456494 100.9454240 138.3296440  37.8993479
 100.5073670 137.6132299  37.4399117 101.6864681 138.5572555  37.3378571
  97.7355406 133.0193377  44.4205575  96.9223272 133.3187547  44.8270767
  98.2314400 132.6249066  45.1380057  99.8863984 143.0151134  46.3539840
  99.8440163 143.2411980  45.4248372 100.8026683 142.7814508  46.5025641
 103.3329618 133.4835201  53.2520469 103.6879005 133.7106675  54.1114934
 103.9801749 133.8153578  52.6297724 109.0627355 136.6053637  43.9569798
 108.9245253 136.7955233  43.0290987 108.7063573 137.3673020  44.4137849
  97.2269481 130.5911732  50.0366810  97.8668860 130.4500492  49.3389773
  96.3947011 130.3046246  49.6605412 109.0896734 138.6730164  48.9681069
 109.5233241 138.5805453  49.8164123 109.8028315 138.6487665  48.3301085
  98.0029785 139.8914163  46.1501802  98.7970383 139.3964483  45.9484377
  97.2921477 139.3632026  45.7869508 102.8224629 142.2732258  50.5014170
 102.8761651 142.8423195  51.2691886 101.9539410 142.4434143  50.1368207
  94.3112548 134.0357245  42.2261555  93.3810136 133.9741700  42.4431517
  94.4070020 133.5133197  41.4298196  94.2298097 130.5612057  44.8139797
  94.4904914 131.4757391  44.7048957  95.0515269 130.0936500  44.9636409
  95.7023022 131.9749815  51.9838621  96.3746076 131.7667177  51.3351270
  94.8752809 131.7771901  51.5443853 109.9512284 138.7153865  51.5013955
 110.1448174 139.6199675  51.7473230 109.8512902 138.2561284  52.3352540
 101.6048594 128.6011756  54.0004282 100.9576510 129.3001705  53.9068758
 102.3749610 129.0347899  54.3680530 105.0127392 138.8660608  57.0754835
 104.8612899 138.6371159  56.1584919 105.0032072 139.8231209  57.0886180
 101.7812729 136.4392520  52.0601102 102.7104789 136.5903680  51.8870069
 101.3603759 136.5276541  51.2049748 100.5801061 140.4643185  49.8299639
 100.4412146 140.0961969  50.7025577  99.7915657 140.9790824  49.6583597
 101.1749213 145.5652281  41.1725176 101.3500968 145.0940325  41.9870799
 100.4882001 146.1918048  41.4006437 102.1306276 139.8424788  47.2188477
 101.7956108 139.8025558  48.1146127 101.6310221 139.1769503  46.7458887
  96.1050520 135.2492418  52.7441058  95.9670318 134.5172656  53.3452597
  97.0155443 135.1601318  52.4625246 105.0665467 137.1880822  37.4925537
 104.4494638 136.4627650  37.3958589 104.5981956 137.9490182  37.1492611
  98.7332820 134.9612377  52.2324738  99.4432439 134.3205569  52.1911356
  98.6902129 135.2125272  53.1550919 106.7219599 141.8979730  55.1531317
 106.6632145 141.2138950  54.4861900 107.1239117 142.6398720  54.7011943
  97.4461754 131.9477595  54.0520377  96.9099111 131.4968333  54.7041974
  96.8578463 132.0823504  53.3090842  95.7410298 148.7141644  47.9465036
  95.9806896 149.3460168  48.6244055  94.8979494 148.3629684  48.2330395
  96.8564013 131.4066246  36.6146841  95.9793480 131.2855047  36.2509088
  97.3321766 130.6152325  36.3625730 106.7237006 139.8619314  53.3845297
 105.8363785 139.5245236  53.5071696 107.2935557 139.1302345  53.6214062
  88.3766153 136.1943406  46.7088348  89.0637193 135.8805136  46.1209364
  88.2214282 137.0984771  46.4355600  93.1800876 131.0833603  51.1373372
  93.0959064 130.4759272  50.4023782  92.3583582 131.5742621  51.1382868
 100.2538160 144.5220767  50.3506540 100.1808331 145.3275738  50.8625845
  99.8115553 144.7212732  49.5254561 100.0427939 143.7592537  43.8609362
  99.2595461 144.3014217  43.9547586 100.7420685 144.2766516  44.2603603
 103.3524589 129.5687166  46.5043567 103.8493289 128.8157128  46.1844637
 102.5811571 129.6051483  45.9386776 111.2054347 135.2727532  48.1461858
 111.1944223 136.1552247  47.7755792 110.3371726 134.9199082  47.9516396
 102.7136843 144.4207601  52.5064699 103.4264815 145.0555065  52.4340600
 102.2226872 144.5171467  51.6904701 104.4354370 138.3258853  44.0781990
 103.5010649 138.4460316  43.9086695 104.6131039 137.4231320  43.8142000
  99.9359558 131.7104549  46.2315252  99.5657346 131.1575589  46.9196157
 100.4318651 131.1062683  45.6790252 107.8226922 134.1676173  44.6132025
 108.2887374 135.0004164  44.5392327 108.2734422 133.7021154  45.3177283
  97.7648757 142.1702044  53.3270270  98.4658216 142.8038527  53.4799664
  97.2943872 142.5116776  52.5665909 105.8903153 140.5119994  41.6118177
 106.1662997 140.3976588  42.5212051 105.0207651 140.1137479  41.5730350
 105.7943584 126.5356760  48.6522926 104.8806664 126.7660986  48.8205133
 106.2236686 126.6195204  49.5036958 105.5650043 134.7246651  51.1522820
 104.9121493 134.9722559  50.4975273 105.9430423 133.9110790  50.8185297
 102.5257217 144.7606345  45.2550990 102.7079611 143.9428001  45.7178742
 103.3490203 144.9774037  44.8175880 102.8599382 143.6874530  42.5166039
 103.3887149 143.1766984  41.9036201 103.1227602 143.3717060  43.3811572
 101.6137616 135.4666463  57.6388857 100.9378253 135.3660592  58.3091232
 102.4365250 135.3105676  58.1024854  93.3616475 141.7038399  50.2601372
  93.9469912 140.9582087  50.3929276  93.1641313 142.0142356  51.1438036
  96.2155130 144.7389646  45.2763815  95.5465505 145.2235774  44.7927855
  96.0768000 144.9858867  46.1907193  87.9534130 134.2743999  48.9805815
  87.9918229 133.7407590  49.7742933  87.4474422 133.7479205  48.3616793
 100.3560399 146.7733390  51.8746473 100.9078707 146.9365012  52.6395558
 100.6966592 147.3637828  51.2026498  95.3324892 129.1208540  52.4768358
  95.3966218 129.9823371  52.0645755  95.2692012 128.5082541  51.7440716
  94.8077164 131.1931672  56.1241392  95.4349203 130.8108750  56.7378916
  93.9505083 130.9745874  56.4897084 105.2071273 141.5994648  57.7295127
 105.7511177 142.2124606  57.2350082 104.6258118 142.1574226  58.2462140
  91.5842707 133.0008101  42.0559747  91.8796148 132.0918780  42.0026800
  90.6830743 132.9795841  41.7340749 103.4928786 144.7215366  48.8610155
 103.3679925 143.9205105  48.3521101 104.1507877 145.2161559  48.3724125
  95.1136954 131.0764098  48.0387295  94.3923540 131.6900066  47.8994769
  95.9030210 131.6121863  47.9603941 105.5563694 142.5224386  50.4889705
 104.6094030 142.4029737  50.4168032 105.9046467 141.6346884  50.5715967
  97.9163268 128.4118525  54.3127947  98.4397670 128.6580821  55.0754256
  97.6975601 129.2438559  53.8931084  93.3130549 130.6822199  42.1799072
  92.9843255 129.8019578  41.9974178  93.6669919 130.6269868  43.0675461
 102.5610128 142.3177102  46.6894057 102.4135090 141.3893809  46.8701627
 103.3863621 142.3397193  46.2051133  96.4272372 130.9695169  42.5474550
  96.7668444 131.4981090  41.8253158  96.8744492 131.3075575  43.3233116
 106.1644249 143.1405661  47.7758930 107.0890797 142.9348522  47.6383381
 105.9959553 142.8922062  48.6848272  99.1215813 129.3532220  51.9977618
  98.7812633 128.5540033  52.3998298  98.4154819 129.6533930  51.4254451
  99.7732285 126.4381532  50.4504941 100.5958354 125.9642010  50.3283831
 100.0170348 127.2172016  50.9503627  98.4140519 129.4669791  40.7467842
  99.1348882 129.8451043  40.2431559  97.7905823 130.1858667  40.8502820
 102.5571642 130.1714939  41.6826175 102.7735256 131.0539577  41.3815003
 102.0765709 129.7801153  40.9531817  97.2970863 133.1300653  48.2596919
  97.1515444 133.4440956  49.1521201  96.8196067 133.7485553  47.7067818
  99.1567246 130.1203201  48.3077809  99.1428815 129.2244294  47.9710107
  99.8739674 130.1273864  48.9416095 101.0093377 130.5540541  50.3530936
 100.7511155 131.4757612  50.3515267 100.4778417 130.1570975  51.0431400
 105.9539566 143.6591328  43.1321022 106.1276443 143.0937750  42.3794874
 106.4468457 144.4592223  42.9500512  91.7716525 135.6705997  51.1984580
  91.2269994 136.4465805  51.3304855  92.6495875 136.0176802  51.0403702
  98.5604142 129.0017581  43.5765379  98.6820053 128.0734227  43.7756266
  98.2706185 129.0156267  42.6643694 101.4295333 126.6872491  46.7132099
 101.4517029 126.7511824  45.7584078 101.8463392 125.8477000  46.9072605
 111.8078957 136.4227751  44.7511321 112.2510103 135.6735076  44.3530445
 110.9305467 136.4137887  44.3685053 106.9414738 142.9758092  40.2317920
 107.6365643 143.5964785  40.4505235 107.2837888 142.1253444  40.5070298
  92.5582547 134.7975893  54.0914737  91.8164283 134.9458529  54.6779368
  92.2375292 135.0584159  53.2281487 108.8406161 140.4257798  41.7605251
 109.3657485 140.7645071  41.0354571 108.7528514 139.4904813  41.5768385
 100.5026210 144.3391872  53.8895127 100.8113336 144.0941018  54.7617827
 101.3001692 144.5438510  53.4013998 100.5246822 146.4929781  46.1200504
 100.0851812 146.0006160  46.8133361 101.2754939 145.9502749  45.8792579
  93.0039161 142.6841322  46.1225132  93.8297181 142.3845094  45.7423775
  92.6533213 141.9148945  46.5714921  97.9720694 142.0367790  48.1922806
  97.3500703 141.3738495  47.8925033  98.6425561 142.0628922  47.5096453
  91.2047766 140.6027649  47.0814066  90.3679674 140.1749823  46.8998067
  91.1771411 140.7960092  48.0184857  98.0445222 130.5149578  57.7855312
  98.0933377 131.3911701  57.4033081  98.5867736 129.9726971  57.2126955
 108.5300067 141.0590702  57.0656449 107.7395611 141.0414840  56.5260948
 108.2933422 141.5978995  57.8205485 108.6497942 137.9083168  54.3789177
 108.6995947 137.7433175  55.3204700 108.5411866 137.0410427  53.9887058
  97.5334201 140.5871714  41.6681266  97.6822321 141.2707178  41.0147939
  98.3400645 140.5676804  42.1830722 105.9401705 133.8914096  55.6948484
 106.8411568 133.7520561  55.4032482 106.0149679 134.0568551  56.6346661
 100.2744510 131.2680951  54.5401670  99.4047820 131.5614517  54.2684259
 100.5103990 131.8521396  55.2608934 110.1516139 140.3280109  54.6231199
 109.8600948 140.6910090  55.4594660 109.5388271 139.6147118  54.4444531
 111.3511822 137.8932989  47.1433769 112.1858713 138.3322793  47.3071329
 111.4870950 137.4171642  46.3242015 108.4003327 135.4512724  53.0911257
 108.8757449 135.6440370  52.2830108 107.4768893 135.5071910  52.8454640
  95.2886834 136.6136891  42.6742335  95.0432876 135.7099221  42.8722545
  95.4582749 136.6154042  41.7321813 102.9783544 127.4860568  52.0567091
 103.4965488 128.2221595  51.7313579 102.6238677 127.7924561  52.8913850
  94.5582482 132.3465249  40.1728496  93.8651727 132.4209604  39.5168532
  94.3134234 131.5825593  40.6950013 103.2296138 123.9060850  47.5767987
 103.5097892 123.2384039  48.2028414 104.0146745 124.0989946  47.0642651
 101.0329607 143.0819844  39.1393014 100.4603574 143.7010031  38.6863485
 101.6062400 143.6319206  39.6732935 107.1004996 132.3278484  51.3239562
 108.0522419 132.4276582  51.3451786 106.9308447 131.5356753  51.8337647
 105.1219376 129.4134067  51.5098963 104.5269308 129.6939080  50.8145452
 104.8369073 129.9027968  52.2815704 104.2526866 143.3656994  40.2701596
 105.1857540 143.3002556  40.4734471 104.1650079 144.2013261  39.8116128
 109.5793074 135.5484604  50.4381862 109.5469394 134.6100605  50.6241546
 110.1893698 135.6268641  49.7047687 101.4176405 134.4180657  36.4809066
 102.3635510 134.2886865  36.5497484 101.0390650 133.6795319  36.9578494
 109.7287563 132.3395647  50.4840145 109.2126611 131.5554104  50.2970074
 110.6127511 132.0114364  50.6486665 107.3898290 126.0836663  46.4435958
 107.1923111 125.7751751  47.3279290 107.9997995 126.8098302  46.5733888
 115.3969624 136.6100611  49.5787899 116.1273013 136.3485899  50.1395602
 114.7876570 135.8729333  49.6189967 113.4784921 134.7508473  50.1762350
 112.7518085 134.6164438  49.5678842 113.0632208 135.0585302  50.9819068
 101.3015098 138.4698403  57.9409723 102.2218107 138.6477002  58.1349769
 101.2664681 137.5254448  57.7889422  99.6019322 132.3430633  36.4163951
  98.6950778 132.0463746  36.4926665  99.8795303 132.0460451  35.5498237
  90.5197263 133.6636997  46.8662998  90.2000047 132.8102305  46.5737372
  89.9730691 133.8785575  47.6220965  94.2977170 136.3799438  50.5832504
  94.5163180 137.3116545  50.6020538  94.7102944 136.0207412  51.3687308
 101.2181388 126.8867523  42.5708193 100.4082116 126.5414608  42.9463439
 101.9065805 126.5775067  43.1595804 103.1471936 125.9645570  44.1932489
 103.7002975 126.3841023  44.8522512 103.3842023 125.0381318  44.2355445
  99.1705036 131.9532643  59.9735253  99.0701762 132.9027000  59.9047344
  98.9526578 131.6250882  59.1011323  98.3718107 129.2017568  36.5575930
  99.2337271 129.5272467  36.8171748  98.5568451 128.4149064  36.0448996
  90.3885523 137.2839908  48.8356119  89.6948994 136.8693861  48.3226074
  91.1358514 137.3260445  48.2389538 106.5250743 128.0746095  43.7011153
 105.9449412 128.7330899  43.3189206 106.2586676 127.2523440  43.2898571
 104.9754310 127.4751153  45.9032474 105.4754088 127.5867687  45.0946793
 105.6189918 127.1712205  46.5433282  99.0336306 135.3829782  58.7900315
  98.5503387 136.1830142  58.9964204  99.1197245 135.3937727  57.8367759
  92.3022265 137.2158162  46.7122134  92.2792953 137.3145849  45.7604017
  92.6122902 138.0623313  47.0339300  94.9609643 139.2734317  50.8268749
  95.9152897 139.2418259  50.7598680  94.7622167 138.8124941  51.6418974
  95.5509025 137.8435433  53.3939546  96.3701914 138.3379512  53.4174383
  95.8245833 136.9267401  53.3657114 105.3075621 130.2346185  42.7567502
 104.4201476 130.5195836  42.5387696 105.7229610 130.0739949  41.9094779
 108.6590158 130.2592706  46.4721841 109.4350548 130.7489159  46.7446458
 107.9338292 130.6850760  46.9293710 111.0962716 130.9720326  47.5295782
 111.6907207 130.7316061  46.8189090 111.1689300 130.2527456  48.1569318
  93.3159872 144.8153936  47.8438946  93.1814340 144.0554337  47.2776944
  92.8991934 145.5394836  47.3767735 104.4518835 139.9990860  36.8515522
 105.1554685 140.2040862  37.4673177 103.7281484 140.5667622  37.1164605
 105.2816645 135.7500721  42.9717792 105.2251847 136.2069273  42.1325424
 105.8344988 134.9891406  42.7940635 109.0921451 131.5390453  43.7967911
 108.8358385 131.1387089  44.6276119 108.4674319 132.2534247  43.6718050
 113.4033789 134.2786526  46.3039203 112.8433347 134.3479716  47.0770765
 112.7977292 134.1027511  45.5838699  96.4728998 145.7123253  48.0557389
  96.3561382 146.6568686  47.9536079  95.6521444 145.4096815  48.4443188
 106.3605532 140.4373389  38.9013982 107.1951136 140.0054588  38.7191457
 106.1989875 140.2655403  39.8290876 106.0151424 136.9405502  40.2670321
 105.9600228 136.7749774  39.3258765 105.3897480 137.6481535  40.4232511
  90.8043939 132.1773567  54.0931743  91.4502803 131.6672521  54.5818968
  90.5961091 132.9142249  54.6675168 103.3297332 139.2454414  59.5923884
 104.1988491 139.4195067  59.2310519 102.8504083 140.0648831  59.4699613
  99.3247550 126.4413611  39.8455639  99.3126220 127.3855451  40.0023910
 100.2170972 126.2583757  39.5515101  97.4983512 146.3651515  51.2713317
  98.4010759 146.3975126  51.5879812  97.2720882 145.4351966  51.2859653
  99.2537114 145.1182502  47.9323396  98.3032745 145.1184364  47.8187768
  99.5569600 144.3715236  47.4159431 103.1399669 123.0356388  44.1001576
 102.3732065 122.4814875  44.2458259 103.5510374 123.1078257  44.9615728
  95.1441430 129.3241184  58.1906757  96.0072892 128.9677989  58.4010082
  94.5706841 128.9855079  58.8782162 111.7979514 150.9070468  48.9330683
 111.4598025 150.7911533  48.0451218 112.6669282 150.5061633  48.9131689
 107.6566329 152.7605945  44.9227574 107.0931194 152.6695882  44.1543862
 107.5418724 151.9405849  45.4030067 105.2030761 154.2557136  47.7611795
 105.9952053 153.9147961  47.3458094 105.4427411 154.3652111  48.6813948
 109.9262765 152.2219280  50.4297432 110.5226337 151.9975303  49.7154395
 109.9837736 151.4804026  51.0322880 114.5431076 148.6794494  46.0722367
 115.3294165 148.2613917  45.7212784 114.8069780 149.5840586  46.2404015
 111.5615623 151.0396969  44.1718687 111.1973830 150.5127590  44.8831609
 112.4182739 150.6495438  43.9985173 117.4664923 142.3291301  51.4349954
 117.1348248 143.1986712  51.2111169 116.8710537 142.0127585  52.1143984
 107.4108924 150.9817644  46.8682571 106.4859421 150.8493858  47.0760263
 107.6593338 151.7611864  47.3652513 117.3593587 147.0486388  48.5143304
 116.4510464 146.9801796  48.2202065 117.3081182 147.5258333  49.3425129
 104.7717735 150.6250918  47.7026360 104.9010117 150.8785397  48.6165772
 104.0915187 151.2178626  47.3831015 111.4334452 148.4676033  56.4578201
 110.6567786 149.0269953  56.4481066 112.0725015 148.9532816  56.9793071
 119.2255233 145.2502826  50.2921178 118.5829613 145.5435359  49.6460972
 118.7210162 145.1355746  51.0974374 109.6880825 151.2761487  56.0196168
 110.4295509 151.8146531  55.7430992 108.9817810 151.9027775  56.1767720
 111.5167234 148.3563234  51.9901886 112.3628430 148.7802647  52.1336535
 111.4565872 147.6996858  52.6840449 114.6666680 146.0167602  53.6483060
 114.4227612 146.7709663  53.1117336 114.9426610 146.3952950  54.4830307
 114.2231371 145.1724035  49.2296898 113.3615851 145.4705289  49.5213635
 114.2493806 145.3894434  48.2977930 107.9317022 153.2637707  48.5750467
 108.5018379 153.6924976  47.9367951 108.5225134 152.9820292  49.2734652
 109.9761827 149.8389378  42.4460269 110.6785870 150.2910422  42.9134195
 109.6442455 149.1973197  43.0740162 108.4242188 148.4301135  56.8211478
 107.7940849 149.1117416  57.0546875 108.3178276 148.3184216  55.8764616
 103.7187161 148.0972931  47.7477402 102.9286215 148.3530459  47.2717513
 104.2098408 148.9121269  47.8529443 105.6701906 148.4617510  44.7060879
 104.8733070 148.5736204  45.2244374 105.4427498 148.8004162  43.8401769
 102.0024864 148.3503421  50.1792393 102.2532902 149.2350431  50.4449969
 102.5384412 148.1708023  49.4067485 107.7022931 142.7321901  59.1836729
 107.3089877 142.1788099  59.8584373 108.5189072 143.0432479  59.5743247
 104.6684989 154.1705759  43.0950299 105.1809510 154.9649009  43.2455864
 105.3207702 153.4732049  43.0283900 110.6190892 144.1479780  56.7756986
 111.3600606 144.7486933  56.6961448 110.8508815 143.4057417  56.2175028
 105.7632230 149.3336147  55.0535215 105.6485745 148.4321404  55.3542314
 104.9076748 149.5799844  54.7020032 114.5648055 140.1760883  51.0521267
 114.2212325 141.0662524  50.9760378 114.9327018 139.9862540  50.1890852
 102.6333906 152.4994413  43.8709869 103.4709128 152.9091421  43.6543577
 102.8112173 151.5593855  43.8410063 112.1145449 145.0119195  44.6178941
 111.2587045 144.6226045  44.4384579 112.5272401 145.0911155  43.7578726
 113.6444596 142.5465538  49.0170500 113.1409391 142.5095673  48.2038306
 113.9375202 143.4558280  49.0767157 109.8887481 142.6304267  48.0236682
 110.7540478 142.4347076  47.6642572 109.9564990 142.4014619  48.9506039
 107.4949800 144.8606475  45.3953049 108.0693552 144.6381657  44.6626242
 108.0820783 144.9295170  46.1481650 109.7972468 141.7347724  44.1228118
 109.1436881 141.4196741  43.4984733 109.7552942 141.1123465  44.8487941
 113.0310209 148.2229658  48.4475766 112.1132770 148.4444605  48.2897454
 113.4470352 148.2975968  47.5887473 116.2624093 146.6578190  45.5597236
 115.5246850 146.1455576  45.8907478 116.5150867 146.2178571  44.7480513
 116.3635721 139.4354442  46.1539005 116.6694598 138.5751805  45.8664920
 117.0888326 140.0272062  45.9537999 102.6560077 149.8385128  44.5420603
 102.4584477 149.2454489  43.8171669 102.1006741 149.5337339  45.2596542
 110.6356801 149.7308235  46.6615196 110.6905410 148.7782071  46.5857673
 109.8248003 149.8867674  47.1456494 108.5749160 148.3485295  44.4205575
 107.7617026 148.6479465  44.8270767 109.0708155 147.9540983  45.1380057
 114.1723372 148.8127119  53.2520469 114.5272760 149.0398592  54.1114934
 114.8195503 149.1445496  52.6297724 108.0663235 145.9203650  50.0366810
 108.7062615 145.7792409  49.3389773 107.2340766 145.6338164  49.6605412
 105.1506303 149.3649162  42.2261555 104.2203891 149.3033618  42.4431517
 105.2463775 148.8425115  41.4298196 105.0691852 145.8903975  44.8139797
 105.3298669 146.8049308  44.7048957 105.8909024 145.4228418  44.9636409
 106.5416777 147.3041732  51.9838621 107.2139830 147.0959094  51.3351270
 105.7146563 147.1063818  51.5443853 112.4442349 143.9303673  54.0004282
 111.7970264 144.6293623  53.9068758 113.2143364 144.3639817  54.3680530
 106.9444274 150.5784335  52.7441058 106.8064072 149.8464574  53.3452597
 107.8549198 150.4893235  52.4625246 109.5726575 150.2904295  52.2324738
 110.2826193 149.6497487  52.1911356 109.5295883 150.5417189  53.1550919
 108.2855509 147.2769512  54.0520377 107.7492866 146.8260251  54.7041974
 107.6972217 147.4115421  53.3090842  99.2159908 151.5235324  46.7088348
  99.9030948 151.2097054  46.1209364  99.0608037 152.4276688  46.4355600
 104.0194630 146.4125520  51.1373372 103.9352819 145.8051190  50.4023782
 103.1977337 146.9034538  51.1382868 114.1918344 144.8979084  46.5043567
 114.6887044 144.1449046  46.1844637 113.4205325 144.9343400  45.9386776
 110.7753313 147.0396467  46.2315252 110.4051100 146.4867507  46.9196157
 111.2712405 146.4354600  45.6790252 116.6337339 141.8648677  48.6522926
 115.7200419 142.0952904  48.8205133 117.0630440 141.9487121  49.5036958
 112.4531370 150.7958380  57.6388857 111.7772007 150.6952510  58.3091232
 113.2759004 150.6397594  58.1024854 104.2010229 157.0330317  50.2601372
 104.7863666 156.2874005  50.3929276 104.0035068 157.3434273  51.1438036
  98.7927884 149.6035917  48.9805815  98.8311984 149.0699508  49.7742933
  98.2868177 149.0771122  48.3616793 106.1718646 144.4500457  52.4768358
 106.2359973 145.3115288  52.0645755 106.1085767 143.8374459  51.7440716
 105.6470919 146.5223590  56.1241392 106.2742958 146.1400667  56.7378916
 104.7898838 146.3037792  56.4897084 102.4236462 148.3300019  42.0559747
 102.7189903 147.4210698  42.0026800 101.5224497 148.3087759  41.7340749
 105.9530709 146.4056016  48.0387295 105.2317294 147.0191983  47.8994769
 106.7423964 146.9413781  47.9603941 108.7557022 143.7410442  54.3127947
 109.2791424 143.9872739  55.0754256 108.5369355 144.5730477  53.8931084
 104.1524303 146.0114117  42.1799072 103.8237009 145.1311496  41.9974178
 104.5063674 145.9561785  43.0675461 107.2666126 146.2987087  42.5474550
 107.6062199 146.8273008  41.8253158 107.7138247 146.6367493  43.3233116
 109.9609567 144.6824137  51.9977618 109.6206388 143.8831950  52.3998298
 109.2548574 144.9825848  51.4254451 110.6126039 141.7673450  50.4504941
 111.4352108 141.2933928  50.3283831 110.8564103 142.5463933  50.9503627
 109.2534274 144.7961708  40.7467842 109.9742636 145.1742961  40.2431559
 108.6299578 145.5150585  40.8502820 108.1364618 148.4592570  48.2596919
 107.9909199 148.7732873  49.1521201 107.6589821 149.0777471  47.7067818
 109.9961001 145.4495118  48.3077809 109.9822569 144.5536212  47.9710107
 110.7133429 145.4565782  48.9416095 111.8487131 145.8832459  50.3530936
 111.5904909 146.8049529  50.3515267 111.3172172 145.4862893  51.0431400
 102.6110280 150.9997915  51.1984580 102.0663748 151.7757723  51.3304855
 103.4889630 151.3468719  51.0403702 109.3997897 144.3309499  43.5765379
 109.5213808 143.4026145  43.7756266 109.1099939 144.3448185  42.6643694
 112.2689087 142.0164409  46.7132099 112.2910784 142.0803742  45.7584078
 112.6857146 141.1768918  46.9072605 103.3976302 150.1267811  54.0914737
 102.6558038 150.2750446  54.6779368 103.0769046 150.3876077  53.2281487
 102.0441521 155.9319566  47.0814066 101.2073429 155.5041741  46.8998067
 102.0165166 156.1252010  48.0184857 108.8838976 145.8441496  57.7855312
 108.9327132 146.7203619  57.4033081 109.4261490 145.3018889  57.2126955
 111.1138265 146.5972868  54.5401670 110.2441574 146.8906434  54.2684259
 111.3497745 147.1813313  55.2608934 113.8177298 142.8152485  52.0567091
 114.3359242 143.5513512  51.7313579 113.4632431 143.1216479  52.8913850
 105.3976236 147.6757167  40.1728496 104.7045481 147.7501522  39.5168532
 105.1527988 146.9117510  40.6950013 114.0689893 139.2352768  47.5767987
 114.3491646 138.5675957  48.2028414 114.8540500 139.4281863  47.0642651
 115.9613130 144.7425985  51.5098963 115.3663063 145.0230998  50.8145452
 115.6762827 145.2319886  52.2815704 118.2292044 141.4128581  46.4435958
 118.0316865 141.1043669  47.3279290 118.8391750 142.1390219  46.5733888
 101.3591017 148.9928914  46.8662998 101.0393801 148.1394223  46.5737372
 100.8124445 149.2077492  47.6220965 105.1370925 151.7091355  50.5832504
 105.3556934 152.6408463  50.6020538 105.5496699 151.3499330  51.3687308
 112.0575142 142.2159441  42.5708193 111.2475871 141.8706526  42.9463439
 112.7459559 141.9066984  43.1595804 113.9865691 141.2937487  44.1932489
 114.5396729 141.7132941  44.8522512 114.2235777 140.3673236  44.2355445
 110.0098790 147.2824561  59.9735253 109.9095517 148.2318918  59.9047344
 109.7920332 146.9542800  59.1011323 101.2279277 152.6131826  48.8356119
 100.5342749 152.1985779  48.3226074 101.9752268 152.6552362  48.2389538
 117.3644498 143.4038013  43.7011153 116.7843167 144.0622817  43.3189206
 117.0980431 142.5815357  43.2898571 115.8148064 142.8043070  45.9032474
 116.3147843 142.9159605  45.0946793 116.4583672 142.5004123  46.5433282
 109.8730060 150.7121700  58.7900315 109.3897142 151.5122060  58.9964204
 109.9590999 150.7229645  57.8367759 103.1416020 152.5450080  46.7122134
 103.1186708 152.6437767  45.7604017 103.4516656 153.3915230  47.0339300
 105.8003398 154.6026235  50.8268749 106.7546651 154.5710177  50.7598680
 105.6015921 154.1416858  51.6418974 106.3902780 153.1727351  53.3939546
 107.2095669 153.6671429  53.4174383 106.6639587 152.2559319  53.3657114
 119.4983912 145.5884624  46.4721841 120.2744302 146.0781076  46.7446458
 118.7732046 146.0142678  46.9293710 101.6437694 147.5065485  54.0931743
 102.2896558 146.9964439  54.5818968 101.4354845 148.2434166  54.6675168
 110.1641304 141.7705529  39.8455639 110.1519974 142.7147369  40.0023910
 111.0564726 141.5875675  39.5515101 113.9793424 138.3648306  44.1001576
 113.2125820 137.8106793  44.2458259 114.3904129 138.4370175  44.9615728
 105.9835185 144.6533102  58.1906757 106.8466646 144.2969906  58.4010082
 105.4100596 144.3146996  58.8782162  26.1274033  11.6480668  43.3768022
  25.6837887  10.8617047  43.0588927  26.7891247  11.8359819  42.7111913
  28.2255271  11.9283468  41.4049424  28.2073747  12.7492349  40.9129693
  29.1475191  11.8037544  41.6299565  24.6828326   9.4427598  42.2472932
  25.2156662   8.6815886  42.0172240  24.1542407   9.1501250  42.9897087
  29.1371112   8.5679307  43.8000142  28.9856619   8.3389858  42.8830226
  29.1275792   9.5249908  43.8131487  30.8463319  11.5998429  41.8776624
  30.7875865  10.9157649  41.2107207  31.2482837  12.3417419  41.4257250
  30.8480726   9.5638013  40.1090603  29.9607505   9.2263935  40.2317002
  31.4179277   8.8321044  40.3459369  26.8380563  14.1226299  39.2310005
  27.5508535  14.7573764  39.1585907  26.3470592  14.2190165  38.4150007
  25.7381336   5.1685161  44.3634164  25.0621973   5.0679291  45.0336539
  26.5608970   5.0124375  44.8270161  24.4804119  16.4752089  38.5991780
  25.0322427  16.6383710  39.3640865  24.8210312  17.0656527  37.9271804
  29.3314993  11.3013346  44.4540434  29.8754897  11.9143305  43.9595389
  28.7501838  11.8592925  44.9707447  24.6269930  14.0410570  40.6140434
  24.9357056  13.7959717  41.4863134  25.4245412  14.2457209  40.1259304
  32.6543787  10.7609400  43.7901755  31.8639331  10.7433539  43.2506255
  32.4177142  11.2997694  44.5450792  32.7741662   7.6101867  41.1034484
  32.8239667   7.4451874  42.0450007  32.6655586   6.7429126  40.7132365
  34.2759859  10.0298808  41.3476505  33.9844667  10.3928789  42.1839966
  33.6631990   9.3165817  41.1689837  25.4258817   8.1717102  44.6655030
  26.3461827   8.3495701  44.8595076  25.3908401   7.2273147  44.5134729
  27.4541051   8.9473113  46.3169190  28.3232211   9.1213765  45.9555825
  26.9747803   9.7667530  46.1944920  39.1133527  20.6561739  35.7214465
  39.7511937  20.5368487  35.0177805  38.9954370  21.6042583  35.7802417
  35.9223233  20.6089167  35.6575990  35.5841745  20.4930232  34.7696525
  36.7913002  20.2080332  35.6376996  36.4043016  21.7624019  41.6162195
  36.3931657  21.3676817  40.7442699  36.5663656  21.0290092  42.2095967
  29.3274481  23.9575835  34.4857101  30.1195773  23.6166660  34.0703400
  29.5671131  24.0670810  35.4059255  33.1250278  24.5461131  40.5641379
  32.8340144  25.4506762  40.4488046  33.7607262  24.5877658  41.2785449
  34.0506484  21.9237979  37.1542739  34.6470057  21.6994002  36.4399702
  34.1081456  21.1822725  37.7568187  38.6674796  18.3813193  32.7967673
  39.4537885  17.9632616  32.4458090  38.9313500  19.2859285  32.9649322
  44.0683223  18.3188426  33.7000652  44.8008395  17.7487643  33.9338481
  43.3122579  17.9310027  34.1407157  35.6859343  20.7415668  30.8963994
  35.3217550  20.2146289  31.6076916  36.5426458  20.3514137  30.7230480
  41.5908643  12.0310000  38.1595260  41.2591968  12.9005411  37.9356475
  40.9954257  11.7146284  38.8389291  38.0840163  24.2322546  37.5591173
  37.7840886  25.1347585  37.4506980  37.7391222  23.9654730  38.4112326
  31.5352644  20.6836343  33.5927877  30.6103141  20.5512557  33.8005569
  31.7837057  21.4630562  34.0897820  41.4837306  16.7505086  35.2388610
  40.5754184  16.6820495  34.9447371  41.4324902  17.2277031  36.0670436
  28.8961455  20.3269617  34.4271666  29.0253836  20.5804096  35.3411078
  28.2158907  20.9197325  34.1076322  33.0660942  30.9966867  30.5262141
  32.9884972  31.9474692  30.6050621  32.4622586  30.6512739  31.1837067
  35.5578172  18.1694732  43.1823508  34.7811506  18.7288652  43.1726372
  36.1968735  18.6551515  43.7038378  43.3498953  14.9521525  37.0166484
  42.7073333  15.2454058  36.3706279  42.8453881  14.8374445  37.8219681
  33.8124545  20.9780185  42.7441475  34.5539229  21.5165229  42.4676298
  33.1061530  21.6046474  42.9013026  39.2879884  23.1209326  41.3413636
  39.6963240  22.6791736  40.5968268  38.5657146  22.5461953  41.5947829
  35.6410954  18.0581933  38.7147193  36.4872149  18.4821346  38.8581842
  35.5809592  17.4015557  39.4085756  39.6108699  23.6810517  35.0965925
  38.9817561  23.8456231  34.3941993  39.2234361  24.0952126  35.8676889
  43.4897931  24.6164954  32.4510289  42.8048969  24.9963856  31.9007322
  43.5741780  25.2260281  33.1842236  38.7910400  15.7186301  40.3728367
  38.5471331  16.4728362  39.8362642  39.0670330  16.0971649  41.2075614
  40.7448862  22.2624913  39.0505632  40.9565758  22.9056673  38.3740013
  40.6978611  21.4287230  38.5827562  38.3475091  14.8742734  35.9542204
  37.4859570  15.1723988  36.2458942  38.3737526  15.0913133  35.0223237
  35.1636661  23.4184925  32.3616010  35.6275006  23.6972628  31.5720633
  34.8993459  22.5168369  32.1789101  32.0560742  22.9656406  35.2995773
  32.6262099  23.3943675  34.6613258  32.6468854  22.6838991  35.9979959
  32.5485908  18.1319834  43.5456785  31.9184569  18.8136114  43.7792181
  32.4421996  18.0202915  42.6009923  41.8594690  25.1396869  37.2227990
  42.6812134  24.7377056  36.9410671  41.8557093  25.0365103  38.1744105
  35.6251294  24.6880912  39.3788700  35.6895726  25.1501319  40.2146872
  34.9162218  24.0578277  39.5071010  26.1268584  18.0522120  36.9037700
  26.3776622  18.9369130  37.1695275  26.6628132  17.8726722  36.1312791
  49.9500683  21.4835617  33.5712961  49.1964392  20.9143015  33.4156965
  50.0848225  21.4498282  34.5183596  35.3399311  26.3549020  29.2467680
  35.2044986  27.2000555  29.6752528  35.8809124  26.5568297  28.4833614
  31.8266651  12.4340599  45.9082036  31.4333597  11.8806798  46.5829680
  32.6432791  12.7451178  46.2988553  30.6023593  26.9890214  31.9018359
  30.7790222  27.9108179  31.7139343  31.3980427  26.6748633  32.3312738
  34.7434612  13.8498479  43.5002292  35.4844325  14.4505632  43.4206755
  34.9752535  13.1076116  42.9420335  29.8875950  19.0354846  41.7780522
  29.7729465  18.1340103  42.0787621  29.0320468  19.2818543  41.4265338
  36.9667788  26.9772586  43.3768022  36.5231642  26.1908965  43.0588927
  37.6285001  27.1651737  42.7111913  31.7254909  28.5068388  37.9028701
  32.2762334  28.3785451  37.1305695  30.8866385  28.8063277  37.5523594
  39.0649026  27.2575386  41.4049424  39.0467501  28.0784267  40.9129693
  39.9868946  27.1329461  41.6299565  35.5222080  24.7719516  42.2472932
  36.0550417  24.0107804  42.0172240  34.9936161  24.4793167  42.9897087
  38.6891775   9.8779581  37.7766574  38.3456044  10.7681223  37.7005684
  39.0570738   9.6881239  36.9136159  37.7688315  12.2484237  35.7415807
  37.2653111  12.2114372  34.9283612  38.0618922  13.1576979  35.8012464
  43.6276332  22.6220547  28.2192182  42.8505775  22.2831707  27.7747345
  44.3067813  22.6273170  27.5447148  36.8874793  23.9005508  29.7591744
  36.3596154  23.1658268  29.4464982  36.3862295  24.6780184  29.5131712
  41.8667639  22.0954528  34.8758790  41.2091313  22.7853790  34.9638919
  42.6708038  22.4850960  35.2192777  40.6773098  20.4498901  32.9262732
  41.1904979  21.0828893  33.4284442  41.3274321  19.8500097  32.5606092
  37.9395472  30.4283225  25.6823403  37.2657171  30.7314922  26.2908361
  38.3261294  31.2312306  25.3328860  37.1553928  17.9248357  35.1721073
  36.2376490  18.1463304  35.0142761  37.5714072  17.9994667  34.3132780
  41.4434894  25.4304903  31.0541875  40.9897221  24.5895813  31.1107065
  40.8128860  26.0666301  31.3916655  40.3867813  16.3596889  32.2842542
  39.6490570  15.8474275  32.6152785  40.6394587  15.9197270  31.4725819
  39.8867833  27.2681399  31.9891693  40.1790807  27.8286456  31.2704059
  40.3966454  27.5609960  32.7444852  34.7600520  19.4326934  33.3860503
  34.8149130  18.4800770  33.3102979  33.9491722  19.5886373  33.8701801
  34.8501458  28.0461750  33.0785146  34.8077637  28.2722597  32.1493678
  35.7664157  27.8125125  33.2270947  38.2967092  18.5145818  39.9765775
  38.6516480  18.7417291  40.8360241  38.9439223  18.8464195  39.3543031
  44.0264829  21.6364254  30.6815104  43.8882728  21.8265850  29.7536294
  43.6701048  22.3983637  31.1383156  32.1906955  15.6222349  36.7612116
  32.8306334  15.4811108  36.0635080  31.3584486  15.3356862  36.3850718
  44.0534209  23.7040781  35.6926376  44.4870715  23.6116070  36.5409430
  44.7665789  23.6798281  35.0546392  32.9667259  24.9224779  32.8747109
  33.7607857  24.4275100  32.6729684  32.2558951  24.3942643  32.5114814
  37.7862103  27.3042875  37.2259477  37.8399126  27.8733811  37.9937192
  36.9176885  27.4744760  36.8613514  30.6660497  17.0060431  38.7083928
  31.3383550  16.7977793  38.0596577  29.8390283  16.8082517  38.2689160
  44.9149758  23.7464482  38.2259261  45.1085648  24.6510292  38.4718536
  44.8150376  23.2871901  39.0597846  36.5686069  13.6322372  40.7249589
  35.9213984  14.3312322  40.6314065  37.3387084  14.0658516  41.0925837
  39.9764867  23.8971224  43.8000142  39.8250373  23.6681776  42.8830226
  39.9669546  24.8541826  43.8131487  36.7450203  21.4703137  38.7846408
  37.6742263  21.6214297  38.6115376  36.3241233  21.5587158  37.9295055
  35.5438535  25.4953801  36.5544946  35.4049621  25.1272586  37.4270884
  34.7553131  26.0101441  36.3828904  36.1386687  30.5962898  27.8970483
  36.3138443  30.1250941  28.7116105  35.4519475  31.2228664  28.1251743
  37.0943750  24.8735404  33.9433784  36.7593583  24.8336174  34.8391434
  36.5947696  24.2080120  33.4704194  31.0687994  20.2803034  39.4686365
  30.9307792  19.5483273  40.0697904  31.9792918  20.1911934  39.1870553
  33.6970295  19.9922993  38.9570045  34.4069913  19.3516186  38.9156663
  33.6539603  20.2435888  39.8796225  41.6857073  26.9290347  41.8776624
  41.6269620  26.2449567  41.2107207  42.0876592  27.6709337  41.4257250
  32.4099229  16.9788211  40.7765684  31.8736586  16.5278950  41.4287280
  31.8215937  17.1134120  40.0336148  30.7047772  33.7452261  34.6710343
  30.9444370  34.3770785  35.3489361  29.8616969  33.3940301  34.9575702
  41.6874481  24.8929931  40.1090603  40.8001259  24.5555853  40.2317002
  42.2573032  24.1612962  40.3459369  28.1438350  16.1144219  37.8618679
  28.0596539  15.5069889  37.1269088  27.3221056  16.6053237  37.8628175
  35.2175634  29.5531383  37.0751847  35.1445806  30.3586355  37.5871151
  34.7753027  29.7523349  36.2499868  35.0065414  28.7903153  30.5854668
  34.2232936  29.3324833  30.6792893  35.7058159  29.3077133  30.9848909
  46.1691821  20.3038148  34.8707165  46.1581697  21.1862864  34.5001098
  45.3009201  19.9509699  34.6761702  37.6774318  29.4518217  39.2310005
  38.3902290  30.0865682  39.1585907  37.1864346  29.5482083  38.4150007
  39.3991844  23.3569470  30.8027297  38.4648123  23.4770932  30.6332001
  39.5768513  22.4541937  30.5387307  42.7864396  19.1986789  31.3377331
  43.2524848  20.0314781  31.2637634  43.2371896  18.7331771  32.0422590
  32.7286231  27.2012661  40.0515576  33.4295691  27.8349144  40.2044970
  32.2581346  27.5427392  39.2911215  40.8540627  25.5430610  28.3363483
  41.1300471  25.4287205  29.2457357  39.9845126  25.1448095  28.2975656
  40.7581059  11.5667376  35.3768232  39.8444138  11.7971603  35.5450439
  41.1874160  11.6505820  36.2282265  40.5287517  19.7557268  37.8768127
  39.8758967  20.0033175  37.2220579  40.9067897  18.9421406  37.5430604
  37.4894691  29.7916961  31.9796297  37.6717085  28.9738617  32.4424049
  38.3127677  30.0084653  31.5421187  37.8236856  28.7185146  29.2411345
  38.3524623  28.2077601  28.6281507  38.0865076  28.4027677  30.1056878
  36.5775090  20.4977079  44.3634164  35.9015727  20.3971208  45.0336539
  37.4002724  20.3416293  44.8270161  28.3253949  26.7349016  36.9846679
  28.9107386  25.9892704  37.1174583  28.1278788  27.0452972  37.8683343
  31.1792604  29.7700263  32.0009121  30.5102980  30.2546391  31.5173161
  31.0405474  30.0169483  32.9152500  35.3197873  31.8044007  38.5991780
  35.8716181  31.9675628  39.3640865  35.6604066  32.3948444  37.9271804
  30.2962366  14.1519156  39.2013664  30.3603693  15.0133987  38.7891062
  30.2329486  13.5393158  38.4686023  29.7714639  16.2242289  42.8486699
  30.3986678  15.8419366  43.4624223  28.9142558  16.0056491  43.2142391
  40.1708747  26.6305264  44.4540434  40.7148651  27.2435222  43.9595389
  39.5895592  27.1884842  44.9707447  38.4566260  29.7525982  35.5855462
  38.3317400  28.9515722  35.0766407  39.1145351  30.2472175  35.0969432
  40.5201169  27.5535002  37.2135012  39.5731504  27.4340353  37.1413339
  40.8683942  26.6657500  37.2961273  32.8800742  13.4429141  41.0373254
  33.4035144  13.6891438  41.7999563  32.6613075  14.2749176  40.6176391
  37.5247602  27.3487718  33.4139364  37.3772564  26.4204426  33.5946934
  38.3501095  27.3707809  32.9296439  41.1281724  28.1716277  34.5004237
  42.0528271  27.9659138  34.3628688  40.9597027  27.9232678  35.4093578
  34.0853287  14.3842836  38.7222924  33.7450107  13.5850649  39.1243604
  33.3792293  14.6844547  38.1499757  34.7369759  11.4692149  37.1750247
  35.5595828  10.9952627  37.0529138  34.9807822  12.2482632  37.6748934
  32.2608338  18.1611269  34.9842226  32.1152918  18.4751572  35.8766507
  31.7833541  18.7796170  34.4313125  35.9730851  15.5851157  37.0776243
  35.7148629  16.5068228  37.0760573  35.4415892  15.1881592  37.7676707
  40.9177040  28.6901945  29.8566328  41.0913918  28.1248367  29.1040181
  41.4105931  29.4902839  29.6745818  26.7354000  20.7016614  37.9229887
  26.1907468  21.4776422  38.0550161  27.6133350  21.0487418  37.7649009
  46.7716431  21.4538367  31.4756628  47.2147577  20.7045693  31.0775751
  45.8942941  21.4448504  31.0930360  41.9052212  28.0068709  26.9563227
  42.6003117  28.6275402  27.1750541  42.2475363  27.1564060  27.2315604
  27.5220022  19.8286510  40.8160044  26.7801758  19.9769145  41.4024674
  27.2012766  20.0894776  39.9526793  43.8043636  25.4568414  28.4850557
  44.3294960  25.7955687  27.7599877  43.7165988  24.5215430  28.3013692
  35.4663684  29.3702488  40.6140434  35.7750811  29.1251635  41.4863134
  36.2639166  29.5749127  40.1259304  35.4884296  31.5240398  32.8445810
  35.0489287  31.0316776  33.5378667  36.2392413  30.9813365  32.6037886
  27.9676635  27.7151939  32.8470439  28.7934655  27.4155710  32.4669082
  27.6170687  26.9459561  33.2960227  32.9358169  27.0678407  34.9168112
  32.3138178  26.4049112  34.6170340  33.6063035  27.0939539  34.2341760
  26.1685240  25.6338265  33.8059372  25.3317149  25.2060439  33.6243373
  26.1408886  25.8270708  34.7430163  33.0082696  15.5460195  44.5100618
  33.0570851  16.4222318  44.1278388  33.5505210  15.0037588  43.9372261
  43.4937542  26.0901318  43.7901755  42.7033085  26.0725457  43.2506255
  43.2570896  26.6289612  44.5450792  43.6135417  22.9393784  41.1034484
  43.6633422  22.7743792  42.0450007  43.5049340  22.0721044  40.7132365
  40.9039179  18.9224713  42.4193791  41.8049042  18.7831177  42.1277788
  40.9787154  19.0879167  43.3591968  35.2381984  16.2991567  41.2646977
  34.3685294  16.5925133  40.9929565  35.4741465  16.8832012  41.9854240
  45.1153614  25.3590726  41.3476505  44.8238422  25.7220707  42.1839966
  44.5025745  24.6457734  41.1689837  46.3149296  22.9243606  33.8679076
  47.1496187  23.3633410  34.0316636  46.4508425  22.4482259  33.0487321
  43.3640802  20.4823341  39.8156563  43.8394923  20.6750987  39.0075415
  42.4406367  20.5382526  39.5699947  37.9421018  12.5171184  38.7812397
  38.4602962  13.2532211  38.4558886  37.5876151  12.8235177  39.6159156
  42.0642471  17.3589101  38.0484869  43.0159894  17.4587198  38.0697093
  41.8945921  16.5667369  38.5582953  40.0856850  14.4444684  38.2344270
  39.4906782  14.7249697  37.5390758  39.8006547  14.9338585  39.0061011
  39.2164341  28.3967611  26.9946902  40.1495014  28.3313172  27.1979778
  39.1287554  29.2323878  26.5361435  44.5430549  20.5795220  37.1627169
  44.5106869  19.6411221  37.3486852  45.1531172  20.6579257  36.4292993
  44.6925037  17.3706264  37.2085452  44.1764086  16.5864720  37.0215381
  45.5764986  17.0424980  37.3731971  50.3607098  21.6411227  36.3033205
  51.0910487  21.3796515  36.8640909  49.7514044  20.9039949  36.3435273
  48.4422396  19.7819090  36.9007657  47.7155559  19.6475055  36.2924148
  48.0269682  20.0895918  37.7064375  36.2652572  23.5009020  44.6655030
  37.1855581  23.6787619  44.8595076  36.2302155  22.5565065  44.5134729
  29.2614645  21.4110054  37.3077811  29.4800654  22.3427162  37.3265845
  29.6740418  21.0518029  38.0932615  34.1342510  16.9843260  46.6980560
  34.0339237  17.9337617  46.6292651  33.9164052  16.6561499  45.8256630
  25.3522997  22.3150525  35.5601426  24.6586468  21.9004477  35.0471380
  26.0995988  22.3571061  34.9634845  33.9973780  20.4140399  45.5145621
  33.5140862  21.2140759  45.7209510  34.0834719  20.4248344  44.5613065
  29.9247117  24.3044933  37.5514055  30.8790371  24.2728876  37.4843987
  29.7259641  23.8435557  38.3664281  30.5146500  22.8746050  40.1184853
  31.3339389  23.3690128  40.1419690  30.7883307  21.9578018  40.0902420
  43.6227632  15.2903323  33.1967148  44.3988022  15.7799775  33.4691764
  42.8975766  15.7161377  33.6539017  46.0600190  16.0030942  34.2541088
  46.6544681  15.7626678  33.5434396  46.1326774  15.2838073  34.8814624
  28.2797346  29.8464553  34.5684253  28.1451814  29.0864954  34.0022251
  27.8629408  30.5705453  34.1013042  40.2454119  20.7811338  29.6963098
  40.1889321  21.2379889  28.8570731  40.7982462  20.0202022  29.5185941
  44.0558925  16.5701070  30.5213218  43.7995860  16.1697705  31.3521426
  43.4311793  17.2844864  30.3963357  48.3671263  19.3097143  33.0284509
  47.8070821  19.3790332  33.8016071  47.7614767  19.1338128  32.3084006
  31.4366472  30.7433870  34.7802696  31.3198856  31.6879302  34.6781386
  30.6158918  30.4407432  35.1688495  41.3243007  25.4684006  25.6259288
  42.1588611  25.0365204  25.4436763  41.1627350  25.2966019  26.5536183
  25.7681414  17.2084183  40.8177050  26.4140277  16.6983137  41.3064275
  25.5598565  17.9452865  41.3920475  38.2934806  24.2765031  46.3169190
  39.1625966  24.4505683  45.9555825  37.8141557  25.0959448  46.1944920
  32.4620986  31.3962132  37.9958624  33.3648233  31.4285742  38.3125119
  32.2358356  30.4662583  38.0104960  34.2174588  30.1493118  34.6568703
  33.2670219  30.1494980  34.5433075  34.5207074  29.4025853  34.1404737
  30.1078905  14.3551800  44.9152064  30.9710366  13.9988605  45.1255389
  29.5344315  14.0165695  45.6027468  49.9527282  35.9853657  35.7214465
  50.5905692  35.8660404  35.0177805  49.8348125  36.9334501  35.7802417
  46.7616988  35.9381085  35.6575990  46.4235499  35.8222150  34.7696525
  47.6306756  35.5372250  35.6376996  42.6203804  37.7916561  31.6472881
  42.0568669  37.7006498  30.8789168  42.5056199  36.9716466  32.1275373
  47.2436771  37.0915937  41.6162195  47.2325412  36.6968735  40.7442699
  47.4057410  36.3582009  42.2095967  40.1668236  39.2867753  34.4857101
  40.9589528  38.9458578  34.0703400  40.4064886  39.3962728  35.4059255
  48.2003362  41.4587529  26.9587346  47.5491342  42.0441609  26.5721359
  48.9947725  41.9893724  27.0182383  42.1258990  38.5476666  27.3574480
  42.8989866  38.0005653  27.2187356  42.4784388  39.4120916  27.5688941
  43.9644032  39.8753048  40.5641379  43.6733898  40.7798679  40.4488046
  44.6001016  39.9169576  41.2785449  44.8900239  37.2529897  37.1542739
  45.4863811  37.0285919  36.4399702  44.9475210  36.5114642  37.7568187
  44.4625267  34.7069332  24.9892930  44.7150788  34.1850854  24.2276393
  43.5249826  34.5435478  25.0919614  49.5068550  33.7105111  32.7967673
  50.2931639  33.2924534  32.4458090  49.7707254  34.6151203  32.9649322
  49.6778628  39.1477961  27.4956330  49.0424460  39.2212588  28.2077235
  49.3476034  39.7371560  26.8175409  54.9076977  33.6480344  33.7000652
  55.6402149  33.0779561  33.9338481  54.1516333  33.2601944  34.1407157
  44.1821556  36.6097438  27.1917305  44.0657814  35.9342342  27.8598389
  44.2923816  36.1229812  26.3749458  46.5253097  36.0707585  30.8963994
  46.1611304  35.5438206  31.6076916  47.3820213  35.6806054  30.7230480
  52.4302398  27.3601918  38.1595260  52.0985722  28.2297329  37.9356475
  51.8348011  27.0438202  38.8389291  46.1658584  31.0997485  25.8925343
  46.3332986  31.9677721  26.2595814  45.9755753  31.2624767  24.9686632
  48.9233917  39.5614464  37.5591173  48.6234640  40.4639503  37.4506980
  48.5784977  39.2946647  38.4112326  42.3746399  36.0128261  33.5927877
  41.4496895  35.8804475  33.8005569  42.6230812  36.7922480  34.0897820
  52.3231061  32.0797004  35.2388610  51.4147938  32.0112413  34.9447371
  52.2718657  32.5568949  36.0670436  46.1447805  33.5555143  26.8772009
  46.0247430  34.0012193  27.7157490  45.4500393  33.9040460  26.3185548
  39.7355210  35.6561534  34.4271666  39.8647591  35.9096013  35.3411078
  39.0552661  36.2489242  34.1076322  43.9054697  46.3258784  30.5262141
  43.8278727  47.2766609  30.6050621  43.3016341  45.9804657  31.1837067
  46.3971927  33.4986650  43.1823508  45.6205261  34.0580570  43.1726372
  47.0362490  33.9843433  43.7038378  54.1892707  30.2813443  37.0166484
  53.5467088  30.5745976  36.3706279  53.6847636  30.1666363  37.8219681
  51.8432871  34.0276616  27.7052343  52.7550727  34.2604003  27.5300041
  51.3342518  34.6113660  27.1427422  44.6518299  36.3072103  42.7441475
  45.3932983  36.8457147  42.4676298  43.9455285  36.9338392  42.9013026
  50.1273639  38.4501244  41.3413636  50.5356995  38.0083654  40.5968268
  49.4050900  37.8753871  41.5947829  46.4804709  33.3873850  38.7147193
  47.3265904  33.8113264  38.8581842  46.4203346  32.7307475  39.4085756
  50.4502453  39.0102434  35.0965925  49.8211316  39.1748148  34.3941993
  50.0628115  39.4244044  35.8676889  54.3291685  39.9456872  32.4510289
  53.6442723  40.3255773  31.9007322  54.4135535  40.5552199  33.1842236
  49.6304154  31.0478219  40.3728367  49.3865086  31.8020279  39.8362642
  49.9064085  31.4263566  41.2075614  51.5842617  37.5916831  39.0505632
  51.7959512  38.2348591  38.3740013  51.5372365  36.7579148  38.5827562
  49.1868846  30.2034652  35.9542204  48.3253325  30.5015905  36.2458942
  49.2131280  30.4205051  35.0223237  46.0030415  38.7476842  32.3616010
  46.4668761  39.0264545  31.5720633  45.7387213  37.8460287  32.1789101
  42.8954496  38.2948324  35.2995773  43.4655853  38.7235592  34.6613258
  43.4862608  38.0130909  35.9979959  44.9399301  34.8699995  29.1705575
  45.6423345  35.3221038  29.6379502  44.6079930  34.2283814  29.7985468
  43.3879663  33.4611751  43.5456785  42.7578323  34.1428032  43.7792181
  43.2815751  33.3494833  42.6009923  38.6824635  33.1283547  34.4722709
  37.8923689  33.3841076  33.9962819  39.1735883  33.9431885  34.5774749
  52.6988445  40.4688787  37.2227990  53.5205889  40.0668974  36.9410671
  52.6950848  40.3657021  38.1744105  40.6339381  33.4928127  31.4306185
  39.8370544  33.6046821  31.9489681  40.4064973  33.8314779  30.5647076
  46.4645048  40.0172830  39.3788700  46.5289481  40.4793237  40.2146872
  45.7555972  39.3870195  39.5071010  36.9662338  33.3814038  36.9037700
  37.2170377  34.2661048  37.1695275  37.5021887  33.2018639  36.1312791
  60.7894438  36.8127535  33.5712961  60.0358146  36.2434933  33.4156965
  60.9241979  36.7790199  34.5183596  46.1793066  41.6840937  29.2467680
  46.0438741  42.5292473  29.6752528  46.7202878  41.8860215  28.4833614
  42.6660406  27.7632517  45.9082036  42.2727351  27.2098716  46.5829680
  43.4826546  28.0743096  46.2988553  39.6322463  39.2016375  29.8195605
  40.1446984  39.9959626  29.9701170  40.2845176  38.5042666  29.7529207
  41.4417348  42.3182132  31.9018359  41.6183976  43.2400096  31.7139343
  42.2374182  42.0040551  32.3312738  45.5828367  29.1790396  43.5002292
  46.3238080  29.7797549  43.4206755  45.8146289  28.4368034  42.9420335
  40.7269705  34.3646763  41.7780522  40.6123220  33.4632021  42.0787621
  39.8714222  34.6110460  41.4265338  47.8061542  42.3064504  43.3768022
  47.3625396  41.5200882  43.0588927  48.4678756  42.4943654  42.7111913
  42.5648663  43.8360305  37.9028701  43.1156089  43.7077369  37.1305695
  41.7260139  44.1355194  37.5523594  49.9042780  42.5867304  41.4049424
  49.8861256  43.4076185  40.9129693  50.8262700  42.4621379  41.6299565
  46.3615835  40.1011433  42.2472932  46.8944171  39.3399721  42.0172240
  45.8329916  39.8085085  42.9897087  49.5285529  25.2071499  37.7766574
  49.1849799  26.0973141  37.7005684  49.8964492  25.0173157  36.9136159
  37.5971380  37.5305030  30.5955176  38.4346602  37.9402038  30.3788884
  37.7749648  36.5904472  30.5655370  49.4935812  35.1980110  26.2839009
  48.9782436  35.9684715  26.5227396  49.2213121  34.5245246  26.9072070
  47.0782923  30.0429811  31.3424247  46.2224520  29.6536661  31.1629886
  47.4909875  30.1221772  30.4824033  48.6082070  27.5776154  35.7415807
  48.1046865  27.5406289  34.9283612  48.9012677  28.4868897  35.8012464
  44.8524956  27.6614884  34.7481989  45.7177953  27.4657693  34.3887878
  44.9202465  27.4325236  35.6751346  54.4670086  37.9512465  28.2192182
  53.6899529  37.6123624  27.7747345  55.1461567  37.9565088  27.5447148
  49.2822115  33.0707202  28.1098790  48.9772251  33.3853352  28.9608933
  50.2352557  33.1488622  28.1526123  47.7268547  39.2297426  29.7591744
  47.1989909  38.4950185  29.4464982  47.2256050  40.0072102  29.5131712
  52.7061393  37.4246446  34.8758790  52.0485068  38.1145708  34.9638919
  53.5101792  37.8142878  35.2192777  42.4587275  29.8917092  32.1198356
  43.0331027  29.6692273  31.3871549  43.0458257  29.9605786  32.8726957
  51.5166852  35.7790819  32.9262732  52.0298734  36.4120811  33.4284442
  52.1668076  35.1792014  32.5606092  42.7856862  31.9221553  26.1394241
  41.9494174  32.2596240  26.4603516  42.6461632  31.7870533  25.2021378
  44.7609943  26.7658341  30.8473425  44.1074355  26.4507358  30.2230040
  44.7190417  26.1434081  31.5733248  45.8721147  37.0477636  22.7626717
  44.9648209  36.8166889  22.9617866  46.3692179  36.2515255  22.9500699
  48.7789226  45.7575143  25.6823403  48.1050925  46.0606840  26.2908361
  49.1655048  46.5604223  25.3328860  47.9947683  33.2540274  35.1721073
  47.0770244  33.4755221  35.0142761  48.4107827  33.3286585  34.3132780
  48.7782731  34.6531690  30.3023753  49.5254550  35.1653087  29.9930875
  49.0474320  34.3315743  31.1628147  47.0509381  37.1490231  27.2850707
  46.1420600  36.8649264  27.3823177  47.0804465  37.5689309  26.4254014
  52.2828648  40.7596820  31.0541875  51.8290975  39.9187730  31.1107065
  51.6522615  41.3958219  31.3916655  51.2261568  31.6888806  32.2842542
  50.4884325  31.1766193  32.6152785  51.4788341  31.2489188  31.4725819
  50.7261587  42.5973317  31.9891693  51.0184562  43.1578374  31.2704059
  51.2360208  42.8901878  32.7444852  51.3273195  24.4665058  32.8784312
  51.6332072  23.6062422  32.5910227  52.0525800  25.0582679  32.6783305
  37.6197551  34.8695745  31.2665909  37.4221951  34.2765106  30.5416976
  37.0644215  34.5647955  31.9841848  45.5994275  34.7618851  33.3860503
  45.6542885  33.8092688  33.3102979  44.7885477  34.9178291  33.8701801
  46.7485469  38.6898974  24.6238786  46.3104899  37.9734833  24.1644423
  47.4895909  38.9175089  24.0623877  43.5386635  33.3795911  31.1450881
  42.7254500  33.6790082  31.5516074  44.0345629  32.9851600  31.8625364
  45.6895213  43.3753668  33.0785146  45.6471391  43.6014514  32.1493678
  46.6057912  43.1417043  33.2270947  49.1360846  33.8437736  39.9765775
  49.4910234  34.0709209  40.8360241  49.7832978  34.1756112  39.3543031
  54.8658583  36.9656172  30.6815104  54.7276482  37.1557767  29.7536294
  54.5094802  37.7275554  31.1383156  43.0300710  30.9514267  36.7612116
  43.6700089  30.8103026  36.0635080  42.1978240  30.6648780  36.3850718
  54.8927963  39.0332699  35.6926376  55.3264470  38.9407988  36.5409430
  55.6059544  39.0090199  35.0546392  43.8061013  40.2516697  32.8747109
  44.6001612  39.7567017  32.6729684  43.0952706  39.7234560  32.5114814
  48.6255858  42.6334793  37.2259477  48.6792880  43.2025729  37.9937192
  47.7570639  42.8036678  36.8613514  40.1143777  34.3959779  28.9506862
  39.1841365  34.3344234  29.1676824  40.2101249  33.8735732  28.1543503
  40.0329326  30.9214592  31.5385103  40.2936143  31.8359925  31.4294264
  40.8546498  30.4539034  31.6881716  41.5054251  32.3352349  38.7083928
  42.1777305  32.1269711  38.0596577  40.6784038  32.1374435  38.2689160
  55.7543513  39.0756399  38.2259261  55.9479403  39.9802210  38.4718536
  55.6544131  38.6163818  39.0597846  47.4079823  28.9614290  40.7249589
  46.7607738  29.6604239  40.6314065  48.1780839  29.3950434  41.0925837
  50.8158621  39.2263142  43.8000142  50.6644128  38.9973694  42.8830226
  50.8063301  40.1833743  43.8131487  47.5843958  36.7995055  38.7846408
  48.5136018  36.9506214  38.6115376  47.1634988  36.8879075  37.9295055
  46.3832289  40.8245719  36.5544946  46.2443375  40.4564503  37.4270884
  45.5946886  41.3393359  36.3828904  46.9780441  45.9254816  27.8970483
  47.1532197  45.4542859  28.7116105  46.2913229  46.5520582  28.1251743
  47.9337505  40.2027322  33.9433784  47.5987337  40.1628092  34.8391434
  47.4341450  39.5372038  33.4704194  41.9081749  35.6094952  39.4686365
  41.7701546  34.8775191  40.0697904  42.8186672  35.5203852  39.1870553
  50.8696696  37.5483356  24.2170843  50.2525867  36.8230184  24.1203896
  50.4013185  38.3092716  23.8737918  44.5364049  35.3214911  38.9570045
  45.2463668  34.6808103  38.9156663  44.4933357  35.5727806  39.8796225
  52.5250828  42.2582264  41.8776624  52.4663374  41.5741485  41.2107207
  52.9270346  43.0001254  41.4257250  43.2492983  32.3080129  40.7765684
  42.7130340  31.8570867  41.4287280  42.6609692  32.4426038  40.0336148
  41.5441527  49.0744178  34.6710343  41.7838125  49.7062702  35.3489361
  40.7010723  48.7232218  34.9575702  42.6595242  31.7668780  23.3392148
  41.7824708  31.6457581  22.9754394  43.1352995  30.9754859  23.0871036
  52.5268235  40.2221848  40.1090603  51.6395014  39.8847770  40.2317002
  53.0966786  39.4904880  40.3459369  34.1797382  36.5545940  33.4333655
  34.8668422  36.2407670  32.8454670  34.0245511  37.4587305  33.1600906
  38.9832104  31.4436137  37.8618679  38.8990293  30.8361806  37.1269088
  38.1614811  31.9345155  37.8628175  46.0569389  44.8823301  37.0751847
  45.9839560  45.6878272  37.5871151  45.6146782  45.0815267  36.2499868
  45.8459168  44.1195071  30.5854668  45.0626690  44.6616751  30.6792893
  46.5451913  44.6369050  30.9848909  49.1555818  29.9289700  33.2288874
  49.6524518  29.1759663  32.9089944  48.3842800  29.9654017  32.6632083
  57.0085576  35.6330066  34.8707165  56.9975452  36.5154781  34.5001098
  56.1402955  35.2801617  34.6761702  48.5168072  44.7810135  39.2310005
  49.2296044  45.4157600  39.1585907  48.0258101  44.8774001  38.4150007
  50.2385599  38.6861387  30.8027297  49.3041878  38.8062850  30.6332001
  50.4162267  37.7833854  30.5387307  45.7390787  32.0707083  32.9560558
  45.3688575  31.5178124  33.6441464  46.2349879  31.4665217  32.4035558
  53.6258150  34.5278707  31.3377331  54.0918603  35.3606698  31.2637634
  54.0765651  34.0623688  32.0422590  43.5679986  42.5304578  40.0515576
  44.2689445  43.1641061  40.2044970  43.0975101  42.8719310  39.2911215
  51.6934381  40.8722528  28.3363483  51.9694225  40.7579123  29.2457357
  50.8238880  40.4740013  28.2975656  51.5974813  26.8959294  35.3768232
  50.6837893  27.1263521  35.5450439  52.0267915  26.9797738  36.2282265
  51.3681272  35.0849186  37.8768127  50.7152722  35.3325093  37.2220579
  51.7461651  34.2713324  37.5430604  48.3288445  45.1208879  31.9796297
  48.5110840  44.3030535  32.4424049  49.1521431  45.3376571  31.5421187
  48.6630611  44.0477064  29.2411345  49.1918377  43.5369519  28.6281507
  48.9258831  43.7319594  30.1056878  47.4168845  35.8268997  44.3634164
  46.7409482  35.7263126  45.0336539  48.2396478  35.6708211  44.8270161
  39.1647704  42.0640933  36.9846679  39.7501140  41.3184621  37.1174583
  38.9672542  42.3744890  37.8683343  42.0186359  45.0992181  32.0009121
  41.3496734  45.5838308  31.5173161  41.8799229  45.3461401  32.9152500
  33.7565358  34.6346534  35.7051122  33.7949458  34.1010124  36.4988240
  33.2505651  34.1081739  35.0862099  46.1591627  47.1335924  38.5991780
  46.7109936  47.2967546  39.3640865  46.4997821  47.7240362  37.9271804
  41.1356121  29.4811074  39.2013664  41.1997447  30.3425905  38.7891062
  41.0723241  28.8685076  38.4686023  40.6108393  31.5534207  42.8486699
  41.2380432  31.1711284  43.4624223  39.7536312  31.3348408  43.2142391
  51.0102502  41.9597182  44.4540434  51.5542406  42.5727140  43.9595389
  50.4289347  42.5176760  44.9707447  37.3873936  33.3610636  28.7805053
  37.6827377  32.4521314  28.7272107  36.4861972  33.3398375  28.4586056
  49.2960015  45.0817900  35.5855462  49.1711154  44.2807640  35.0766407
  49.9539106  45.5764093  35.0969432  40.9168183  31.4366632  34.7632602
  40.1954769  32.0502600  34.6240075  41.7061439  31.9724397  34.6849248
  51.3594923  42.8826920  37.2135012  50.4125259  42.7632271  37.1413339
  51.7077696  41.9949418  37.2961273  43.7194497  28.7721059  41.0373254
  44.2428898  29.0183355  41.7999563  43.5006830  29.6041094  40.6176391
  39.1161778  31.0424733  28.9044379  38.7874484  30.1622112  28.7219484
  39.4701148  30.9872402  29.7920768  48.3641356  42.6779636  33.4139364
  48.2166319  41.7496343  33.5946934  49.1894850  42.6999727  32.9296439
  42.2303601  31.3297703  29.2719856  42.5699673  31.8583624  28.5498465
  42.6775721  31.6678109  30.0478423  51.9675478  43.5008195  34.5004237
  52.8922026  43.2951056  34.3628688  51.7990782  43.2524596  35.4093578
  44.9247042  29.7134754  38.7222924  44.5843862  28.9142567  39.1243604
  44.2186048  30.0136465  38.1499757  45.5763513  26.7984066  37.1750247
  46.3989583  26.3244544  37.0529138  45.8201577  27.5774550  37.6748934
  44.2171748  29.8272325  27.4713149  44.9380110  30.2053578  26.9676866
  43.5937052  30.5461202  27.5748127  48.3602871  30.5317474  28.4071481
  48.5766485  31.4142112  28.1060309  47.8796938  30.1403687  27.6777123
  43.1002092  33.4903187  34.9842226  42.9546673  33.8043490  35.8766507
  42.6227296  34.1088087  34.4313125  44.9598475  30.4805735  35.0323115
  44.9460044  29.5846828  34.6955413  45.6770903  30.4876399  35.6661401
  46.8124606  30.9143075  37.0776243  46.5542384  31.8360146  37.0760573
  46.2809646  30.5173510  37.7676707  51.7570794  44.0193862  29.8566328
  51.9307672  43.4540285  29.1040181  52.2499686  44.8194757  29.6745818
  37.5747754  36.0308531  37.9229887  37.0301222  36.8068339  38.0550161
  38.4527104  36.3779336  37.7649009  44.3635371  29.3620115  30.3010686
  44.4851282  28.4336761  30.5001573  44.0737413  29.3758801  29.3889001
  47.2326561  27.0475026  33.4377405  47.2548258  27.1114359  32.4829385
  47.6494620  26.2079534  33.6317912  57.6110186  36.7830285  31.4756628
  58.0541332  36.0337610  31.0775751  56.7336696  36.7740422  31.0930360
  52.7445967  43.3360627  26.9563227  53.4396872  43.9567319  27.1750541
  53.0869117  42.4855978  27.2315604  38.3613776  35.1578428  40.8160044
  37.6195512  35.3061063  41.4024674  38.0406520  35.4186693  39.9526793
  54.6437390  40.7860332  28.4850557  55.1688714  41.1247605  27.7599877
  54.5559743  39.8507347  28.3013692  46.3057439  44.6994406  40.6140434
  46.6144565  44.4543553  41.4863134  47.1032921  44.9041044  40.1259304
  46.3278051  46.8532315  32.8445810  45.8883041  46.3608694  33.5378667
  47.0786168  46.3105283  32.6037886  38.8070390  43.0443856  32.8470439
  39.6328410  42.7447628  32.4669082  38.4564442  42.2751479  33.2960227
  43.7751923  42.3970325  34.9168112  43.1531932  41.7341030  34.6170340
  44.4456790  42.4231456  34.2341760  37.0078995  40.9630183  33.8059372
  36.1710903  40.5352357  33.6243373  36.9802640  41.1562626  34.7430163
  43.8476450  30.8752113  44.5100618  43.8964606  31.7514235  44.1278388
  44.3898965  30.3329506  43.9372261  54.3331296  41.4193236  43.7901755
  53.5426840  41.4017375  43.2506255  54.0964651  41.9581529  44.5450792
  54.4529171  38.2685702  41.1034484  54.5027176  38.1035710  42.0450007
  54.3443095  37.4012961  40.7132365  43.3365430  40.9474248  28.3926573
  43.4853550  41.6309712  27.7393245  44.1431873  40.9279338  28.9076028
  51.7432934  34.2516630  42.4193791  52.6442796  34.1123095  42.1277788
  51.8180908  34.4171085  43.3591968  46.0775739  31.6283485  41.2646977
  45.2079048  31.9217051  40.9929565  46.3135219  32.2123930  41.9854240
  55.9547368  40.6882644  41.3476505  55.6632176  41.0512624  42.1839966
  55.3419499  39.9749652  41.1689837  57.1543050  38.2535523  33.8679076
  57.9889942  38.6925328  34.0316636  57.2902179  37.7774177  33.0487321
  54.2034556  35.8115258  39.8156563  54.6788678  36.0042905  39.0075415
  53.2800122  35.8674444  39.5699947  41.0918063  36.9739426  29.3987642
  40.8464105  36.0701755  29.5967852  41.2613977  36.9756576  28.4567120
  48.7814773  27.8463102  38.7812397  49.2996717  28.5824129  38.4558886
  48.4269906  28.1527095  39.6159156  40.3613710  32.7067783  26.8973803
  39.6682955  32.7812138  26.2413839  40.1165462  31.9428127  27.4195320
  49.0327367  24.2663384  34.3013294  49.3129121  23.5986573  34.9273720
  49.8177974  24.4592480  33.7887958  46.8360835  43.4422378  25.8638320
  46.2634803  44.0612565  25.4108792  47.4093629  43.9921740  26.3978242
  52.9036225  32.6881018  38.0484869  53.8553648  32.7879116  38.0697093
  52.7339676  31.8959287  38.5582953  50.9250605  29.7736602  38.2344270
  50.3300537  30.0541614  37.5390758  50.6400301  30.2630503  39.0061011
  50.0558095  43.7259528  26.9946902  50.9888768  43.6605090  27.1979778
  49.9681308  44.5615795  26.5361435  52.6846112  43.0425399  23.9550850
  52.6059743  42.7085262  24.8486608  53.5055779  43.5347167  23.9542322
  55.3824303  35.9087138  37.1627169  55.3500623  34.9703139  37.3486852
  55.9924927  35.9871175  36.4292993  47.2207634  34.7783191  23.2054373
  48.1666739  34.6489399  23.2742791  46.8421879  34.0397853  23.6823801
  55.5318792  32.6998182  37.2085452  55.0157840  31.9156638  37.0215381
  56.4158740  32.3716898  37.3731971  53.1929518  26.4439197  33.1681264
  52.9954340  26.1354285  34.0524596  53.8029224  27.1700836  33.2979194
  61.2000853  36.9703145  36.3033205  61.9304241  36.7088433  36.8640909
  60.5907798  36.2331867  36.3435273  59.2816150  35.1111008  36.9007657
  58.5549314  34.9766972  36.2924148  58.8663437  35.4187836  37.7064375
  47.1046326  38.8300937  44.6655030  48.0249336  39.0079536  44.8595076
  47.0695910  37.8856983  44.5134729  45.4050551  32.7033167  23.1409258
  44.4982006  32.4066280  23.2171971  45.6826532  32.4062986  22.2743544
  36.3228491  34.0239531  33.5908304  36.0031276  33.1704839  33.2982678
  35.7761920  34.2388109  34.3466272  40.1008399  36.7401972  37.3077811
  40.3194409  37.6719080  37.3265845  40.5134173  36.3809946  38.0932615
  47.0212617  27.2470057  29.2953499  46.2113345  26.9017142  29.6708745
  47.7097034  26.9377601  29.8841111  48.9503165  26.3248104  30.9177796
  49.5034204  26.7443557  31.5767819  49.1873251  25.3983852  30.9600752
  44.9736264  32.3135178  46.6980560  44.8732991  33.2629535  46.6292651
  44.7557806  31.9853417  45.8256630  44.1749336  29.5620103  23.2821237
  45.0368500  29.8875001  23.5417054  44.3599680  28.7751599  22.7694303
  36.1916751  37.6442442  35.5601426  35.4980223  37.2296395  35.0471380
  36.9389742  37.6862979  34.9634845  52.3281972  28.4348629  30.4256460
  51.7480641  29.0933433  30.0434512  52.0617905  27.6125974  30.0143878
  50.7785539  27.8353687  32.6277780  51.2785317  27.9470221  31.8192099
  51.4221146  27.5314740  33.2678589  44.8367534  35.7432316  45.5145621
  44.3534616  36.5432677  45.7209510  44.9228473  35.7540261  44.5613065
  38.1053494  37.5760696  33.4367441  38.0824182  37.6748383  32.4849324
  38.4154130  38.4225847  33.7584607  40.7640872  39.6336851  37.5514055
  41.7184125  39.6020793  37.4843987  40.5653395  39.1727475  38.3664281
  41.3540254  38.2037967  40.1184853  42.1733143  38.6982046  40.1419690
  41.6277062  37.2869935  40.0902420  51.1106850  30.5948720  29.4812808
  50.2232705  30.8798370  29.2633003  51.5260839  30.4342483  28.6340085
  54.4621386  30.6195240  33.1967148  55.2381776  31.1091693  33.4691764
  53.7369521  31.0453295  33.6539017  56.8993945  31.3322860  34.2541088
  57.4938436  31.0918596  33.5434396  56.9720529  30.6129990  34.8814624
  39.1191101  45.1756471  34.5684253  38.9845569  44.4156872  34.0022251
  38.7023163  45.8997371  34.1013042  50.2550064  40.3593394  23.5760828
  50.9585914  40.5643397  24.1918484  49.5312712  40.9270156  23.8409912
  51.0847874  36.1103255  29.6963098  51.0283075  36.5671807  28.8570731
  51.6376216  35.3493940  29.5185941  54.8952680  31.8992987  30.5213218
  54.6389614  31.4989623  31.3521426  54.2705548  32.6136781  30.3963357
  59.2065018  34.6389061  33.0284509  58.6464576  34.7082250  33.8016071
  58.6008521  34.4630045  32.3084006  42.2760227  46.0725788  34.7802696
  42.1592611  47.0171220  34.6781386  41.4552673  45.7699349  35.1688495
  52.1636761  40.7975923  25.6259288  52.9982365  40.3657122  25.4436763
  52.0021104  40.6257937  26.5536183  51.8182653  37.3008037  26.9915628
  51.7631457  37.1352308  26.0504072  51.1928709  38.0084070  27.1477817
  36.6075168  32.5376101  40.8177050  37.2534032  32.0275055  41.3064275
  36.3992319  33.2744783  41.3920475  49.1328560  39.6056949  46.3169190
  50.0019720  39.7797601  45.9555825  48.6535312  40.4251365  46.1944920
  45.1278779  26.8016146  26.5700946  45.1157449  27.7457986  26.7269217
  46.0202201  26.6186291  26.2760407  43.3014741  46.7254050  37.9958624
  44.2041987  46.7577660  38.3125119  43.0752111  45.7954501  38.0104960
  45.0568343  45.4785036  34.6568703  44.1063974  45.4786898  34.5433075
  45.3600829  44.7317771  34.1404737  48.9430898  23.3958922  30.8246883
  48.1763294  22.8417409  30.9703565  49.3541603  23.4680791  31.6861034
  40.9472659  29.6843718  44.9152064  41.8104121  29.3280523  45.1255389
  40.3738070  29.3457613  45.6027468  60.7921036  51.3145575  35.7214465
  61.4299446  51.1952322  35.0177805  60.6741879  52.2626418  35.7802417
  57.6010742  51.2673003  35.6575990  57.2629254  51.1514067  34.7696525
  58.4700511  50.8664168  35.6376996  53.4597558  53.1208479  31.6472881
  52.8962423  53.0298416  30.8789168  53.3449953  52.3008383  32.1275373
  58.0830525  52.4207854  41.6162195  58.0719166  52.0260653  40.7442699
  58.2451165  51.6873927  42.2095967  51.0061990  54.6159671  34.4857101
  51.7983282  54.2750495  34.0703400  51.2458640  54.7254646  35.4059255
  59.0397117  56.7879447  26.9587346  58.3885097  57.3733527  26.5721359
  59.8341480  57.3185642  27.0182383  52.9652744  53.8768584  27.3574480
  53.7383620  53.3297571  27.2187356  53.3178143  54.7412833  27.5688941
  54.8037787  55.2044966  40.5641379  54.5127653  56.1090597  40.4488046
  55.4394771  55.2461494  41.2785449  55.7293993  52.5821815  37.1542739
  56.3257566  52.3577837  36.4399702  55.7868965  51.8406560  37.7568187
  55.3019022  50.0361250  24.9892930  55.5544543  49.5142771  24.2276393
  54.3643581  49.8727395  25.0919614  60.3462305  49.0397028  32.7967673
  61.1325394  48.6216452  32.4458090  60.6101009  49.9443121  32.9649322
  60.5172382  54.4769879  27.4956330  59.8818215  54.5504505  28.2077235
  60.1869788  55.0663477  26.8175409  65.7470732  48.9772262  33.7000652
  66.4795904  48.4071478  33.9338481  64.9910087  48.5893862  34.1407157
  55.0215311  51.9389356  27.1917305  54.9051569  51.2634259  27.8598389
  55.1317570  51.4521730  26.3749458  57.3646852  51.3999503  30.8963994
  57.0005059  50.8730124  31.6076916  58.2213967  51.0097972  30.7230480
  63.2696152  42.6893836  38.1595260  62.9379477  43.5589247  37.9356475
  62.6741766  42.3730120  38.8389291  57.0052338  46.4289403  25.8925343
  57.1726741  47.2969639  26.2595814  56.8149508  46.5916684  24.9686632
  59.7627672  54.8906382  37.5591173  59.4628395  55.7931420  37.4506980
  59.4178731  54.6238565  38.4112326  53.2140153  51.3420178  33.5927877
  52.2890650  51.2096393  33.8005569  53.4624566  52.1214398  34.0897820
  63.1624815  47.4088922  35.2388610  62.2541693  47.3404330  34.9447371
  63.1112411  47.8860867  36.0670436  56.9841559  48.8847060  26.8772009
  56.8641185  49.3304111  27.7157490  56.2894148  49.2332378  26.3185548
  50.5748964  50.9853452  34.4271666  50.7041345  51.2387931  35.3411078
  49.8946415  51.5781160  34.1076322  54.7448451  61.6550702  30.5262141
  54.6672481  62.6058527  30.6050621  54.1410095  61.3096574  31.1837067
  57.2365681  48.8278567  43.1823508  56.4599015  49.3872488  43.1726372
  57.8756244  49.3135350  43.7038378  65.0286462  45.6105360  37.0166484
  64.3860842  45.9037893  36.3706279  64.5241390  45.4958281  37.8219681
  62.6826626  49.3568533  27.7052343  63.5944482  49.5895920  27.5300041
  62.1736273  49.9405578  27.1427422  55.4912054  51.6364021  42.7441475
  56.2326738  52.1749065  42.4676298  54.7849039  52.2630310  42.9013026
  60.9667393  53.7793161  41.3413636  61.3750749  53.3375572  40.5968268
  60.2444655  53.2045789  41.5947829  57.3198463  48.7165768  38.7147193
  58.1659658  49.1405182  38.8581842  57.2597101  48.0599392  39.4085756
  61.2896208  54.3394352  35.0965925  60.6605070  54.5040066  34.3941993
  60.9021870  54.7535961  35.8676889  65.1685440  55.2748790  32.4510289
  64.4836478  55.6547691  31.9007322  65.2529289  55.8844116  33.1842236
  60.4697909  46.3770136  40.3728367  60.2258840  47.1312197  39.8362642
  60.7457839  46.7555484  41.2075614  62.4236371  52.9208749  39.0505632
  62.6353267  53.5640509  38.3740013  62.3766120  52.0871065  38.5827562
  60.0262600  45.5326569  35.9542204  59.1647079  45.8307823  36.2458942
  60.0525035  45.7496968  35.0223237  56.8424170  54.0768760  32.3616010
  57.3062515  54.3556463  31.5720633  56.5780968  53.1752205  32.1789101
  53.7348251  53.6240242  35.2995773  54.3049608  54.0527510  34.6613258
  54.3256363  53.3422826  35.9979959  55.7793056  50.1991912  29.1705575
  56.4817099  50.6512956  29.6379502  55.4473684  49.5575731  29.7985468
  54.2273417  48.7903669  43.5456785  53.5972078  49.4719950  43.7792181
  54.1209505  48.6786751  42.6009923  49.5218390  48.4575465  34.4722709
  48.7317444  48.7132994  33.9962819  50.0129637  49.2723803  34.5774749
  63.5382199  55.7980704  37.2227990  64.3599643  55.3960891  36.9410671
  63.5344602  55.6948938  38.1744105  51.4733135  48.8220044  31.4306185
  50.6764298  48.9338738  31.9489681  51.2458727  49.1606696  30.5647076
  57.3038803  55.3464747  39.3788700  57.3683235  55.8085155  40.2146872
  56.5949727  54.7162112  39.5071010  47.8056093  48.7105955  36.9037700
  48.0564131  49.5952965  37.1695275  48.3415641  48.5310557  36.1312791
  71.6288192  52.1419453  33.5712961  70.8751901  51.5726851  33.4156965
  71.7635734  52.1082117  34.5183596  57.0186820  57.0132855  29.2467680
  56.8832495  57.8584391  29.6752528  57.5596633  57.2152133  28.4833614
  53.5054160  43.0924435  45.9082036  53.1121106  42.5390633  46.5829680
  54.3220300  43.4035013  46.2988553  50.4716218  54.5308293  29.8195605
  50.9840738  55.3251543  29.9701170  51.1238931  53.8334583  29.7529207
  52.2811102  57.6474049  31.9018359  52.4577731  58.5692014  31.7139343
  53.0767936  57.3332468  32.3312738  56.4222121  44.5082314  43.5002292
  57.1631834  45.1089467  43.4206755  56.6540044  43.7659952  42.9420335
  51.5663459  49.6938681  41.7780522  51.4516974  48.7923938  42.0787621
  50.7107977  49.9402378  41.4265338  58.6455297  57.6356421  43.3768022
  58.2019151  56.8492800  43.0588927  59.3072510  57.8235572  42.7111913
  53.4042418  59.1652223  37.9028701  53.9549843  59.0369286  37.1305695
  52.5653894  59.4647112  37.5523594  60.7436535  57.9159221  41.4049424
  60.7255010  58.7368102  40.9129693  61.6656455  57.7913297  41.6299565
  57.2009589  55.4303351  42.2472932  57.7337926  54.6691639  42.0172240
  56.6723670  55.1377003  42.9897087  60.3679284  40.5363417  37.7766574
  60.0243553  41.4265059  37.7005684  60.7358247  40.3465074  36.9136159
  48.4365135  52.8596947  30.5955176  49.2740357  53.2693956  30.3788884
  48.6143402  51.9196389  30.5655370  60.3329567  50.5272028  26.2839009
  59.8176190  51.2976633  26.5227396  60.0606875  49.8537164  26.9072070
  57.9176678  45.3721729  31.3424247  57.0618274  44.9828579  31.1629886
  58.3303629  45.4513690  30.4824033  59.4475824  42.9068072  35.7415807
  58.9440620  42.8698207  34.9283612  59.7406431  43.8160815  35.8012464
  55.6918710  42.9906802  34.7481989  56.5571707  42.7949610  34.3887878
  55.7596219  42.7617153  35.6751346  65.3063841  53.2804383  28.2192182
  64.5293284  52.9415542  27.7747345  65.9855322  53.2857006  27.5447148
  60.1215870  48.3999120  28.1098790  59.8166005  48.7145269  28.9608933
  61.0746312  48.4780540  28.1526123  58.5662302  54.5589343  29.7591744
  58.0383663  53.8242103  29.4464982  58.0649804  55.3364020  29.5131712
  63.5455148  52.7538364  34.8758790  62.8878822  53.4437625  34.9638919
  64.3495547  53.1434796  35.2192777  53.2981029  45.2209010  32.1198356
  53.8724781  44.9984191  31.3871549  53.8852012  45.2897704  32.8726957
  62.3560607  51.1082737  32.9262732  62.8692488  51.7412728  33.4284442
  63.0061830  50.5083932  32.5606092  53.6250616  47.2513471  26.1394241
  52.7887929  47.5888157  26.4603516  53.4855386  47.1162450  25.2021378
  55.6003697  42.0950259  30.8473425  54.9468109  41.7799276  30.2230040
  55.5584171  41.4725999  31.5733248  56.7114902  52.3769554  22.7626717
  55.8041964  52.1458807  22.9617866  57.2085934  51.5807173  22.9500699
  59.6182981  61.0867061  25.6823403  58.9444680  61.3898758  26.2908361
  60.0048803  61.8896141  25.3328860  58.8341437  48.5832192  35.1721073
  57.9163999  48.8047139  35.0142761  59.2501581  48.6578503  34.3132780
  59.6176485  49.9823608  30.3023753  60.3648304  50.4945005  29.9930875
  59.8868075  49.6607660  31.1628147  57.8903135  52.4782148  27.2850707
  56.9814355  52.1941181  27.3823177  57.9198219  52.8981227  26.4254014
  63.1222403  56.0888738  31.0541875  62.6684730  55.2479648  31.1107065
  62.4916369  56.7250136  31.3916655  62.0655322  47.0180724  32.2842542
  61.3278079  46.5058110  32.6152785  62.3182096  46.5781106  31.4725819
  61.5655342  57.9265235  31.9891693  61.8578316  58.4870292  31.2704059
  62.0753963  58.2193796  32.7444852  62.1666950  39.7956976  32.8784312
  62.4725826  38.9354339  32.5910227  62.8919554  40.3874596  32.6783305
  48.4591306  50.1987663  31.2665909  48.2615706  49.6057023  30.5416976
  47.9037970  49.8939873  31.9841848  56.4388029  50.0910769  33.3860503
  56.4936639  49.1384605  33.3102979  55.6279231  50.2470208  33.8701801
  57.5879223  54.0190892  24.6238786  57.1498653  53.3026751  24.1644423
  58.3289664  54.2467007  24.0623877  54.3780389  48.7087829  31.1450881
  53.5648255  49.0081999  31.5516074  54.8739383  48.3143518  31.8625364
  56.5288967  58.7045586  33.0785146  56.4865146  58.9306432  32.1493678
  57.4451666  58.4708960  33.2270947  59.9754601  49.1729653  39.9765775
  60.3303989  49.4001126  40.8360241  60.6226732  49.5048030  39.3543031
  65.7052338  52.2948089  30.6815104  65.5670236  52.4849685  29.7536294
  65.3488557  53.0567472  31.1383156  53.8694464  46.2806184  36.7612116
  54.5093843  46.1394943  36.0635080  53.0371995  45.9940698  36.3850718
  65.7321717  54.3624616  35.6926376  66.1658224  54.2699905  36.5409430
  66.4453298  54.3382117  35.0546392  54.6454768  55.5808615  32.8747109
  55.4395366  55.0858935  32.6729684  53.9346460  55.0526478  32.5114814
  59.4649612  57.9626710  37.2259477  59.5186635  58.5317647  37.9937192
  58.5964394  58.1328595  36.8613514  50.9537531  49.7251697  28.9506862
  50.0235119  49.6636152  29.1676824  51.0495003  49.2027649  28.1543503
  50.8723080  46.2506509  31.5385103  51.1329898  47.1651843  31.4294264
  51.6940253  45.7830952  31.6881716  52.3448006  47.6644267  38.7083928
  53.0171059  47.4561629  38.0596577  51.5177792  47.4666353  38.2689160
  66.5937267  54.4048317  38.2259261  66.7873157  55.3094127  38.4718536
  66.4937885  53.9455736  39.0597846  58.2473578  44.2906207  40.7249589
  57.6001493  44.9896157  40.6314065  59.0174593  44.7242351  41.0925837
  61.6552376  54.5555060  43.8000142  61.5037882  54.3265611  42.8830226
  61.6457055  55.5125661  43.8131487  58.4237712  52.1286972  38.7846408
  59.3529772  52.2798132  38.6115376  58.0028742  52.2170993  37.9295055
  57.2226044  56.1537637  36.5544946  57.0837130  55.7856421  37.4270884
  56.4340640  56.6685276  36.3828904  57.8174196  61.2546733  27.8970483
  57.9925952  60.7834776  28.7116105  57.1306984  61.8812499  28.1251743
  58.7731259  55.5319239  33.9433784  58.4381092  55.4920009  34.8391434
  58.2735205  54.8663955  33.4704194  52.7475503  50.9386869  39.4686365
  52.6095301  50.2067108  40.0697904  53.6580427  50.8495770  39.1870553
  61.7090451  52.8775274  24.2170843  61.0919621  52.1522102  24.1203896
  61.2406939  53.6384634  23.8737918  55.3757804  50.6506829  38.9570045
  56.0857422  50.0100021  38.9156663  55.3327112  50.9019724  39.8796225
  63.3644582  57.5874182  41.8776624  63.3057129  56.9033402  41.2107207
  63.7664101  58.3293172  41.4257250  54.0886738  47.6372047  40.7765684
  53.5524095  47.1862785  41.4287280  53.5003446  47.7717956  40.0336148
  52.3835281  64.4036096  34.6710343  52.6231879  65.0354620  35.3489361
  51.5404478  64.0524136  34.9575702  53.4988997  47.0960698  23.3392148
  52.6218463  46.9749499  22.9754394  53.9746750  46.3046776  23.0871036
  63.3661990  55.5513766  40.1090603  62.4788768  55.2139688  40.2317002
  63.9360541  54.8196797  40.3459369  45.0191137  51.8837858  33.4333655
  45.7062177  51.5699588  32.8454670  44.8639265  52.7879222  33.1600906
  49.8225859  46.7728054  37.8618679  49.7384048  46.1653724  37.1269088
  49.0008565  47.2637073  37.8628175  56.8963143  60.2115218  37.0751847
  56.8233315  61.0170190  37.5871151  56.4540536  60.4107184  36.2499868
  56.6852923  59.4486988  30.5854668  55.9020445  59.9908669  30.6792893
  57.3845668  59.9660968  30.9848909  59.9949573  45.2581618  33.2288874
  60.4918272  44.5051580  32.9089944  59.2236554  45.2945935  32.6632083
  67.8479330  50.9621983  34.8707165  67.8369206  51.8446699  34.5001098
  66.9796710  50.6093534  34.6761702  59.3561827  60.1102052  39.2310005
  60.0689799  60.7449517  39.1585907  58.8651855  60.2065918  38.4150007
  61.0779353  54.0153305  30.8027297  60.1435632  54.1354768  30.6332001
  61.2556022  53.1125772  30.5387307  56.5784542  47.3999001  32.9560558
  56.2082329  46.8470041  33.6441464  57.0743634  46.7957134  32.4035558
  64.4651905  49.8570624  31.3377331  64.9312357  50.6898616  31.2637634
  64.9159405  49.3915606  32.0422590  54.4073740  57.8596496  40.0515576
  55.1083200  58.4932979  40.2044970  53.9368855  58.2011227  39.2911215
  62.5328136  56.2014446  28.3363483  62.8087980  56.0871040  29.2457357
  61.6632635  55.8031931  28.2975656  62.4368568  42.2251211  35.3768232
  61.5231647  42.4555438  35.5450439  62.8661669  42.3089655  36.2282265
  62.2075026  50.4141103  37.8768127  61.5546476  50.6617011  37.2220579
  62.5855406  49.6005242  37.5430604  59.1682200  60.4500797  31.9796297
  59.3504594  59.6322452  32.4424049  59.9915186  60.6668489  31.5421187
  59.5024365  59.3768982  29.2411345  60.0312132  58.8661436  28.6281507
  59.7652585  59.0611512  30.1056878  58.2562599  51.1560914  44.3634164
  57.5803236  51.0555044  45.0336539  59.0790233  51.0000128  44.8270161
  50.0041458  57.3932851  36.9846679  50.5894895  56.6476539  37.1174583
  49.8066297  57.7036808  37.8683343  52.8580113  60.4284098  32.0009121
  52.1890489  60.9130226  31.5173161  52.7192983  60.6753319  32.9152500
  44.5959113  49.9638451  35.7051122  44.6343212  49.4302042  36.4988240
  44.0899406  49.4373657  35.0862099  56.9985382  62.4627842  38.5991780
  57.5503690  62.6259463  39.3640865  57.3391575  63.0532280  37.9271804
  51.9749875  44.8102992  39.2013664  52.0391202  45.6717823  38.7891062
  51.9116995  44.1976993  38.4686023  51.4502148  46.8826124  42.8486699
  52.0774187  46.5003202  43.4624223  50.5930067  46.6640326  43.2142391
  61.8496256  57.2889099  44.4540434  62.3936160  57.9019058  43.9595389
  61.2683101  57.8468678  44.9707447  48.2267690  48.6902553  28.7805053
  48.5221132  47.7813232  28.7272107  47.3255726  48.6690293  28.4586056
  60.1353769  60.4109817  35.5855462  60.0104909  59.6099557  35.0766407
  60.7932860  60.9056011  35.0969432  51.7561937  46.7658550  34.7632602
  51.0348523  47.3794518  34.6240075  52.5455193  47.3016315  34.6849248
  62.1988678  58.2118838  37.2135012  61.2519013  58.0924189  37.1413339
  62.5471451  57.3241336  37.2961273  54.5588251  44.1012976  41.0373254
  55.0822653  44.3475273  41.7999563  54.3400584  44.9333011  40.6176391
  49.9555532  46.3716651  28.9044379  49.6268238  45.4914030  28.7219484
  50.3094903  46.3164320  29.7920768  59.2035111  58.0071554  33.4139364
  59.0560073  57.0788261  33.5946934  60.0288604  58.0291644  32.9296439
  53.0697355  46.6589621  29.2719856  53.4093428  47.1875542  28.5498465
  53.5169476  46.9970027  30.0478423  62.8069233  58.8300112  34.5004237
  63.7315780  58.6242974  34.3628688  62.6384536  58.5816514  35.4093578
  55.7640796  45.0426672  38.7222924  55.4237616  44.2434485  39.1243604
  55.0579802  45.3428382  38.1499757  56.4157268  42.1275984  37.1750247
  57.2383337  41.6536462  37.0529138  56.6595331  42.9066468  37.6748934
  55.0565502  45.1564242  27.4713149  55.7773865  45.5345495  26.9676866
  54.4330806  45.8753119  27.5748127  59.1996625  45.8609391  28.4071481
  59.4160240  46.7434029  28.1060309  58.7190692  45.4695605  27.6777123
  53.9395847  48.8195105  34.9842226  53.7940427  49.1335408  35.8766507
  53.4621050  49.4380005  34.4313125  55.7992230  45.8097653  35.0323115
  55.7853798  44.9138746  34.6955413  56.5164658  45.8168316  35.6661401
  57.6518360  46.2434993  37.0776243  57.3936138  47.1652063  37.0760573
  57.1203401  45.8465427  37.7676707  62.5964549  59.3485780  29.8566328
  62.7701427  58.7832202  29.1040181  63.0893440  60.1486675  29.6745818
  48.4141509  51.3600449  37.9229887  47.8694977  52.1360257  38.0550161
  49.2920859  51.7071253  37.7649009  55.2029125  44.6912033  30.3010686
  55.3245037  43.7628679  30.5001573  54.9131168  44.7050719  29.3889001
  58.0720316  42.3766943  33.4377405  58.0942013  42.4406276  32.4829385
  58.4888375  41.5371452  33.6317912  68.4503940  52.1122203  31.4756628
  68.8935086  51.3629528  31.0775751  67.5730450  52.1032339  31.0930360
  63.5839721  58.6652544  26.9563227  64.2790626  59.2859237  27.1750541
  63.9262872  57.8147896  27.2315604  49.2007531  50.4870345  40.8160044
  48.4589267  50.6352981  41.4024674  48.8800275  50.7478611  39.9526793
  65.4831145  56.1152250  28.4850557  66.0082469  56.4539523  27.7599877
  65.3953497  55.1799265  28.3013692  57.1451193  60.0286323  40.6140434
  57.4538320  59.7835470  41.4863134  57.9426675  60.2332962  40.1259304
  57.1671805  62.1824233  32.8445810  56.7276796  61.6900612  33.5378667
  57.9179922  61.6397201  32.6037886  49.6464144  58.3735774  32.8470439
  50.4722164  58.0739546  32.4669082  49.2958196  57.6043396  33.2960227
  54.6145677  57.7262242  34.9168112  53.9925687  57.0632947  34.6170340
  55.2850544  57.7523374  34.2341760  47.8472749  56.2922100  33.8059372
  47.0104658  55.8644275  33.6243373  47.8196395  56.4854544  34.7430163
  54.6870205  46.2044030  44.5100618  54.7358360  47.0806153  44.1278388
  55.2292719  45.6621423  43.9372261  65.1725051  56.7485153  43.7901755
  64.3820594  56.7309292  43.2506255  64.9358405  57.2873447  44.5450792
  65.2922926  53.5977620  41.1034484  65.3420931  53.4327627  42.0450007
  65.1836849  52.7304879  40.7132365  54.1759184  56.2766166  28.3926573
  54.3247305  56.9601630  27.7393245  54.9825628  56.2571256  28.9076028
  62.5826688  49.5808548  42.4193791  63.4836551  49.4415013  42.1277788
  62.6574663  49.7463003  43.3591968  56.9169493  46.9575403  41.2646977
  56.0472803  47.2508969  40.9929565  57.1528974  47.5415848  41.9854240
  66.7941123  56.0174561  41.3476505  66.5025931  56.3804542  42.1839966
  66.1813254  55.3041570  41.1689837  67.9936805  53.5827441  33.8679076
  68.8283696  54.0217245  34.0316636  68.1295934  53.1066094  33.0487321
  65.0428311  51.1407176  39.8156563  65.5182432  51.3334822  39.0075415
  64.1193876  51.1966362  39.5699947  51.9311817  52.3031343  29.3987642
  51.6857859  51.3993673  29.5967852  52.1007732  52.3048494  28.4567120
  59.6208527  43.1755020  38.7812397  60.1390471  43.9116046  38.4558886
  59.2663660  43.4819013  39.6159156  51.2007465  48.0359701  26.8973803
  50.5076710  48.1104056  26.2413839  50.9559217  47.2720044  27.4195320
  59.8721121  39.5955302  34.3013294  60.1522875  38.9278491  34.9273720
  60.6571728  39.7884398  33.7887958  57.6754590  58.7714296  25.8638320
  57.1028557  59.3904483  25.4108792  58.2487384  59.3213658  26.3978242
  63.7429980  48.0172936  38.0484869  64.6947403  48.1171034  38.0697093
  63.5733430  47.2251205  38.5582953  61.7644359  45.1028519  38.2344270
  61.1694291  45.3833532  37.5390758  61.4794056  45.5922420  39.0061011
  60.8951850  59.0551446  26.9946902  61.8282523  58.9897008  27.1979778
  60.8075063  59.8907713  26.5361435  63.5239866  58.3717316  23.9550850
  63.4453498  58.0377180  24.8486608  64.3449533  58.8639084  23.9542322
  66.2218058  51.2379056  37.1627169  66.1894378  50.2995057  37.3486852
  66.8318681  51.3163092  36.4292993  58.0601388  50.1075109  23.2054373
  59.0060493  49.9781317  23.2742791  57.6815633  49.3689771  23.6823801
  66.3712546  48.0290099  37.2085452  65.8551595  47.2448556  37.0215381
  67.2552495  47.7008816  37.3731971  64.0323273  41.7731115  33.1681264
  63.8348094  41.4646203  34.0524596  64.6422979  42.4992754  33.2979194
  72.0394607  52.2995063  36.3033205  72.7697996  52.0380351  36.8640909
  71.4301553  51.5623785  36.3435273  70.1209905  50.4402925  36.9007657
  69.3943068  50.3058890  36.2924148  69.7057191  50.7479754  37.7064375
  57.9440081  54.1592855  44.6655030  58.8643090  54.3371454  44.8595076
  57.9089664  53.2148900  44.5134729  56.2444306  48.0325085  23.1409258
  55.3375761  47.7358198  23.2171971  56.5220287  47.7354903  22.2743544
  47.1622246  49.3531449  33.5908304  46.8425030  48.4996757  33.2982678
  46.6155674  49.5680027  34.3466272  50.9402154  52.0693890  37.3077811
  51.1588163  53.0010997  37.3265845  51.3527927  51.7101864  38.0932615
  57.8606371  42.5761975  29.2953499  57.0507100  42.2309060  29.6708745
  58.5490788  42.2669519  29.8841111  59.7896920  41.6540022  30.9177796
  60.3427958  42.0735475  31.5767819  60.0267006  40.7275770  30.9600752
  55.8130019  47.6427095  46.6980560  55.7126746  48.5921452  46.6292651
  55.5951561  47.3145334  45.8256630  55.0143090  44.8912020  23.2821237
  55.8762254  45.2166919  23.5417054  55.1993434  44.1043516  22.7694303
  47.0310506  52.9734360  35.5601426  46.3373977  52.5588313  35.0471380
  47.7783497  53.0154897  34.9634845  63.1675727  43.7640547  30.4256460
  62.5874396  44.4225351  30.0434512  62.9011659  42.9417891  30.0143878
  61.6179293  43.1645605  32.6277780  62.1179071  43.2762139  31.8192099
  62.2614901  42.8606657  33.2678589  55.6761289  51.0724234  45.5145621
  55.1928371  51.8724594  45.7209510  55.7622228  51.0832179  44.5613065
  48.9447248  52.9052614  33.4367441  48.9217937  53.0040301  32.4849324
  49.2547885  53.7517765  33.7584607  51.6034626  54.9628769  37.5514055
  52.5577880  54.9312711  37.4843987  51.4047150  54.5019393  38.3664281
  52.1934008  53.5329885  40.1184853  53.0126897  54.0273964  40.1419690
  52.4670816  52.6161853  40.0902420  61.9500605  45.9240637  29.4812808
  61.0626460  46.2090288  29.2633003  62.3654594  45.7634401  28.6340085
  65.3015141  45.9487158  33.1967148  66.0775531  46.4383611  33.4691764
  64.5763275  46.3745212  33.6539017  67.7387699  46.6614777  34.2541088
  68.3332190  46.4210513  33.5434396  67.8114283  45.9421908  34.8814624
  49.9584855  60.5048388  34.5684253  49.8239323  59.7448789  34.0022251
  49.5416917  61.2289288  34.1013042  61.0943818  55.6885312  23.5760828
  61.7979668  55.8935314  24.1918484  60.3706467  56.2562074  23.8409912
  61.9241628  51.4395173  29.6963098  61.8676830  51.8963725  28.8570731
  62.4769971  50.6785858  29.5185941  65.7346434  47.2284905  30.5213218
  65.4783369  46.8281541  31.3521426  65.1099302  47.9428699  30.3963357
  70.0458772  49.9680978  33.0284509  69.4858330  50.0374168  33.8016071
  69.4402276  49.7921963  32.3084006  53.1153981  61.4017705  34.7802696
  52.9986365  62.3463138  34.6781386  52.2946427  61.0991267  35.1688495
  63.0030516  56.1267841  25.6259288  63.8376119  55.6949040  25.4436763
  62.8414858  55.9549855  26.5536183  62.6576408  52.6299954  26.9915628
  62.6025212  52.4644226  26.0504072  62.0322463  53.3375987  27.1477817
  47.4468923  47.8668019  40.8177050  48.0927786  47.3566973  41.3064275
  47.2386074  48.6036700  41.3920475  59.9722315  54.9348866  46.3169190
  60.8413475  55.1089519  45.9555825  59.4929066  55.7543283  46.1944920
  55.9672533  42.1308063  26.5700946  55.9551203  43.0749903  26.7269217
  56.8595955  41.9478209  26.2760407  54.1408495  62.0545967  37.9958624
  55.0435742  62.0869578  38.3125119  53.9145865  61.1246418  38.0104960
  55.8962097  60.8076954  34.6568703  54.9457728  60.8078815  34.5433075
  56.1994583  60.0609688  34.1404737  59.7824653  38.7250840  30.8246883
  59.0157048  38.1709327  30.9703565  60.1935358  38.7972709  31.6861034
  51.7866414  45.0135636  44.9152064  52.6497875  44.6572441  45.1255389
  51.2131824  44.6749531  45.6027468  71.6314791  66.6437492  35.7214465
  72.2693201  66.5244240  35.0177805  71.5135634  67.5918336  35.7802417
  68.4404497  66.5964920  35.6575990  68.1023008  66.4805985  34.7696525
  69.3094265  66.1956085  35.6376996  64.2991313  68.4500397  31.6472881
  63.7356178  68.3590334  30.8789168  64.1843708  67.6300301  32.1275373
  68.9224280  67.7499772  41.6162195  68.9112921  67.3552570  40.7442699
  69.0844919  67.0165845  42.2095967  61.8455745  69.9451588  34.4857101
  62.6377036  69.6042413  34.0703400  62.0852395  70.0546563  35.4059255
  69.8790871  72.1171364  26.9587346  69.2278851  72.7025445  26.5721359
  70.6735234  72.6477559  27.0182383  63.8046499  69.2060502  27.3574480
  64.5777375  68.6589489  27.2187356  64.1571897  70.0704751  27.5688941
  65.6431541  70.5336884  40.5641379  65.3521407  71.4382515  40.4488046
  66.2788525  70.5753411  41.2785449  66.5687748  67.9113732  37.1542739
  67.1651320  67.6869755  36.4399702  66.6262719  67.1698478  37.7568187
  66.1412776  65.3653168  24.9892930  66.3938297  64.8434689  24.2276393
  65.2037335  65.2019313  25.0919614  71.1856059  64.3688946  32.7967673
  71.9719148  63.9508369  32.4458090  71.4494763  65.2735038  32.9649322
  71.3566136  69.8061796  27.4956330  70.7211969  69.8796423  28.2077235
  71.0263543  70.3955395  26.8175409  76.5864486  64.3064179  33.7000652
  77.3189658  63.7363396  33.9338481  75.8303842  63.9185780  34.1407157
  65.8609065  67.2681274  27.1917305  65.7445323  66.5926177  27.8598389
  65.9711325  66.7813648  26.3749458  68.2040606  66.7291421  30.8963994
  67.8398813  66.2022042  31.6076916  69.0607722  66.3389890  30.7230480
  74.1089907  58.0185753  38.1595260  73.7773231  58.8881164  37.9356475
  73.5135520  57.7022037  38.8389291  67.8446093  61.7581320  25.8925343
  68.0120495  62.6261557  26.2595814  67.6543262  61.9208602  24.9686632
  70.6021426  70.2198299  37.5591173  70.3022149  71.1223338  37.4506980
  70.2572486  69.9530483  38.4112326  64.0533908  66.6712096  33.5927877
  63.1284404  66.5388310  33.8005569  64.3018321  67.4506315  34.0897820
  74.0018570  62.7380840  35.2388610  73.0935447  62.6696248  34.9447371
  73.9506166  63.2152784  36.0670436  67.8235314  64.2138978  26.8772009
  67.7034939  64.6596029  27.7157490  67.1287902  64.5624296  26.3185548
  61.4142719  66.3145370  34.4271666  61.5435100  66.5679849  35.3411078
  60.7340170  66.9073078  34.1076322  65.5842206  76.9842620  30.5262141
  65.5066236  77.9350445  30.6050621  64.9803850  76.6388492  31.1837067
  68.0759436  64.1570485  43.1823508  67.2992770  64.7164405  43.1726372
  68.7149999  64.6427268  43.7038378  75.8680216  60.9397278  37.0166484
  75.2254597  61.2329811  36.3706279  75.3635145  60.8250198  37.8219681
  73.5220380  64.6860451  27.7052343  74.4338236  64.9187838  27.5300041
  73.0130027  65.2697495  27.1427422  66.3305808  66.9655938  42.7441475
  67.0720492  67.5040982  42.4676298  65.6242794  67.5922227  42.9013026
  71.8061148  69.1085079  41.3413636  72.2144504  68.6667489  40.5968268
  71.0838409  68.5337706  41.5947829  68.1592218  64.0457686  38.7147193
  69.0053413  64.4697099  38.8581842  68.0990855  63.3891310  39.4085756
  72.1289962  69.6686270  35.0965925  71.4998825  69.8331984  34.3941993
  71.7415624  70.0827879  35.8676889  76.0079194  70.6040707  32.4510289
  75.3230232  70.9839609  31.9007322  76.0923044  71.2136034  33.1842236
  71.3091663  61.7062054  40.3728367  71.0652595  62.4604115  39.8362642
  71.5851594  62.0847402  41.2075614  73.2630126  68.2500666  39.0505632
  73.4747021  68.8932426  38.3740013  73.2159874  67.4162983  38.5827562
  70.8656355  60.8618487  35.9542204  70.0040834  61.1599741  36.2458942
  70.8918789  61.0788886  35.0223237  67.6817924  69.4060678  32.3616010
  68.1456270  69.6848381  31.5720633  67.4174722  68.5044122  32.1789101
  64.5742005  68.9532159  35.2995773  65.1443362  69.3819428  34.6613258
  65.1650117  68.6714744  35.9979959  66.6186810  65.5283830  29.1705575
  67.3210854  65.9804874  29.6379502  66.2867439  64.8867649  29.7985468
  65.0667172  64.1195587  43.5456785  64.4365832  64.8011867  43.7792181
  64.9603260  64.0078668  42.6009923  60.3612144  63.7867383  34.4722709
  59.5711198  64.0424911  33.9962819  60.8523392  64.6015721  34.5774749
  74.3775954  71.1272622  37.2227990  75.1993397  70.7252809  36.9410671
  74.3738357  71.0240856  38.1744105  62.3126890  64.1511962  31.4306185
  61.5158053  64.2630656  31.9489681  62.0852482  64.4898614  30.5647076
  68.1432557  70.6756665  39.3788700  68.2076990  71.1377072  40.2146872
  67.4343481  70.0454030  39.5071010  58.6449847  64.0397873  36.9037700
  58.8957886  64.9244883  37.1695275  59.1809396  63.8602475  36.1312791
  82.4681947  67.4711370  33.5712961  81.7145655  66.9018768  33.4156965
  82.6029488  67.4374035  34.5183596  67.8580575  72.3424773  29.2467680
  67.7226250  73.1876308  29.6752528  68.3990387  72.5444050  28.4833614
  64.3447915  58.4216352  45.9082036  63.9514860  57.8682551  46.5829680
  65.1614055  58.7326931  46.2988553  61.3109972  69.8600211  29.8195605
  61.8234493  70.6543461  29.9701170  61.9632685  69.1626501  29.7529207
  63.1204857  72.9765967  31.9018359  63.2971485  73.8983932  31.7139343
  63.9161690  72.6624386  32.3312738  67.2615876  59.8374232  43.5002292
  68.0025589  60.4381385  43.4206755  67.4933798  59.0951869  42.9420335
  62.4057214  65.0230599  41.7780522  62.2910729  64.1215856  42.0787621
  61.5501731  65.2694296  41.4265338  68.0403343  70.7595269  42.2472932
  68.5731680  69.9983557  42.0172240  67.5117425  70.4668920  42.9897087
  71.2073038  55.8655335  37.7766574  70.8637308  56.7556976  37.7005684
  71.5752001  55.6756992  36.9136159  59.2758889  68.1888865  30.5955176
  60.1134111  68.5985873  30.3788884  59.4537157  67.2488307  30.5655370
  71.1723321  65.8563946  26.2839009  70.6569945  66.6268550  26.5227396
  70.9000630  65.1829082  26.9072070  68.7570432  60.7013646  31.3424247
  67.9012029  60.3120497  31.1629886  69.1697384  60.7805607  30.4824033
  70.2869579  58.2359990  35.7415807  69.7834374  58.1990125  34.9283612
  70.5800186  59.1452732  35.8012464  66.5312465  58.3198719  34.7481989
  67.3965461  58.1241528  34.3887878  66.5989974  58.0909071  35.6751346
  76.1457595  68.6096300  28.2192182  75.3687038  68.2707460  27.7747345
  76.8249076  68.6148923  27.5447148  70.9609624  63.7291038  28.1098790
  70.6559760  64.0437187  28.9608933  71.9140066  63.8072458  28.1526123
  69.4056056  69.8881261  29.7591744  68.8777418  69.1534021  29.4464982
  68.9043559  70.6655937  29.5131712  74.3848902  68.0830282  34.8758790
  73.7272577  68.7729543  34.9638919  75.1889301  68.4726713  35.2192777
  64.1374784  60.5500927  32.1198356  64.7118536  60.3276109  31.3871549
  64.7245766  60.6189622  32.8726957  73.1954361  66.4374654  32.9262732
  73.7086243  67.0704646  33.4284442  73.8455585  65.8375850  32.5606092
  64.4644371  62.5805388  26.1394241  63.6281683  62.9180075  26.4603516
  64.3249141  62.4454368  25.2021378  66.4397452  57.4242176  30.8473425
  65.7861864  57.1091193  30.2230040  66.3977926  56.8017917  31.5733248
  67.5508656  67.7061471  22.7626717  66.6435718  67.4750725  22.9617866
  68.0479688  66.9099091  22.9500699  70.4576735  76.4158978  25.6823403
  69.7838434  76.7190675  26.2908361  70.8442557  77.2188059  25.3328860
  69.6735192  63.9124110  35.1721073  68.7557753  64.1339057  35.0142761
  70.0895335  63.9870420  34.3132780  70.4570240  65.3115525  30.3023753
  71.2042059  65.8236923  29.9930875  70.7261829  64.9899578  31.1628147
  68.7296890  67.8074066  27.2850707  67.8208109  67.5233099  27.3823177
  68.7591974  68.2273145  26.4254014  73.9616157  71.4180656  31.0541875
  73.5078484  70.5771566  31.1107065  73.3310124  72.0542054  31.3916655
  72.9049077  62.3472642  32.2842542  72.1671834  61.8350028  32.6152785
  73.1575850  61.9073023  31.4725819  72.4049096  73.2557152  31.9891693
  72.6972071  73.8162209  31.2704059  72.9147717  73.5485713  32.7444852
  73.0060704  55.1248894  32.8784312  73.3119581  54.2646257  32.5910227
  73.7313309  55.7166514  32.6783305  59.2985060  65.5279580  31.2665909
  59.1009460  64.9348941  30.5416976  58.7431724  65.2231790  31.9841848
  67.2781784  65.4202687  33.3860503  67.3330394  64.4676523  33.3102979
  66.4672986  65.5762126  33.8701801  68.4272978  69.3482810  24.6238786
  67.9892408  68.6318669  24.1644423  69.1683418  69.5758925  24.0623877
  65.2174144  64.0379747  31.1450881  64.4042009  64.3373917  31.5516074
  65.7133138  63.6435435  31.8625364  67.3682722  74.0337503  33.0785146
  67.3258900  74.2598350  32.1493678  68.2845421  73.8000878  33.2270947
  70.8148355  64.5021571  39.9765775  71.1697743  64.7293044  40.8360241
  71.4620487  64.8339948  39.3543031  76.5446092  67.6240007  30.6815104
  76.4063991  67.8141603  29.7536294  76.1882311  68.3859390  31.1383156
  64.7088219  61.6098102  36.7612116  65.3487598  61.4686861  36.0635080
  63.8765749  61.3232615  36.3850718  76.5715472  69.6916534  35.6926376
  77.0051979  69.5991823  36.5409430  77.2847053  69.6674034  35.0546392
  65.4848522  70.9100532  32.8747109  66.2789121  70.4150853  32.6729684
  64.7740215  70.3818396  32.5114814  70.3043367  73.2918628  37.2259477
  70.3580389  73.8609564  37.9937192  69.4358148  73.4620513  36.8613514
  61.7931286  65.0543614  28.9506862  60.8628874  64.9928070  29.1676824
  61.8888758  64.5319567  28.1543503  61.7116835  61.5798427  31.5385103
  61.9723652  62.4943760  31.4294264  62.5334007  61.1122870  31.6881716
  63.1841760  62.9936184  38.7083928  63.8564814  62.7853546  38.0596577
  62.3571547  62.7958270  38.2689160  77.4331022  69.7340235  38.2259261
  77.6266912  70.6386045  38.4718536  77.3331640  69.2747654  39.0597846
  69.0867332  59.6198125  40.7249589  68.4395247  60.3188075  40.6314065
  69.8568348  60.0534269  41.0925837  72.4946130  69.8846977  43.8000142
  72.3431637  69.6557529  42.8830226  72.4850810  70.8417579  43.8131487
  69.2631467  67.4578890  38.7846408  70.1923527  67.6090050  38.6115376
  68.8422497  67.5462911  37.9295055  68.0619798  71.4829554  36.5544946
  67.9230884  71.1148339  37.4270884  67.2734395  71.9977194  36.3828904
  68.6567950  76.5838651  27.8970483  68.8319706  76.1126694  28.7116105
  67.9700738  77.2104417  28.1251743  69.6125014  70.8611157  33.9433784
  69.2774846  70.8211927  34.8391434  69.1128959  70.1955873  33.4704194
  63.5869258  66.2678787  39.4686365  63.4489055  65.5359026  40.0697904
  64.4974181  66.1787687  39.1870553  72.5484205  68.2067191  24.2170843
  71.9313376  67.4814020  24.1203896  72.0800694  68.9676552  23.8737918
  66.2151558  65.9798746  38.9570045  66.9251177  65.3391939  38.9156663
  66.1720866  66.2311641  39.8796225  74.2038337  72.9166100  41.8776624
  74.1450883  72.2325320  41.2107207  74.6057855  73.6585090  41.4257250
  64.9280492  62.9663964  40.7765684  64.3917849  62.5154703  41.4287280
  64.3397201  63.1009873  40.0336148  63.2229036  79.7328014  34.6710343
  63.4625634  80.3646538  35.3489361  62.3798232  79.3816054  34.9575702
  64.3382751  62.4252616  23.3392148  63.4612217  62.3041417  22.9754394
  64.8140504  61.6338694  23.0871036  74.2055744  70.8805684  40.1090603
  73.3182523  70.5431606  40.2317002  74.7754295  70.1488715  40.3459369
  55.8584891  67.2129776  33.4333655  56.5455931  66.8991506  32.8454670
  55.7033020  68.1171140  33.1600906  60.6619613  62.1019972  37.8618679
  60.5777802  61.4945642  37.1269088  59.8402320  62.5928990  37.8628175
  67.5246677  74.7778906  30.5854668  66.7414199  75.3200586  30.6792893
  68.2239422  75.2952886  30.9848909  70.8343327  60.5873536  33.2288874
  71.3312027  59.8343498  32.9089944  70.0630309  60.6237852  32.6632083
  78.6873085  66.2913901  34.8707165  78.6762961  67.1738617  34.5001098
  77.8190464  65.9385452  34.6761702  71.9173108  69.3445223  30.8027297
  70.9829387  69.4646685  30.6332001  72.0949776  68.4417690  30.5387307
  67.4178296  62.7290919  32.9560558  67.0476084  62.1761959  33.6441464
  67.9137388  62.1249052  32.4035558  75.3045659  65.1862542  31.3377331
  75.7706112  66.0190534  31.2637634  75.7553160  64.7207524  32.0422590
  73.3721890  71.5306363  28.3363483  73.6481734  71.4162958  29.2457357
  72.5026389  71.1323848  28.2975656  73.2762322  57.5543129  35.3768232
  72.3625402  57.7847356  35.5450439  73.7055424  57.6381573  36.2282265
  73.0468781  65.7433021  37.8768127  72.3940231  65.9908929  37.2220579
  73.4249160  64.9297159  37.5430604  70.0075954  75.7792714  31.9796297
  70.1898349  74.9614370  32.4424049  70.8308940  75.9960406  31.5421187
  70.3418120  74.7060899  29.2411345  70.8705886  74.1953354  28.6281507
  70.6046340  74.3903430  30.1056878  69.0956354  66.4852832  44.3634164
  68.4196991  66.3846961  45.0336539  69.9183987  66.3292046  44.8270161
  60.8435213  72.7224769  36.9846679  61.4288649  71.9768457  37.1174583
  60.6460051  73.0328725  37.8683343  63.6973868  75.7576016  32.0009121
  63.0284243  76.2422144  31.5173161  63.5586738  76.0045236  32.9152500
  55.4352867  65.2930369  35.7051122  55.4736967  64.7593960  36.4988240
  54.9293160  64.7665574  35.0862099  62.8143630  60.1394909  39.2013664
  62.8784956  61.0009740  38.7891062  62.7510750  59.5268911  38.4686023
  62.2895902  62.2118042  42.8486699  62.9167941  61.8295119  43.4624223
  61.4323821  61.9932244  43.2142391  72.6890011  72.6181017  44.4540434
  73.2329915  73.2310975  43.9595389  72.1076856  73.1760595  44.9707447
  59.0661445  64.0194471  28.7805053  59.3614886  63.1105149  28.7272107
  58.1649481  63.9982210  28.4586056  70.9747524  75.7401735  35.5855462
  70.8498663  74.9391475  35.0766407  71.6326615  76.2347928  35.0969432
  62.5955692  62.0950468  34.7632602  61.8742278  62.7086435  34.6240075
  63.3848948  62.6308232  34.6849248  73.0382432  73.5410755  37.2135012
  72.0912768  73.4216106  37.1413339  73.3865205  72.6533253  37.2961273
  65.3982005  59.4304894  41.0373254  65.9216407  59.6767191  41.7999563
  65.1794339  60.2624929  40.6176391  60.7949287  61.7008569  28.9044379
  60.4661993  60.8205948  28.7219484  61.1488657  61.6456237  29.7920768
  70.0428865  73.3363471  33.4139364  69.8953828  72.4080179  33.5946934
  70.8682359  73.3583562  32.9296439  63.9091110  61.9881538  29.2719856
  64.2487182  62.5167460  28.5498465  64.3563230  62.3261945  30.0478423
  73.6462987  74.1592030  34.5004237  74.5709535  73.9534891  34.3628688
  73.4778291  73.9108431  35.4093578  66.6034551  60.3718589  38.7222924
  66.2631371  59.5726402  39.1243604  65.8973557  60.6720300  38.1499757
  67.2551022  57.4567902  37.1750247  68.0777092  56.9828380  37.0529138
  67.4989086  58.2358385  37.6748934  65.8959257  60.4856160  27.4713149
  66.6167619  60.8637413  26.9676866  65.2724561  61.2045037  27.5748127
  70.0390380  61.1901309  28.4071481  70.2553994  62.0725947  28.1060309
  69.5584447  60.7987522  27.6777123  64.7789601  64.1487022  34.9842226
  64.6334182  64.4627325  35.8766507  64.3014805  64.7671923  34.4313125
  66.6385984  61.1389570  35.0323115  66.6247553  60.2430664  34.6955413
  67.3558412  61.1460234  35.6661401  68.4912115  61.5726910  37.0776243
  68.2329893  62.4943981  37.0760573  67.9597155  61.1757345  37.7676707
  73.4358303  74.6777698  29.8566328  73.6095181  74.1124120  29.1040181
  73.9287195  75.4778592  29.6745818  59.2535263  66.6892367  37.9229887
  58.7088731  67.4652175  38.0550161  60.1314613  67.0363171  37.7649009
  66.0422880  60.0203951  30.3010686  66.1638791  59.0920597  30.5001573
  65.7524922  60.0342637  29.3889001  68.9114070  57.7058861  33.4377405
  68.9335767  57.7698194  32.4829385  69.3282129  56.8663370  33.6317912
  79.2897695  67.4414121  31.4756628  79.7328841  66.6921446  31.0775751
  78.4124205  67.4324257  31.0930360  74.4233476  73.9944462  26.9563227
  75.1184381  74.6151155  27.1750541  74.7656626  73.1439813  27.2315604
  60.0401285  65.8162263  40.8160044  59.2983021  65.9644898  41.4024674
  59.7194029  66.0770529  39.9526793  76.3224899  71.4444168  28.4850557
  76.8476223  71.7831440  27.7599877  76.2347252  70.5091183  28.3013692
  68.0065560  77.5116151  32.8445810  67.5670550  77.0192529  33.5378667
  68.7573677  76.9689118  32.6037886  60.4857899  73.7027692  32.8470439
  61.3115919  73.4031464  32.4669082  60.1351951  72.9335314  33.2960227
  65.4539432  73.0554160  34.9168112  64.8319441  72.3924865  34.6170340
  66.1244299  73.0815292  34.2341760  58.6866504  71.6214018  33.8059372
  57.8498412  71.1936192  33.6243373  58.6590149  71.8146461  34.7430163
  65.5263959  61.5335948  44.5100618  65.5752115  62.4098071  44.1278388
  66.0686474  60.9913341  43.9372261  76.0118805  72.0777071  43.7901755
  75.2214349  72.0601210  43.2506255  75.7752160  72.6165365  44.5450792
  76.1316680  68.9269538  41.1034484  76.1814685  68.7619545  42.0450007
  76.0230604  68.0596797  40.7132365  65.0152939  71.6058083  28.3926573
  65.1641059  72.2893548  27.7393245  65.8219382  71.5863173  28.9076028
  73.4220443  64.9100466  42.4193791  74.3230305  64.7706930  42.1277788
  73.4968417  65.0754920  43.3591968  67.7563248  62.2867320  41.2646977
  66.8866557  62.5800886  40.9929565  67.9922728  62.8707765  41.9854240
  77.6334877  71.3466479  41.3476505  77.3419685  71.7096460  42.1839966
  77.0207008  70.6333487  41.1689837  78.8330559  68.9119359  33.8679076
  79.6677451  69.3509163  34.0316636  78.9689688  68.4358012  33.0487321
  75.8822065  66.4699094  39.8156563  76.3576187  66.6626740  39.0075415
  74.9587631  66.5258279  39.5699947  62.7705572  67.6323261  29.3987642
  62.5251614  66.7285591  29.5967852  62.9401486  67.6340411  28.4567120
  70.4602282  58.5046937  38.7812397  70.9784226  59.2407964  38.4558886
  70.1057415  58.8110931  39.6159156  62.0401219  63.3651618  26.8973803
  61.3470464  63.4395973  26.2413839  61.7952971  62.6011962  27.4195320
  70.7114876  54.9247220  34.3013294  70.9916630  54.2570409  34.9273720
  71.4965483  55.1176315  33.7887958  68.5148344  74.1006214  25.8638320
  67.9422311  74.7196401  25.4108792  69.0881138  74.6505575  26.3978242
  74.5823734  63.3464854  38.0484869  75.5341157  63.4462951  38.0697093
  74.4127185  62.5543122  38.5582953  72.6038114  60.4320437  38.2344270
  72.0088046  60.7125450  37.5390758  72.3187810  60.9214338  39.0061011
  71.7345604  74.3843364  26.9946902  72.6676277  74.3188925  27.1979778
  71.6468817  75.2199631  26.5361435  74.3633621  73.7009234  23.9550850
  74.2847252  73.3669098  24.8486608  75.1843288  74.1931002  23.9542322
  77.0611812  66.5670973  37.1627169  77.0288132  65.6286974  37.3486852
  77.6712436  66.6455010  36.4292993  68.8995143  65.4367026  23.2054373
  69.8454248  65.3073235  23.2742791  68.5209388  64.6981688  23.6823801
  77.2106301  63.3582017  37.2085452  76.6945349  62.5740474  37.0215381
  78.0946249  63.0300733  37.3731971  74.8717027  57.1023032  33.1681264
  74.6741849  56.7938121  34.0524596  75.4816733  57.8284671  33.2979194
  82.8788362  67.6286980  36.3033205  83.6091750  67.3672268  36.8640909
  82.2695307  66.8915702  36.3435273  80.9603659  65.7694843  36.9007657
  80.2336823  65.6350808  36.2924148  80.5450946  66.0771671  37.7064375
  68.7833835  69.4884773  44.6655030  69.7036845  69.6663372  44.8595076
  68.7483418  68.5440818  44.5134729  67.0838060  63.3617003  23.1409258
  66.1769515  63.0650116  23.2171971  67.3614041  63.0646821  22.2743544
  58.0016000  64.6823366  33.5908304  57.6818785  63.8288674  33.2982678
  57.4549429  64.8971944  34.3466272  61.7795908  67.3985807  37.3077811
  61.9981918  68.3302915  37.3265845  62.1921682  67.0393782  38.0932615
  68.7000126  57.9053893  29.2953499  67.8900854  57.5600977  29.6708745
  69.3884543  57.5961436  29.8841111  70.6290674  56.9831939  30.9177796
  71.1821713  57.4027393  31.5767819  70.8660760  56.0567687  30.9600752
  66.6523773  62.9719013  46.6980560  66.5520500  63.9213370  46.6292651
  66.4345315  62.6437252  45.8256630  65.8536845  60.2203938  23.2821237
  66.7156009  60.5458836  23.5417054  66.0387189  59.4335434  22.7694303
  57.8704260  68.3026278  35.5601426  57.1767732  67.8880231  35.0471380
  58.6177251  68.3446814  34.9634845  74.0069481  59.0932464  30.4256460
  73.4268150  59.7517269  30.0434512  73.7405414  58.2709809  30.0143878
  72.4573048  58.4937522  32.6277780  72.9572826  58.6054057  31.8192099
  73.1008655  58.1898575  33.2678589  66.5155043  66.4016152  45.5145621
  66.0322125  67.2016512  45.7209510  66.6015982  66.4124097  44.5613065
  59.7841003  68.2344531  33.4367441  59.7611691  68.3332219  32.4849324
  60.0941639  69.0809682  33.7584607  62.4428381  70.2920687  37.5514055
  63.3971634  70.2604629  37.4843987  62.2440904  69.8311310  38.3664281
  63.0327763  68.8621803  40.1184853  63.8520652  69.3565881  40.1419690
  63.3064571  67.9453771  40.0902420  72.7894359  61.2532555  29.4812808
  71.9020214  61.5382205  29.2633003  73.2048348  61.0926318  28.6340085
  76.1408895  61.2779076  33.1967148  76.9169285  61.7675528  33.4691764
  75.4157029  61.7037130  33.6539017  78.5781454  61.9906695  34.2541088
  79.1725945  61.7502431  33.5434396  78.6508038  61.2713826  34.8814624
  60.7978610  75.8340306  34.5684253  60.6633078  75.0740707  34.0022251
  60.3810672  76.5581206  34.1013042  71.9337573  71.0177230  23.5760828
  72.6373423  71.2227232  24.1918484  71.2100221  71.5853991  23.8409912
  72.7635383  66.7687091  29.6963098  72.7070584  67.2255642  28.8570731
  73.3163725  66.0077775  29.5185941  76.5740189  62.5576823  30.5213218
  76.3177123  62.1573458  31.3521426  75.9493057  63.2720617  30.3963357
  80.8852527  65.2972896  33.0284509  80.3252085  65.3666085  33.8016071
  80.2796030  65.1213881  32.3084006  63.9547736  76.7309623  34.7802696
  63.8380120  77.6755056  34.6781386  63.1340182  76.4283185  35.1688495
  73.8424270  71.4559759  25.6259288  74.6769874  71.0240957  25.4436763
  73.6808613  71.2841772  26.5536183  73.4970162  67.9591872  26.9915628
  73.4418966  67.7936143  26.0504072  72.8716218  68.6667905  27.1477817
  58.2862677  63.1959936  40.8177050  58.9321541  62.6858890  41.3064275
  58.0779828  63.9328618  41.3920475  66.8066288  57.4599981  26.5700946
  66.7944958  58.4041821  26.7269217  67.6989710  57.2770126  26.2760407
  66.7355852  76.1368871  34.6568703  65.7851483  76.1370733  34.5433075
  67.0388338  75.3901606  34.1404737  70.6218407  54.0542758  30.8246883
  69.8550803  53.5001244  30.9703565  71.0329112  54.1264626  31.6861034
  62.6260168  60.3427554  44.9152064  63.4891630  59.9864358  45.1255389
  62.0525579  60.0041448  45.6027468  82.4708545  81.9729410  35.7214465
  83.1086955  81.8536157  35.0177805  82.3529388  82.9210254  35.7802417
  79.2798251  81.9256838  35.6575990  78.9416763  81.8097903  34.7696525
  80.1488020  81.5248003  35.6376996  75.1385067  83.7792314  31.6472881
  74.5749932  83.6882251  30.8789168  75.0237462  82.9592219  32.1275373
  72.6849499  85.2743506  34.4857101  73.4770791  84.9334331  34.0703400
  72.9246149  85.3838481  35.4059255  80.7184626  87.4463282  26.9587346
  80.0672606  88.0317362  26.5721359  81.5128989  87.9769477  27.0182383
  74.6440253  84.5352419  27.3574480  75.4171129  83.9881406  27.2187356
  74.9965652  85.3996669  27.5688941  76.9806531  80.6945085  24.9892930
  77.2332051  80.1726607  24.2276393  76.0431090  80.5311231  25.0919614
  82.0249814  79.6980864  32.7967673  82.8112903  79.2800287  32.4458090
  82.2888518  80.6026956  32.9649322  82.1959891  85.1353714  27.4956330
  81.5605724  85.2088341  28.2077235  81.8657297  85.7247313  26.8175409
  87.4258241  79.6356097  33.7000652  88.1583413  79.0655314  33.9338481
  86.6697596  79.2477697  34.1407157  76.7002820  82.5973191  27.1917305
  76.5839078  81.9218095  27.8598389  76.8105079  82.1105565  26.3749458
  79.0434360  82.0583338  30.8963994  78.6792568  81.5313959  31.6076916
  79.9001476  81.6681807  30.7230480  84.9483661  73.3477671  38.1595260
  84.6166986  74.2173082  37.9356475  84.3529275  73.0313955  38.8389291
  78.6839847  77.0873238  25.8925343  78.8514250  77.9553475  26.2595814
  78.4937017  77.2500520  24.9686632  74.8927662  82.0004014  33.5927877
  73.9678159  81.8680228  33.8005569  75.1412075  82.7798233  34.0897820
  84.8412324  78.0672757  35.2388610  83.9329202  77.9988166  34.9447371
  84.7899920  78.5444702  36.0670436  78.6629068  79.5430896  26.8772009
  78.5428694  79.9887946  27.7157490  77.9681657  79.8916213  26.3185548
  76.4235960  92.3134537  30.5262141  76.3459990  93.2642362  30.6050621
  75.8197604  91.9680410  31.1837067  86.7073971  76.2689196  37.0166484
  86.0648351  76.5621729  36.3706279  86.2028899  76.1542116  37.8219681
  84.3614134  80.0152369  27.7052343  85.2731991  80.2479756  27.5300041
  83.8523782  80.5989413  27.1427422  82.6454902  84.4376997  41.3413636
  83.0538258  83.9959407  40.5968268  81.9232164  83.8629624  41.5947829
  78.9985972  79.3749603  38.7147193  79.8447167  79.7989017  38.8581842
  78.9384610  78.7183228  39.4085756  82.9683717  84.9978187  35.0965925
  82.3392579  85.1623901  34.3941993  82.5809379  85.4119797  35.8676889
  86.8472949  85.9332625  32.4510289  86.1623987  86.3131526  31.9007322
  86.9316798  86.5427952  33.1842236  82.1485418  77.0353972  40.3728367
  81.9046349  77.7896032  39.8362642  82.4245348  77.4139319  41.2075614
  84.1023880  83.5792584  39.0505632  84.3140776  84.2224344  38.3740013
  84.0553629  82.7454901  38.5827562  81.7050109  76.1910405  35.9542204
  80.8434588  76.4891658  36.2458942  81.7312544  76.4080804  35.0223237
  78.5211679  84.7352595  32.3616010  78.9850024  85.0140298  31.5720633
  78.2568477  83.8336040  32.1789101  77.4580565  80.8575748  29.1705575
  78.1604608  81.3096791  29.6379502  77.1261193  80.2159567  29.7985468
  71.2005899  79.1159300  34.4722709  70.4104953  79.3716829  33.9962819
  71.6917146  79.9307638  34.5774749  85.2169708  86.4564540  37.2227990
  86.0387152  86.0544727  36.9410671  85.2132111  86.3532774  38.1744105
  73.1520644  79.4803880  31.4306185  72.3551807  79.5922574  31.9489681
  72.9246236  79.8190532  30.5647076  93.3075701  82.8003288  33.5712961
  92.5539410  82.2310686  33.4156965  93.4423243  82.7665953  34.5183596
  78.6974329  87.6716690  29.2467680  78.5620004  88.5168226  29.6752528
  79.2384142  87.8735968  28.4833614  72.1503727  85.1892128  29.8195605
  72.6628247  85.9835379  29.9701170  72.8026440  84.4918419  29.7529207
  73.9598611  88.3057885  31.9018359  74.1365240  89.2275849  31.7139343
  74.7555445  87.9916304  32.3312738  78.1009630  75.1666149  43.5002292
  78.8419343  75.7673302  43.4206755  78.3327553  74.4243787  42.9420335
  75.0829927  89.8236058  37.9028701  75.6337352  89.6953122  37.1305695
  74.2441403  90.1230947  37.5523594  82.0466793  71.1947252  37.7766574
  81.7031062  72.0848894  37.7005684  82.4145756  71.0048910  36.9136159
  70.1152644  83.5180783  30.5955176  70.9527866  83.9277791  30.3788884
  70.2930911  82.5780225  30.5655370  82.0117076  81.1855863  26.2839009
  81.4963699  81.9560468  26.5227396  81.7394384  80.5120999  26.9072070
  79.5964187  76.0305564  31.3424247  78.7405783  75.6412414  31.1629886
  80.0091138  76.1097525  30.4824033  81.1263333  73.5651907  35.7415807
  80.6228129  73.5282043  34.9283612  81.4193940  74.4744650  35.8012464
  77.3706219  73.6490637  34.7481989  78.2359216  73.4533446  34.3887878
  77.4383728  73.4200989  35.6751346  86.9851350  83.9388218  28.2192182
  86.2080793  83.5999377  27.7747345  87.6642831  83.9440841  27.5447148
  81.8003379  79.0582955  28.1098790  81.4953514  79.3729105  28.9608933
  82.7533821  79.1364375  28.1526123  80.2449811  85.2173179  29.7591744
  79.7171172  84.4825938  29.4464982  79.7437313  85.9947855  29.5131712
  85.2242657  83.4122199  34.8758790  84.5666331  84.1021461  34.9638919
  86.0283056  83.8018631  35.2192777  74.9768538  75.8792845  32.1198356
  75.5512290  75.6568026  31.3871549  75.5639521  75.9481539  32.8726957
  84.0348115  81.7666572  32.9262732  84.5479997  82.3996564  33.4284442
  84.6849339  81.1667767  32.5606092  75.3038125  77.9097306  26.1394241
  74.4675438  78.2471993  26.4603516  75.1642895  77.7746286  25.2021378
  77.2791206  72.7534094  30.8473425  76.6255618  72.4383111  30.2230040
  77.2371680  72.1309834  31.5733248  78.3902411  83.0353389  22.7626717
  77.4829473  82.8042642  22.9617866  78.8873443  82.2391008  22.9500699
  81.2970490  91.7450896  25.6823403  80.6232188  92.0482593  26.2908361
  81.6836312  92.5479977  25.3328860  80.5128946  79.2416027  35.1721073
  79.5951508  79.4630974  35.0142761  80.9289090  79.3162338  34.3132780
  81.2963994  80.6407443  30.3023753  82.0435813  81.1528840  29.9930875
  81.5655584  80.3191496  31.1628147  79.5690644  83.1365984  27.2850707
  78.6601864  82.8525017  27.3823177  79.5985728  83.5565062  26.4254014
  84.8009912  86.7472573  31.0541875  84.3472239  85.9063483  31.1107065
  84.1703878  87.3833972  31.3916655  83.7442831  77.6764559  32.2842542
  83.0065588  77.1641946  32.6152785  83.9969605  77.2364941  31.4725819
  83.2442851  88.5849070  31.9891693  83.5365825  89.1454127  31.2704059
  83.7541472  88.8777631  32.7444852  83.8454459  70.4540811  32.8784312
  84.1513335  69.5938175  32.5910227  84.5707063  71.0458432  32.6783305
  70.1378815  80.8571498  31.2665909  69.9403214  80.2640859  30.5416976
  69.5825479  80.5523708  31.9841848  78.1175538  80.7494604  33.3860503
  78.1724148  79.7968441  33.3102979  77.3066740  80.9054044  33.8701801
  79.2666732  84.6774728  24.6238786  78.8286162  83.9610586  24.1644423
  80.0077173  84.9050842  24.0623877  76.0567898  79.3671664  31.1450881
  75.2435764  79.6665835  31.5516074  76.5526892  78.9727353  31.8625364
  78.2076476  89.3629421  33.0785146  78.1652655  89.5890267  32.1493678
  79.1239175  89.1292796  33.2270947  81.6542110  79.8313489  39.9765775
  82.0091498  80.0584962  40.8360241  82.3014241  80.1631865  39.3543031
  87.3839847  82.9531925  30.6815104  87.2457745  83.1433521  29.7536294
  87.0276066  83.7151307  31.1383156  75.5481973  76.9390020  36.7612116
  76.1881352  76.7978779  36.0635080  74.7159504  76.6524533  36.3850718
  87.4109226  85.0208452  35.6926376  87.8445733  84.9283741  36.5409430
  88.1240807  84.9965952  35.0546392  76.3242277  86.2392450  32.8747109
  77.1182875  85.7442770  32.6729684  75.6133969  85.7110313  32.5114814
  72.6325040  80.3835532  28.9506862  71.7022628  80.3219987  29.1676824
  72.7282512  79.8611485  28.1543503  72.5510589  76.9090345  31.5385103
  72.8117407  77.8235678  31.4294264  73.3727762  76.4414787  31.6881716
  88.2724776  85.0632152  38.2259261  88.4660666  85.9677963  38.4718536
  88.1725394  84.6039571  39.0597846  79.9261087  74.9490043  40.7249589
  79.2789002  75.6479992  40.6314065  80.6962102  75.3826187  41.0925837
  83.3339885  85.2138895  43.8000142  83.1825391  84.9849447  42.8830226
  83.3244564  86.1709496  43.8131487  78.9013553  86.8121472  36.5544946
  78.7624639  86.4440257  37.4270884  78.1128149  87.3269112  36.3828904
  79.4961705  91.9130569  27.8970483  79.6713461  91.4418612  28.7116105
  78.8094493  92.5396335  28.1251743  80.4518768  86.1903075  33.9433784
  80.1168601  86.1503845  34.8391434  79.9522714  85.5247791  33.4704194
  83.3877960  83.5359109  24.2170843  82.7707130  82.8105937  24.1203896
  82.9194448  84.2968469  23.8737918  74.0622790  95.0619931  34.6710343
  74.3019388  95.6938456  35.3489361  73.2191987  94.7107971  34.9575702
  75.1776506  77.7544533  23.3392148  74.3005972  77.6333334  22.9754394
  75.6534259  76.9630612  23.0871036  85.0449499  86.2097601  40.1090603
  84.1576277  85.8723523  40.2317002  85.6148050  85.4780633  40.3459369
  66.6978646  82.5421693  33.4333655  67.3849686  82.2283423  32.8454670
  66.5426774  83.4463058  33.1600906  78.3640432  90.1070824  30.5854668
  77.5807954  90.6492504  30.6792893  79.0633177  90.6244803  30.9848909
  81.6737082  75.9165453  33.2288874  82.1705781  75.1635416  32.9089944
  80.9024063  75.9529770  32.6632083  89.5266839  81.6205819  34.8707165
  89.5156715  82.5030534  34.5001098  88.6584219  81.2677370  34.6761702
  82.7566862  84.6737141  30.8027297  81.8223141  84.7938603  30.6332001
  82.9343531  83.7709607  30.5387307  78.2572051  78.0582836  32.9560558
  77.8869838  77.5053877  33.6441464  78.7531143  77.4540970  32.4035558
  86.1439414  80.5154460  31.3377331  86.6099866  81.3482451  31.2637634
  86.5946914  80.0499441  32.0422590  84.2115645  86.8598281  28.3363483
  84.4875489  86.7454876  29.2457357  83.3420144  86.4615766  28.2975656
  84.1156077  72.8835047  35.3768232  83.2019156  73.1139274  35.5450439
  84.5449178  72.9673491  36.2282265  83.8862535  81.0724939  37.8768127
  83.2333985  81.3200846  37.2220579  84.2642915  80.2589077  37.5430604
  80.8469709  91.1084632  31.9796297  81.0292103  90.2906288  32.4424049
  81.6702695  91.3252324  31.5421187  81.1811874  90.0352817  29.2411345
  81.7099641  89.5245272  28.6281507  81.4440094  89.7195347  30.1056878
  74.5367622  91.0867934  32.0009121  73.8677998  91.5714061  31.5173161
  74.3980492  91.3337154  32.9152500  66.2746622  80.6222287  35.7051122
  66.3130721  80.0885877  36.4988240  65.7686915  80.0957492  35.0862099
  69.9055199  79.3486389  28.7805053  70.2008641  78.4397067  28.7272107
  69.0043235  79.3274128  28.4586056  81.8141278  91.0693653  35.5855462
  81.6892418  90.2683393  35.0766407  82.4720369  91.5639846  35.0969432
  73.4349446  77.4242385  34.7632602  72.7136032  78.0378353  34.6240075
  74.2242702  77.9600150  34.6849248  83.8776187  88.8702673  37.2135012
  82.9306522  88.7508024  37.1413339  84.2258960  87.9825171  37.2961273
  71.6343041  77.0300486  28.9044379  71.3055747  76.1497865  28.7219484
  71.9882412  76.9748155  29.7920768  80.8822620  88.6655389  33.4139364
  80.7347582  87.7372096  33.5946934  81.7076113  88.6875480  32.9296439
  74.7484864  77.3173456  29.2719856  75.0880937  77.8459377  28.5498465
  75.1956985  77.6553862  30.0478423  84.4856742  89.4883948  34.5004237
  85.4103289  89.2826809  34.3628688  84.3172045  89.2400349  35.4093578
  77.4428305  75.7010507  38.7222924  77.1025125  74.9018320  39.1243604
  76.7367311  76.0012218  38.1499757  78.0944777  72.7859819  37.1750247
  78.9170846  72.3120297  37.0529138  78.3382840  73.5650303  37.6748934
  76.7353011  75.8148078  27.4713149  77.4561374  76.1929331  26.9676866
  76.1118315  76.5336955  27.5748127  80.8784134  76.5193227  28.4071481
  81.0947749  77.4017865  28.1060309  80.3978201  76.1279440  27.6777123
  75.6183356  79.4778940  34.9842226  75.4727936  79.7919243  35.8766507
  75.1408559  80.0963840  34.4313125  77.4779738  76.4681488  35.0323115
  77.4641307  75.5722581  34.6955413  78.1952167  76.4752152  35.6661401
  79.3305869  76.9018828  37.0776243  79.0723647  77.8235899  37.0760573
  78.7990910  76.5049263  37.7676707  84.2752058  90.0069615  29.8566328
  84.4488935  89.4416038  29.1040181  84.7680949  90.8070510  29.6745818
  76.8816634  75.3495868  30.3010686  77.0032546  74.4212514  30.5001573
  76.5918677  75.3634554  29.3889001  79.7507825  73.0350779  33.4377405
  79.7729522  73.0990112  32.4829385  80.1675884  72.1955287  33.6317912
  90.1291449  82.7706038  31.4756628  90.5722595  82.0213363  31.0775751
  89.2517959  82.7616175  31.0930360  85.2627230  89.3236380  26.9563227
  85.9578135  89.9443072  27.1750541  85.6050381  88.4731731  27.2315604
  87.1618654  86.7736085  28.4850557  87.6869978  87.1123358  27.7599877
  87.0741006  85.8383101  28.3013692  78.8459314  92.8408068  32.8445810
  78.4064305  92.3484447  33.5378667  79.5967431  92.2981036  32.6037886
  71.3251653  89.0319609  32.8470439  72.1509673  88.7323381  32.4669082
  70.9745705  88.2627232  33.2960227  76.2933186  88.3846078  34.9168112
  75.6713196  87.7216783  34.6170340  76.9638053  88.4107209  34.2341760
  69.5260258  86.9505936  33.8059372  68.6892167  86.5228110  33.6243373
  69.4983904  87.1438379  34.7430163  86.9710435  84.2561455  41.1034484
  87.0208440  84.0911463  42.0450007  86.8624358  83.3888714  40.7132365
  75.8546693  86.9350001  28.3926573  76.0034814  87.6185465  27.7393245
  76.6613137  86.9155091  28.9076028  84.2614197  80.2392383  42.4193791
  85.1624060  80.0998848  42.1277788  84.3362172  80.4046838  43.3591968
  78.5957002  77.6159238  41.2646977  77.7260312  77.9092804  40.9929565
  78.8316483  78.1999683  41.9854240  89.6724314  84.2411277  33.8679076
  90.5071205  84.6801081  34.0316636  89.8083443  83.7649930  33.0487321
  86.7215820  81.7991011  39.8156563  87.1969941  81.9918658  39.0075415
  85.7981385  81.8550197  39.5699947  73.6099326  82.9615179  29.3987642
  73.3645368  82.0577509  29.5967852  73.7795241  82.9632329  28.4567120
  81.2996036  73.8338855  38.7812397  81.8177980  74.5699882  38.4558886
  80.9451169  74.1402848  39.6159156  72.8794974  78.6943536  26.8973803
  72.1864219  78.7687891  26.2413839  72.6346726  77.9303880  27.4195320
  81.5508630  70.2539137  34.3013294  81.8310384  69.5862327  34.9273720
  82.3359237  70.4468233  33.7887958  79.3542099  89.4298131  25.8638320
  78.7816066  90.0488318  25.4108792  79.9274893  89.9797493  26.3978242
  85.4217489  78.6756771  38.0484869  86.3734912  78.7754869  38.0697093
  85.2520939  77.8835040  38.5582953  83.4431868  75.7612355  38.2344270
  82.8481800  76.0417367  37.5390758  83.1581565  76.2506256  39.0061011
  82.5739359  89.7135281  26.9946902  83.5070032  89.6480843  27.1979778
  82.4862572  90.5491548  26.5361435  85.2027375  89.0301152  23.9550850
  85.1241007  88.6961015  24.8486608  86.0237042  89.5222920  23.9542322
  87.9005567  81.8962891  37.1627169  87.8681887  80.9578892  37.3486852
  88.5106190  81.9746928  36.4292993  79.7388897  80.7658944  23.2054373
  80.6848002  80.6365152  23.2742791  79.3603142  80.0273606  23.6823801
  88.0500055  78.6873935  37.2085452  87.5339104  77.9032391  37.0215381
  88.9340004  78.3592651  37.3731971  85.7110782  72.4314950  33.1681264
  85.5135603  72.1230038  34.0524596  86.3210488  73.1576589  33.2979194
  93.7182116  82.9578898  36.3033205  94.4485505  82.6964186  36.8640909
  93.1089062  82.2207620  36.3435273  91.7997414  81.0986761  36.9007657
  91.0730577  80.9642725  36.2924148  91.3844700  81.4063589  37.7064375
  77.9231815  78.6908920  23.1409258  77.0163270  78.3942033  23.2171971
  78.2007796  78.3938739  22.2743544  68.8409755  80.0115284  33.5908304
  68.5212539  79.1580592  33.2982678  68.2943183  80.2263862  34.3466272
  79.5393880  73.2345810  29.2953499  78.7294609  72.8892895  29.6708745
  80.2278297  72.9253354  29.8841111  81.4684429  72.3123857  30.9177796
  82.0215467  72.7319310  31.5767819  81.7054515  71.3859605  30.9600752
  76.6930599  75.5495856  23.2821237  77.5549763  75.8750754  23.5417054
  76.8780943  74.7627352  22.7694303  68.7098015  83.6318195  35.5601426
  68.0161486  83.2172148  35.0471380  69.4571006  83.6738732  34.9634845
  84.8463236  74.4224382  30.4256460  84.2661905  75.0809186  30.0434512
  84.5799168  73.6001727  30.0143878  83.2966802  73.8229440  32.6277780
  83.7966580  73.9345974  31.8192099  83.9402410  73.5190493  33.2678589
  70.6234757  83.5636449  33.4367441  70.6005446  83.6624136  32.4849324
  70.9335394  84.4101600  33.7584607  83.6288114  76.5824473  29.4812808
  82.7413969  76.8674123  29.2633003  84.0442103  76.4218236  28.6340085
  86.9802650  76.6070994  33.1967148  87.7563040  77.0967446  33.4691764
  86.2550784  77.0329048  33.6539017  89.4175208  77.3198613  34.2541088
  90.0119699  77.0794349  33.5434396  89.4901792  76.6005743  34.8814624
  71.6372364  91.1632224  34.5684253  71.5026832  90.4032625  34.0022251
  71.2204426  91.8873124  34.1013042  82.7731327  86.3469147  23.5760828
  83.4767177  86.5519150  24.1918484  82.0493976  86.9145909  23.8409912
  83.6029137  82.0979008  29.6963098  83.5464339  82.5547560  28.8570731
  84.1557480  81.3369693  29.5185941  87.4133943  77.8868740  30.5213218
  87.1570878  77.4865376  31.3521426  86.7886811  78.6012534  30.3963357
  91.7246281  80.6264814  33.0284509  91.1645839  80.6958003  33.8016071
  91.1189785  80.4505798  32.3084006  74.7941490  92.0601541  34.7802696
  74.6773874  93.0046973  34.6781386  73.9733936  91.7575102  35.1688495
  84.6818025  86.7851676  25.6259288  85.5163628  86.3532875  25.4436763
  84.5202367  86.6133690  26.5536183  84.3363917  83.2883790  26.9915628
  84.2812721  83.1228061  26.0504072  83.7109972  83.9959823  27.1477817
  77.6460042  72.7891899  26.5700946  77.6338712  73.7333739  26.7269217
  78.5383464  72.6062044  26.2760407  75.8196004  92.7129803  37.9958624
  76.7223251  92.7453413  38.3125119  75.5933374  91.7830254  38.0104960
  77.5749606  91.4660789  34.6568703  76.6245237  91.4662651  34.5433075
  77.8782092  90.7193524  34.1404737  81.4612162  69.3834675  30.8246883
  80.6944557  68.8293162  30.9703565  81.8722867  69.4556544  31.6861034
  93.3102300  97.3021328  35.7214465  93.9480710  97.1828075  35.0177805
  93.1923143  98.2502171  35.7802417  90.1192006  97.2548756  35.6575990
  89.7810517  97.1389820  34.7696525  90.9881774  96.8539921  35.6376996
  85.9778822  99.1084232  31.6472881  85.4143687  99.0174169  30.8789168
  85.8631217  98.2884137  32.1275373  83.5243254 100.6035424  34.4857101
  84.3164545 100.2626248  34.0703400  83.7639904 100.7130399  35.4059255
  91.5578380 102.7755200  26.9587346  90.9066360 103.3609280  26.5721359
  92.3522743 103.3061395  27.0182383  85.4834007  99.8644337  27.3574480
  86.2564883  99.3173324  27.2187356  85.8359406 100.7288586  27.5688941
  87.3219050 101.1920719  40.5641379  87.0308916 102.0966350  40.4488046
  87.9576034 101.2337247  41.2785449  88.2475257  98.5697568  37.1542739
  88.8438829  98.3453590  36.4399702  88.3050228  97.8282313  37.7568187
  87.8200285  96.0237003  24.9892930  88.0725806  95.5018524  24.2276393
  86.8824844  95.8603148  25.0919614  92.8643568  95.0272781  32.7967673
  93.6506657  94.6092205  32.4458090  93.1282272  95.9318874  32.9649322
  93.0353645 100.4645632  27.4956330  92.3999478 100.5380258  28.2077235
  92.7051052 101.0539231  26.8175409  98.2651995  94.9648015  33.7000652
  98.9977167  94.3947231  33.9338481  97.5091351  94.5769615  34.1407157
  87.5396574  97.9265109  27.1917305  87.4232832  97.2510012  27.8598389
  87.6498834  97.4397483  26.3749458  89.8828115  97.3875256  30.8963994
  89.5186322  96.8605877  31.6076916  90.7395231  96.9973725  30.7230480
  95.7877416  88.6769589  38.1595260  95.4560740  89.5465000  37.9356475
  95.1923029  88.3605873  38.8389291  89.5233602  92.4165156  25.8925343
  89.6908004  93.2845392  26.2595814  89.3330771  92.5792437  24.9686632
  85.7321417  97.3295932  33.5927877  84.8071913  97.1972146  33.8005569
  85.9805830  98.1090151  34.0897820  95.6806079  93.3964675  35.2388610
  94.7722956  93.3280083  34.9447371  95.6293675  93.8736620  36.0670436
  89.5022823  94.8722813  26.8772009  89.3822448  95.3179864  27.7157490
  88.8075411  95.2208131  26.3185548  83.0930228  96.9729205  34.4271666
  83.2222609  97.2263684  35.3411078  82.4127679  97.5656913  34.1076322
  87.2629715 107.6426455  30.5262141  87.1853745 108.5934280  30.6050621
  86.6591359 107.2972328  31.1837067  97.5467725  91.5981113  37.0166484
  96.9042106  91.8913646  36.3706279  97.0422654  91.4834034  37.8219681
  95.2007889  95.3444286  27.7052343  96.1125745  95.5771673  27.5300041
  94.6917536  95.9281331  27.1427422  93.8077471 100.3270105  35.0965925
  93.1786334 100.4915819  34.3941993  93.4203133 100.7411714  35.8676889
  97.6866703 101.2624543  32.4510289  97.0017741 101.6423444  31.9007322
  97.7710553 101.8719869  33.1842236  92.5443864  91.5202322  35.9542204
  91.6828343  91.8183576  36.2458942  92.5706298  91.7372721  35.0223237
  89.3605433 100.0644513  32.3616010  89.8243779 100.3432216  31.5720633
  89.0962231  99.1627958  32.1789101  86.2529514  99.6115995  35.2995773
  86.8230871 100.0403263  34.6613258  86.8437626  99.3298579  35.9979959
  88.2974319  96.1867665  29.1705575  88.9998363  96.6388709  29.6379502
  87.9654948  95.5451484  29.7985468  82.0399653  94.4451218  34.4722709
  81.2498707  94.7008747  33.9962819  82.5310901  95.2599556  34.5774749
  96.0563463 101.7856457  37.2227990  96.8780906 101.3836644  36.9410671
  96.0525866 101.6824691  38.1744105  83.9914399  94.8095797  31.4306185
  83.1945562  94.9214492  31.9489681  83.7639991  95.1482449  30.5647076
  80.3237356  94.6981708  36.9037700  80.5745395  95.5828718  37.1695275
  80.8596905  94.5186310  36.1312791 104.1469456  98.1295206  33.5712961
 103.3933164  97.5602604  33.4156965 104.2816997  98.0957870  34.5183596
  89.5368084 103.0008608  29.2467680  89.4013759 103.8460144  29.6752528
  90.0777896 103.2027886  28.4833614  82.9897481 100.5184046  29.8195605
  83.5022002 101.3127296  29.9701170  83.6420194  99.8210336  29.7529207
  84.7992366 103.6349802  31.9018359  84.9758994 104.5567767  31.7139343
  85.5949199 103.3208222  32.3312738  91.1636560 103.6232174  43.3768022
  90.7200414 102.8368553  43.0588927  91.8253774 103.8111325  42.7111913
  85.9223681 105.1527976  37.9028701  86.4731107 105.0245039  37.1305695
  85.0835157 105.4522865  37.5523594  80.9546398  98.8472700  30.5955176
  81.7921620  99.2569709  30.3788884  81.1324666  97.9072142  30.5655370
  92.8510830  96.5147781  26.2839009  92.3357454  97.2852386  26.5227396
  92.5788139  95.8412917  26.9072070  90.4357941  91.3597482  31.3424247
  89.5799538  90.9704332  31.1629886  90.8484893  91.4389443  30.4824033
  91.9657088  88.8943825  35.7415807  91.4621883  88.8573960  34.9283612
  92.2587695  89.8036568  35.8012464  88.2099974  88.9782555  34.7481989
  89.0752970  88.7825363  34.3887878  88.2777483  88.7492907  35.6751346
  97.8245104  99.2680136  28.2192182  97.0474547  98.9291295  27.7747345
  98.5036585  99.2732759  27.5447148  92.6397133  94.3874873  28.1098790
  92.3347269  94.7021022  28.9608933  93.5927575  94.4656293  28.1526123
  91.0843565 100.5465096  29.7591744  90.5564927  99.8117856  29.4464982
  90.5831068 101.3239773  29.5131712  85.8162293  91.2084763  32.1198356
  86.3906045  90.9859944  31.3871549  86.4033275  91.2773457  32.8726957
  94.8741870  97.0958490  32.9262732  95.3873752  97.7288481  33.4284442
  95.5243094  96.4959685  32.5606092  86.1431880  93.2389224  26.1394241
  85.3069192  93.5763910  26.4603516  86.0036650  93.1038203  25.2021378
  88.1184960  88.0826012  30.8473425  87.4649373  87.7675029  30.2230040
  88.0765435  87.4601752  31.5733248  89.2296165  98.3645307  22.7626717
  88.3223227  98.1334560  22.9617866  89.7267197  97.5682926  22.9500699
  92.1364244 107.0742814  25.6823403  91.4625943 107.3774511  26.2908361
  92.5230066 107.8771894  25.3328860  91.3522701  94.5707945  35.1721073
  90.4345262  94.7922892  35.0142761  91.7682844  94.6454256  34.3132780
  92.1357749  95.9699361  30.3023753  92.8829568  96.4820758  29.9930875
  92.4049338  95.6483414  31.1628147  90.4084399  98.4657902  27.2850707
  89.4995618  98.1816934  27.3823177  90.4379483  98.8856980  26.4254014
  95.6403666 102.0764491  31.0541875  95.1865993 101.2355401  31.1107065
  95.0097633 102.7125889  31.3916655  94.5836586  93.0056477  32.2842542
  93.8459343  92.4933863  32.6152785  94.8363359  92.5656859  31.4725819
  94.0836605 103.9140988  31.9891693  94.3759580 104.4746045  31.2704059
  94.5935226 104.2069549  32.7444852  94.6848213  85.7832729  32.8784312
  94.9907090  84.9230092  32.5910227  95.4100818  86.3750349  32.6783305
  80.9772569  96.1863416  31.2665909  80.7796969  95.5932776  30.5416976
  80.4219233  95.8815626  31.9841848  88.9569293  96.0786522  33.3860503
  89.0117903  95.1260359  33.3102979  88.1460495  96.2345961  33.8701801
  90.1060487 100.0066645  24.6238786  89.6679917  99.2902504  24.1644423
  90.8470927 100.2342760  24.0623877  86.8961653  94.6963582  31.1450881
  86.0829518  94.9957752  31.5516074  87.3920647  94.3019271  31.8625364
  89.0470231 104.6921339  33.0785146  89.0046409 104.9182185  32.1493678
  89.9632929 104.4584713  33.2270947  98.2233601  98.2823842  30.6815104
  98.0851500  98.4725438  29.7536294  97.8669820  99.0443225  31.1383156
  98.2502981 100.3500369  35.6926376  98.6839488 100.2575658  36.5409430
  98.9634562 100.3257870  35.0546392  87.1636031 101.5684368  32.8747109
  87.9576630 101.0734688  32.6729684  86.4527724 101.0402231  32.5114814
  83.4718795  95.7127450  28.9506862  82.5416383  95.6511905  29.1676824
  83.5676267  95.1903402  28.1543503  83.3904344  92.2382262  31.5385103
  83.6511161  93.1527596  31.4294264  84.2121516  91.7706705  31.6881716
  89.7407307 102.1413390  36.5544946  89.6018393 101.7732174  37.4270884
  88.9521904 102.6561029  36.3828904  90.3355459 107.2422486  27.8970483
  90.5107215 106.7710529  28.7116105  89.6488247 107.8688252  28.1251743
  91.2912523 101.5194992  33.9433784  90.9562355 101.4795762  34.8391434
  90.7916468 100.8539708  33.4704194  94.2271714  98.8651027  24.2170843
  93.6100885  98.1397855  24.1203896  93.7588203  99.6260387  23.8737918
  87.8939067  96.6382582  38.9570045  88.6038686  95.9975774  38.9156663
  87.8508375  96.8895477  39.8796225  84.9016545 110.3911849  34.6710343
  85.1413143 111.0230373  35.3489361  84.0585741 110.0399889  34.9575702
  86.0170260  93.0836451  23.3392148  85.1399726  92.9625252  22.9754394
  86.4928013  92.2922529  23.0871036  77.5372400  97.8713611  33.4333655
  78.2243440  97.5575341  32.8454670  77.3820529  98.7754976  33.1600906
  89.4144407 106.1990971  37.0751847  89.3414578 107.0045943  37.5871151
  88.9721800 106.3982937  36.2499868  89.2034186 105.4362741  30.5854668
  88.4201708 105.9784422  30.6792893  89.9026931 105.9536721  30.9848909
  92.5130836  91.2457371  33.2288874  93.0099536  90.4927333  32.9089944
  91.7417818  91.2821688  32.6632083 100.3660594  96.9497736  34.8707165
 100.3550470  97.8322452  34.5001098  99.4977973  96.5969287  34.6761702
  91.8743090 106.0977805  39.2310005  92.5871062 106.7325270  39.1585907
  91.3833119 106.1941671  38.4150007  93.5960617 100.0029058  30.8027297
  92.6616896 100.1230521  30.6332001  93.7737285  99.1001525  30.5387307
  89.0965805  93.3874754  32.9560558  88.7263593  92.8345794  33.6441464
  89.5924897  92.7832887  32.4035558  96.9833168  95.8446377  31.3377331
  97.4493620  96.6774369  31.2637634  97.4340669  95.3791359  32.0422590
  95.0509399 102.1890199  28.3363483  95.3269243 102.0746793  29.2457357
  94.1813898 101.7907684  28.2975656  94.9549831  88.2126964  35.3768232
  94.0412911  88.4431191  35.5450439  95.3842933  88.2965409  36.2282265
  91.6863463 106.4376550  31.9796297  91.8685858 105.6198206  32.4424049
  92.5096449 106.6544242  31.5421187  92.0205629 105.3644735  29.2411345
  92.5493395 104.8537189  28.6281507  92.2833848 105.0487265  30.1056878
  82.5222722 103.3808604  36.9846679  83.1076158 102.6352292  37.1174583
  82.3247560 103.6912561  37.8683343  85.3761377 106.4159851  32.0009121
  84.7071752 106.9005979  31.5173161  85.2374247 106.6629072  32.9152500
  77.1140376  95.9514204  35.7051122  77.1524476  95.4177795  36.4988240
  76.6080669  95.4249410  35.0862099  94.3677520 103.2764852  44.4540434
  94.9117424 103.8894811  43.9595389  93.7864365 103.8344431  44.9707447
  80.7448954  94.6778306  28.7805053  81.0402395  93.7688985  28.7272107
  79.8436990  94.6566046  28.4586056  92.6535033 106.3985570  35.5855462
  92.5286172 105.5975310  35.0766407  93.3114124 106.8931764  35.0969432
  84.2743201  92.7534303  34.7632602  83.5529787  93.3670271  34.6240075
  85.0636457  93.2892068  34.6849248  94.7169941 104.1994591  37.2135012
  93.7700277 104.0799942  37.1413339  95.0652714 103.3117089  37.2961273
  82.4736796  92.3592404  28.9044379  82.1449502  91.4789783  28.7219484
  82.8276166  92.3040073  29.7920768  91.7216374 103.9947307  33.4139364
  91.5741337 103.0664014  33.5946934  92.5469868 104.0167397  32.9296439
  85.5878619  92.6465374  29.2719856  85.9274691  93.1751295  28.5498465
  86.0350739  92.9845780  30.0478423  95.3250496 104.8175865  34.5004237
  96.2497044 104.6118727  34.3628688  95.1565800 104.5692267  35.4093578
  87.5746766  91.1439995  27.4713149  88.2955128  91.5221248  26.9676866
  86.9512070  91.8628872  27.5748127  91.7177889  91.8485144  28.4071481
  91.9341503  92.7309782  28.1060309  91.2371956  91.4571358  27.6777123
  86.4577110  94.8070858  34.9842226  86.3121691  95.1211161  35.8766507
  85.9802314  95.4255758  34.4313125  88.3173493  91.7973406  35.0323115
  88.3035062  90.9014499  34.6955413  89.0345921  91.8044069  35.6661401
  95.1145812 105.3361533  29.8566328  95.2882690 104.7707955  29.1040181
  95.6074704 106.1362428  29.6745818  87.7210389  90.6787786  30.3010686
  87.8426300  89.7504432  30.5001573  87.4312431  90.6926472  29.3889001
  90.5901579  88.3642696  33.4377405  90.6123276  88.4282029  32.4829385
  91.0069638  87.5247205  33.6317912 100.9685204  98.0997956  31.4756628
 101.4116350  97.3505281  31.0775751 100.0911714  98.0908092  31.0930360
  96.1020985 104.6528297  26.9563227  96.7971890 105.2734990  27.1750541
  96.4444135 103.8023649  27.2315604  98.0012408 102.1028003  28.4850557
  98.5263732 102.4415276  27.7599877  97.9134761 101.1675018  28.3013692
  89.6853069 108.1699986  32.8445810  89.2458059 107.6776365  33.5378667
  90.4361186 107.6272954  32.6037886  82.1645408 104.3611527  32.8470439
  82.9903428 104.0615299  32.4669082  81.8139460 103.5919149  33.2960227
  87.1326941 103.7137995  34.9168112  86.5106950 103.0508700  34.6170340
  87.8031808 103.7399127  34.2341760  80.3654013 102.2797853  33.8059372
  79.5285921 101.8520028  33.6243373  80.3377658 102.4730297  34.7430163
  97.6906314 102.7360907  43.7901755  96.9001858 102.7185045  43.2506255
  97.4539669 103.2749200  44.5450792  86.6940448 102.2641919  28.3926573
  86.8428568 102.9477383  27.7393245  87.5006891 102.2447009  28.9076028
 100.5118068  99.5703194  33.8679076 101.3464960 100.0092998  34.0316636
 100.6477197  99.0941847  33.0487321  84.4493081  98.2907096  29.3987642
  84.2039123  97.3869426  29.5967852  84.6188995  98.2924247  28.4567120
  83.7188728  94.0235454  26.8973803  83.0257973  94.0979809  26.2413839
  83.4740480  93.2595797  27.4195320  92.3902385  85.5831055  34.3013294
  92.6704139  84.9154244  34.9273720  93.1752992  85.7760151  33.7887958
  90.1935853 104.7590049  25.8638320  89.6209820 105.3780236  25.4108792
  90.7668647 105.3089411  26.3978242  93.4133113 105.0427199  26.9946902
  94.3463786 104.9772761  27.1979778  93.3256326 105.8783466  26.5361435
  96.0421130 104.3593069  23.9550850  95.9634761 104.0252933  24.8486608
  96.8630797 104.8514837  23.9542322  98.7399321  97.2254809  37.1627169
  98.7075641  96.2870810  37.3486852  99.3499945  97.3038846  36.4292993
  90.5782652  96.0950862  23.2054373  91.5241757  95.9657070  23.2742791
  90.1996897  95.3565524  23.6823801  98.8893810  94.0165852  37.2085452
  98.3732858  93.2324309  37.0215381  99.7733758  93.6884569  37.3731971
  96.5504536  87.7606868  33.1681264  96.3529358  87.4521956  34.0524596
  97.1604242  88.4868507  33.2979194 104.5575871  98.2870816  36.3033205
 105.2879259  98.0256104  36.8640909 103.9482816  97.5499538  36.3435273
 102.6391168  96.4278678  36.9007657 101.9124332  96.2934643  36.2924148
 102.2238455  96.7355507  37.7064375  88.7625569  94.0200838  23.1409258
  87.8557024  93.7233951  23.2171971  89.0401550  93.7230656  22.2743544
  79.6803509  95.3407202  33.5908304  79.3606294  94.4872510  33.2982678
  79.1336938  95.5555780  34.3466272  90.3787635  88.5637728  29.2953499
  89.5688363  88.2184813  29.6708745  91.0672052  88.2545272  29.8841111
  92.3078183  87.6415775  30.9177796  92.8609222  88.0611228  31.5767819
  92.5448269  86.7151523  30.9600752  87.5324354  90.8787773  23.2821237
  88.3943518  91.2042672  23.5417054  87.7174698  90.0919269  22.7694303
  79.5491769  98.9610113  35.5601426  78.8555241  98.5464066  35.0471380
  80.2964760  99.0030650  34.9634845  95.6856990  89.7516300  30.4256460
  95.1055659  90.4101104  30.0434512  95.4192923  88.9293644  30.0143878
  94.1360557  89.1521358  32.6277780  94.6360335  89.2637892  31.8192099
  94.7796164  88.8482410  33.2678589  81.4628512  98.8928367  33.4367441
  81.4399200  98.9916054  32.4849324  81.7729148  99.7393518  33.7584607
  94.4681868  91.9116390  29.4812808  93.5807723  92.1966041  29.2633003
  94.8835857  91.7510154  28.6340085  97.8196404  91.9362911  33.1967148
  98.5956794  92.4259364  33.4691764  97.0944538  92.3620965  33.6539017
 100.2568963  92.6490530  34.2541088 100.8513454  92.4086266  33.5434396
 100.3295547  91.9297661  34.8814624  82.4766119 106.4924141  34.5684253
  82.3420587 105.7324542  34.0022251  82.0598181 107.2165041  34.1013042
  93.6125082 101.6761065  23.5760828  94.3160932 101.8811067  24.1918484
  92.8887730 102.2437827  23.8409912  94.4422892  97.4270926  29.6963098
  94.3858093  97.8839478  28.8570731  94.9951234  96.6661611  29.5185941
  98.2527698  93.2160658  30.5213218  97.9964632  92.8157294  31.3521426
  97.6280566  93.9304452  30.3963357 102.5640036  95.9556731  33.0284509
 102.0039594  96.0249921  33.8016071 101.9583539  95.7797716  32.3084006
  85.6335244 107.3893458  34.7802696  85.5167629 108.3338891  34.6781386
  84.8127691 107.0867020  35.1688495  95.5211779 102.1143594  25.6259288
  96.3557383 101.6824793  25.4436763  95.3596122 101.9425608  26.5536183
  95.1757671  98.6175707  26.9915628  95.1206475  98.4519979  26.0504072
  94.5503726  99.3251740  27.1477817  88.4853797  88.1183816  26.5700946
  88.4732467  89.0625656  26.7269217  89.3777219  87.9353962  26.2760407
  88.4143361 106.7952707  34.6568703  87.4638992 106.7954568  34.5433075
  88.7175847 106.0485441  34.1404737  92.3005916  84.7126593  30.8246883
  91.5338312  84.1585080  30.9703565  92.7116621  84.7848462  31.6861034
 104.1496054 112.6313245  35.7214465 104.7874464 112.5119993  35.0177805
 104.0316897 113.5794089  35.7802417 100.9585760 112.5840673  35.6575990
 100.6204272 112.4681738  34.7696525 101.8275529 112.1831838  35.6376996
  96.8172576 114.4376150  31.6472881  96.2537441 114.3466087  30.8789168
  96.7024971 113.6176054  32.1275373 101.4405543 113.7375525  41.6162195
 101.4294184 113.3428323  40.7442699 101.6026183 113.0041598  42.2095967
  94.3637008 115.9327341  34.4857101  95.1558300 115.5918166  34.0703400
  94.6033658 116.0422316  35.4059255 102.3972135 118.1047117  26.9587346
 101.7460115 118.6901198  26.5721359 103.1916498 118.6353312  27.0182383
  96.3227762 115.1936255  27.3574480  97.0958638 114.6465242  27.2187356
  96.6753161 116.0580504  27.5688941  98.1612805 116.5212637  40.5641379
  97.8702671 117.4258268  40.4488046  98.7969789 116.5629164  41.2785449
  99.0869011 113.8989485  37.1542739  99.6832584 113.6745508  36.4399702
  99.1443983 113.1574231  37.7568187  98.6594040 111.3528921  24.9892930
  98.9119560 110.8310442  24.2276393  97.7218599 111.1895066  25.0919614
 103.7037323 110.3564699  32.7967673 104.4900412 109.9384122  32.4458090
 103.9676027 111.2610791  32.9649322 103.8747400 115.7937549  27.4956330
 103.2393233 115.8672176  28.2077235 103.5444806 116.3831148  26.8175409
 109.1045750 110.2939932  33.7000652 109.8370922 109.7239149  33.9338481
 108.3485105 109.9061533  34.1407157  98.3790329 113.2557027  27.1917305
  98.2626587 112.5801930  27.8598389  98.4892588 112.7689401  26.3749458
 100.7221869 112.7167174  30.8963994 100.3580077 112.1897795  31.6076916
 101.5788985 112.3265643  30.7230480 106.6271170 104.0061506  38.1595260
 106.2954495 104.8756917  37.9356475 106.0316783 103.6897790  38.8389291
 100.3627356 107.7457073  25.8925343 100.5301759 108.6137310  26.2595814
 100.1724526 107.9084355  24.9686632 103.1202690 116.2074052  37.5591173
 102.8203413 117.1099091  37.4506980 102.7753749 115.9406236  38.4112326
  96.5715171 112.6587849  33.5927877  95.6465668 112.5264063  33.8005569
  96.8199584 113.4382068  34.0897820 106.5199833 108.7256593  35.2388610
 105.6116711 108.6572001  34.9447371 106.4687429 109.2028537  36.0670436
 100.3416577 110.2014731  26.8772009 100.2216203 110.6471782  27.7157490
  99.6469166 110.5500049  26.3185548  93.9323982 112.3021123  34.4271666
  94.0616363 112.5555602  35.3411078  93.2521433 112.8948831  34.1076322
  98.1023469 122.9718373  30.5262141  98.0247499 123.9226198  30.6050621
  97.4985113 122.6264245  31.1837067 100.5940699 110.1446238  43.1823508
  99.8174033 110.7040158  43.1726372 101.2331262 110.6303021  43.7038378
 108.3861480 106.9273031  37.0166484 107.7435860 107.2205564  36.3706279
 107.8816408 106.8125951  37.8219681 106.0401643 110.6736204  27.7052343
 106.9519500 110.9063591  27.5300041 105.5311291 111.2573248  27.1427422
  98.8487072 112.9531691  42.7441475  99.5901756 113.4916735  42.4676298
  98.1424057 113.5797980  42.9013026 104.3242411 115.0960832  41.3413636
 104.7325767 114.6543242  40.5968268 103.6019673 114.5213459  41.5947829
 100.6773481 110.0333439  38.7147193 101.5234676 110.4572852  38.8581842
 100.6172119 109.3767063  39.4085756 104.6471226 115.6562023  35.0965925
 104.0180088 115.8207737  34.3941993 104.2596888 116.0703632  35.8676889
 108.5260458 116.5916460  32.4510289 107.8411496 116.9715362  31.9007322
 108.6104307 117.2011787  33.1842236 103.8272927 107.6937807  40.3728367
 103.5833858 108.4479868  39.8362642 104.1032857 108.0723155  41.2075614
 105.7811389 114.2376419  39.0505632 105.9928285 114.8808179  38.3740013
 105.7341138 113.4038736  38.5827562 103.3837618 106.8494240  35.9542204
 102.5222097 107.1475494  36.2458942 103.4100053 107.0664639  35.0223237
 100.1999188 115.3936431  32.3616010 100.6637533 115.6724134  31.5720633
  99.9355986 114.4919875  32.1789101  97.0923269 114.9407912  35.2995773
  97.6624626 115.3695181  34.6613258  97.6831381 114.6590497  35.9979959
  99.1368074 111.5159583  29.1705575  99.8392117 111.9680627  29.6379502
  98.8048702 110.8743402  29.7985468  97.5848435 110.1071340  43.5456785
  96.9547096 110.7887621  43.7792181  97.4784523 109.9954421  42.6009923
  92.8793408 109.7743136  34.4722709  92.0892462 110.0300664  33.9962819
  93.3704655 110.5891474  34.5774749 106.8957217 117.1148375  37.2227990
 107.7174661 116.7128562  36.9410671 106.8919620 117.0116609  38.1744105
  94.8308153 110.1387715  31.4306185  94.0339316 110.2506409  31.9489681
  94.6033745 110.4774367  30.5647076 100.6613821 116.6632418  39.3788700
 100.7258253 117.1252825  40.2146872  99.9524745 116.0329783  39.5071010
  91.1631111 110.0273626  36.9037700  91.4139149 110.9120636  37.1695275
  91.6990659 109.8478228  36.1312791 114.9863210 113.4587123  33.5712961
 114.2326919 112.8894521  33.4156965 115.1210752 113.4249788  34.5183596
 100.3761838 118.3300526  29.2467680 100.2407513 119.1752061  29.6752528
 100.9171651 118.5319803  28.4833614  96.8629178 104.4092106  45.9082036
  96.4696124 103.8558304  46.5829680  97.6795318 104.7202684  46.2988553
  93.8291236 115.8475964  29.8195605  94.3415756 116.6419214  29.9701170
  94.4813949 115.1502254  29.7529207  95.6386120 118.9641720  31.9018359
  95.8152749 119.8859685  31.7139343  96.4342954 118.6500139  32.3312738
  99.7797139 105.8249985  43.5002292 100.5206852 106.4257138  43.4206755
 100.0115062 105.0827622  42.9420335  94.9238477 111.0106352  41.7780522
  94.8091992 110.1091609  42.0787621  94.0682995 111.2570049  41.4265338
 102.0030315 118.9524092  43.3768022 101.5594169 118.1660471  43.0588927
 102.6647528 119.1403243  42.7111913  96.7617436 120.4819894  37.9028701
  97.3124861 120.3536957  37.1305695  95.9228912 120.7814783  37.5523594
 104.1011553 119.2326892  41.4049424 104.0830028 120.0535773  40.9129693
 105.0231473 119.1080967  41.6299565 100.5584607 116.7471022  42.2472932
 101.0912944 115.9859310  42.0172240 100.0298688 116.4544673  42.9897087
 103.7254302 101.8531088  37.7766574 103.3818571 102.7432729  37.7005684
 104.0933265 101.6632745  36.9136159  91.7940153 114.1764618  30.5955176
  92.6315375 114.5861626  30.3788884  91.9718420 113.2364060  30.5655370
 103.6904585 111.8439699  26.2839009 103.1751208 112.6144303  26.5227396
 103.4181893 111.1704835  26.9072070 101.2751696 106.6889399  31.3424247
 100.4193292 106.2996250  31.1629886 101.6878647 106.7681360  30.4824033
 102.8050842 104.2235743  35.7415807 102.3015638 104.1865878  34.9283612
 103.0981449 105.1328485  35.8012464  99.0493728 104.3074472  34.7481989
  99.9146725 104.1117281  34.3887878  99.1171237 104.0784824  35.6751346
 108.6638859 114.5972053  28.2192182 107.8868302 114.2583213  27.7747345
 109.3430340 114.6024676  27.5447148 103.4790888 109.7166791  28.1098790
 103.1741023 110.0312940  28.9608933 104.4321330 109.7948211  28.1526123
 101.9237320 115.8757014  29.7591744 101.3958681 115.1409774  29.4464982
 101.4224822 116.6531690  29.5131712 106.9030166 114.0706035  34.8758790
 106.2453840 114.7605296  34.9638919 107.7070565 114.4602466  35.2192777
  96.6556047 106.5376680  32.1198356  97.2299799 106.3151862  31.3871549
  97.2427030 106.6065375  32.8726957 105.7135624 112.4250407  32.9262732
 106.2267506 113.0580399  33.4284442 106.3636848 111.8251603  32.5606092
  96.9825634 108.5681141  26.1394241  96.1462947 108.9055828  26.4603516
  96.8430404 108.4330121  25.2021378  98.9578715 103.4117929  30.8473425
  98.3043127 103.0966946  30.2230040  98.9159189 102.7893670  31.5733248
 100.0689920 113.6937224  22.7626717  99.1616982 113.4626478  22.9617866
 100.5660952 112.8974844  22.9500699 102.9757999 122.4034732  25.6823403
 102.3019697 122.7066428  26.2908361 103.3623821 123.2063812  25.3328860
 102.1916455 109.8999863  35.1721073 101.2739017 110.1214810  35.0142761
 102.6076599 109.9746173  34.3132780 102.9751503 111.2991278  30.3023753
 103.7223322 111.8112676  29.9930875 103.2443093 110.9775331  31.1628147
 101.2478153 113.7949819  27.2850707 100.3389373 113.5108852  27.3823177
 101.2773237 114.2148898  26.4254014 106.4797421 117.4056409  31.0541875
 106.0259748 116.5647319  31.1107065 105.8491387 118.0417807  31.3916655
 105.4230340 108.3348395  32.2842542 104.6853097 107.8225781  32.6152785
 105.6757114 107.8948776  31.4725819 104.9230360 119.2432905  31.9891693
 105.2153334 119.8037962  31.2704059 105.4328980 119.5361466  32.7444852
 105.5241968 101.1124647  32.8784312 105.8300844 100.2522010  32.5910227
 106.2494572 101.7042267  32.6783305  91.8166324 111.5155333  31.2665909
  91.6190723 110.9224694  30.5416976  91.2612988 111.2107544  31.9841848
  99.7963047 111.4078440  33.3860503  99.8511657 110.4552276  33.3102979
  98.9854249 111.5637879  33.8701801 100.9454241 115.3358563  24.6238786
 100.5073671 114.6194422  24.1644423 101.6864682 115.5634678  24.0623877
  97.7355407 110.0255500  31.1450881  96.9223273 110.3249670  31.5516074
  98.2314401 109.6311188  31.8625364  99.8863985 120.0213256  33.0785146
  99.8440164 120.2474103  32.1493678 100.8026684 119.7876631  33.2270947
 103.3329619 110.4897324  39.9765775 103.6879007 110.7168797  40.8360241
 103.9801750 110.8215701  39.3543031 109.0627356 113.6115760  30.6815104
 108.9245254 113.8017356  29.7536294 108.7063575 114.3735143  31.1383156
  97.2269482 107.5973855  36.7612116  97.8668861 107.4562614  36.0635080
  96.3947013 107.3108368  36.3850718 109.0896735 115.6792287  35.6926376
 109.5233242 115.5867576  36.5409430 109.8028316 115.6549787  35.0546392
  98.0029786 116.8976285  32.8747109  98.7970384 116.4026606  32.6729684
  97.2921478 116.3694149  32.5114814 102.8224630 119.2794381  37.2259477
 102.8761653 119.8485317  37.9937192 101.9539412 119.4496266  36.8613514
  94.3112549 111.0419367  28.9506862  93.3810137 110.9803823  29.1676824
  94.4070021 110.5195320  28.1543503  94.2298098 107.5674180  31.5385103
  94.4904916 108.4819513  31.4294264  95.0515271 107.0998623  31.6881716
  95.7023024 108.9811937  38.7083928  96.3746077 108.7729299  38.0596577
  94.8752810 108.7834023  38.2689160 109.9512285 115.7215988  38.2259261
 110.1448175 116.6261798  38.4718536 109.8512903 115.2623407  39.0597846
 101.6048596 105.6073878  40.7249589 100.9576511 106.3063828  40.6314065
 102.3749611 106.0410022  41.0925837 105.0127394 115.8722730  43.8000142
 104.8612900 115.6433282  42.8830226 105.0032073 116.8293332  43.8131487
 101.7812730 113.4454643  38.7846408 102.7104790 113.5965803  38.6115376
 101.3603760 113.5338664  37.9295055 100.5801062 117.4705307  36.5544946
 100.4412148 117.1024092  37.4270884  99.7915658 117.9852947  36.3828904
 101.1749214 122.5714404  27.8970483 101.3500970 122.1002447  28.7116105
 100.4882002 123.1980170  28.1251743 102.1306277 116.8486910  33.9433784
 101.7956110 116.8087680  34.8391434 101.6310223 116.1831626  33.4704194
  96.1050521 112.2554540  39.4686365  95.9670319 111.5234779  40.0697904
  97.0155444 112.1663440  39.1870553 105.0665469 114.1942945  24.2170843
 104.4494639 113.4689773  24.1203896 104.5981957 114.9552305  23.8737918
  98.7332822 111.9674500  38.9570045  99.4432440 111.3267692  38.9156663
  98.6902130 112.2187394  39.8796225 106.7219600 118.9041853  41.8776624
 106.6632146 118.2201073  41.2107207 107.1239119 119.6460843  41.4257250
  97.4461756 108.9539717  40.7765684  96.9099113 108.5030456  41.4287280
  96.8578464 109.0885626  40.0336148  95.7410299 125.7203767  34.6710343
  95.9806897 126.3522291  35.3489361  94.8979496 125.3691807  34.9575702
  96.8564015 108.4128369  23.3392148  95.9793481 108.2917170  22.9754394
  97.3321768 107.6214447  23.0871036 106.7237008 116.8681437  40.1090603
 105.8363786 116.5307359  40.2317002 107.2935559 116.1364468  40.3459369
  88.3766155 113.2005529  33.4333655  89.0637195 112.8867259  32.8454670
  88.2214283 114.1046893  33.1600906  93.1800877 108.0895725  37.8618679
  93.0959066 107.4821395  37.1269088  92.3583583 108.5804743  37.8628175
 100.2538161 121.5282889  37.0751847 100.1808332 122.3337861  37.5871151
  99.8115554 121.7274855  36.2499868 100.0427941 120.7654659  30.5854668
  99.2595463 121.3076339  30.6792893 100.7420686 121.2828639  30.9848909
 103.3524591 106.5749289  33.2288874 103.8493290 105.8219251  32.9089944
 102.5811572 106.6113605  32.6632083 111.2054348 112.2789654  34.8707165
 111.1944224 113.1614370  34.5001098 110.3371728 111.9261205  34.6761702
 102.7136845 121.4269723  39.2310005 103.4264817 122.0617188  39.1585907
 102.2226873 121.5233589  38.4150007 104.4354371 115.3320976  30.8027297
 103.5010650 115.4522438  30.6332001 104.6131040 114.4293443  30.5387307
  99.9359559 108.7166672  32.9560558  99.5657347 108.1637712  33.6441464
 100.4318652 108.1124805  32.4035558 107.8226923 111.1738295  31.3377331
 108.2887375 112.0066287  31.2637634 108.2734423 110.7083277  32.0422590
  97.7648758 119.1764167  40.0515576  98.4658218 119.8100650  40.2044970
  97.2943873 119.5178898  39.2911215 105.8903154 117.5182116  28.3363483
 106.1662998 117.4038711  29.2457357 105.0207653 117.1199601  28.2975656
 105.7943586 103.5418882  35.3768232 104.8806665 103.7723109  35.5450439
 106.2236687 103.6257326  36.2282265 105.5650044 111.7308774  37.8768127
 104.9121494 111.9784682  37.2220579 105.9430424 110.9172912  37.5430604
 102.5257218 121.7668467  31.9796297 102.7079612 120.9490123  32.4424049
 103.3490204 121.9836160  31.5421187 102.8599383 120.6936652  29.2411345
 103.3887150 120.1829107  28.6281507 103.1227603 120.3779183  30.1056878
 101.6137617 112.4728585  44.3634164 100.9378254 112.3722714  45.0336539
 102.4365251 112.3167799  44.8270161  93.3616476 118.7100522  36.9846679
  93.9469913 117.9644210  37.1174583  93.1641315 119.0204478  37.8683343
  96.2155131 121.7451769  32.0009121  95.5465507 122.2297897  31.5173161
  96.0768001 121.9920990  32.9152500  87.9534131 111.2806122  35.7051122
  87.9918230 110.7469713  36.4988240  87.4474424 110.7541327  35.0862099
 100.3560400 123.7795513  38.5991780 100.9078708 123.9427134  39.3640865
 100.6966593 124.3699950  37.9271804  95.3324893 106.1270662  39.2013664
  95.3966220 106.9885493  38.7891062  95.2692013 105.5144664  38.4686023
  94.8077166 108.1993795  42.8486699  95.4349204 107.8170872  43.4624223
  93.9505085 107.9807997  43.2142391 105.2071274 118.6056770  44.4540434
 105.7511178 119.2186728  43.9595389 104.6258119 119.1636349  44.9707447
  91.5842708 110.0070224  28.7805053  91.8796150 109.0980902  28.7272107
  90.6830744 109.9857964  28.4586056 103.4928787 121.7277488  35.5855462
 103.3679927 120.9267228  35.0766407 104.1507878 122.2223681  35.0969432
  95.1136955 108.0826221  34.7632602  94.3923541 108.6962188  34.6240075
  95.9030211 108.6183985  34.6849248 105.5563696 119.5286508  37.2135012
 104.6094031 119.4091859  37.1413339 105.9046469 118.6409006  37.2961273
  97.9163269 105.4180647  41.0373254  98.4397671 105.6642944  41.7999563
  97.6975602 106.2500682  40.6176391  93.3130550 107.6884322  28.9044379
  92.9843256 106.8081701  28.7219484  93.6669921 107.6331990  29.7920768
 102.5610129 119.3239224  33.4139364 102.4135091 118.3955932  33.5946934
 103.3863622 119.3459315  32.9296439  96.4272373 107.9757292  29.2719856
  96.7668446 108.5043213  28.5498465  96.8744494 108.3137698  30.0478423
 106.1644251 120.1467783  34.5004237 107.0890798 119.9410644  34.3628688
 105.9959554 119.8984184  35.4093578  99.1215814 106.3594342  38.7222924
  98.7812634 105.5602155  39.1243604  98.4154820 106.6596053  38.1499757
  99.7732286 103.4443655  37.1750247 100.5958355 102.9704133  37.0529138
 100.0170349 104.2234138  37.6748934  98.4140520 106.4731913  27.4713149
  99.1348883 106.8513166  26.9676866  97.7905824 107.1920790  27.5748127
 102.5571643 107.1777062  28.4071481 102.7735258 108.0601700  28.1060309
 102.0765710 106.7863275  27.6777123  97.2970865 110.1362775  34.9842226
  97.1515445 110.4503078  35.8766507  96.8196068 110.7547676  34.4313125
  99.1567247 107.1265323  35.0323115  99.1428816 106.2306417  34.6955413
  99.8739676 107.1335987  35.6661401 101.0093378 107.5602663  37.0776243
 100.7511156 108.4819734  37.0760573 100.4778419 107.1633098  37.7676707
 105.9539567 120.6653451  29.8566328 106.1276444 120.0999873  29.1040181
 106.4468458 121.4654345  29.6745818  91.7716527 112.6768120  37.9229887
  91.2269995 113.4527928  38.0550161  92.6495877 113.0238924  37.7649009
  98.5604143 106.0079704  30.3010686  98.6820055 105.0796350  30.5001573
  98.2706186 106.0218390  29.3889001 101.4295334 103.6934614  33.4377405
 101.4517031 103.7573947  32.4829385 101.8463393 102.8539123  33.6317912
 111.8078958 113.4289874  31.4756628 112.2510104 112.6797199  31.0775751
 110.9305468 113.4200010  31.0930360 106.9414739 119.9820215  26.9563227
 107.6365644 120.6026908  27.1750541 107.2837890 119.1315566  27.2315604
  92.5582549 111.8038016  40.8160044  91.8164285 111.9520651  41.4024674
  92.2375293 112.0646282  39.9526793 108.8406163 117.4319921  28.4850557
 109.3657487 117.7707193  27.7599877 108.7528515 116.4966936  28.3013692
 100.5026211 121.3453994  40.6140434 100.8113338 121.1003141  41.4863134
 101.3001693 121.5500633  40.1259304 100.5246823 123.4991904  32.8445810
 100.0851814 123.0068283  33.5378667 101.2754940 122.9564871  32.6037886
  93.0039162 119.6903445  32.8470439  93.8297182 119.3907217  32.4669082
  92.6533214 118.9211067  33.2960227  97.9720695 119.0429913  34.9168112
  97.3500705 118.3800618  34.6170340  98.6425562 119.0691045  34.2341760
  91.2047767 117.6089771  33.8059372  90.3679676 117.1811945  33.6243373
  91.1771413 117.8022214  34.7430163  98.0445223 107.5211701  44.5100618
  98.0933378 108.3973824  44.1278388  98.5867737 106.9789094  43.9372261
 108.5300069 118.0652824  43.7901755 107.7395612 118.0476963  43.2506255
 108.2933423 118.6041118  44.5450792 108.6497944 114.9145291  41.1034484
 108.6995949 114.7495298  42.0450007 108.5411867 114.0472550  40.7132365
  97.5334202 117.5933836  28.3926573  97.6822323 118.2769301  27.7393245
  98.3400646 117.5738926  28.9076028 105.9401706 110.8976219  42.4193791
 106.8411569 110.7582683  42.1277788 106.0149681 111.0630673  43.3591968
 100.2744511 108.2743073  41.2646977  99.4047821 108.5676639  40.9929565
 100.5103992 108.8583518  41.9854240 110.1516140 117.3342232  41.3476505
 109.8600949 117.6972213  42.1839966 109.5388272 116.6209240  41.1689837
 111.3511823 114.8995112  33.8679076 112.1858714 115.3384916  34.0316636
 111.4870952 114.4233765  33.0487321 108.4003329 112.4574847  39.8156563
 108.8757450 112.6502493  39.0075415 107.4768894 112.5134033  39.5699947
  95.2886835 113.6199014  29.3987642  95.0432877 112.7161344  29.5967852
  95.4582750 113.6216164  28.4567120 102.9783545 104.4922690  38.7812397
 103.4965489 105.2283717  38.4558886 102.6238678 104.7986684  39.6159156
  94.5582483 109.3527371  26.8973803  93.8651728 109.4271726  26.2413839
  94.3134235 108.5887715  27.4195320 103.2296139 100.9122973  34.3013294
 103.5097893 100.2446162  34.9273720 104.0146746 101.1052068  33.7887958
 101.0329608 120.0881967  25.8638320 100.4603575 120.7072154  25.4108792
 101.6062402 120.6381328  26.3978242 107.1004998 109.3340607  38.0484869
 108.0522421 109.4338704  38.0697093 106.9308448 108.5418875  38.5582953
 105.1219377 106.4196190  38.2344270 104.5269309 106.7001203  37.5390758
 104.8369074 106.9090091  39.0061011 104.2526868 120.3719117  26.9946902
 105.1857541 120.3064679  27.1979778 104.1650080 121.2075384  26.5361435
 109.5793076 112.5546726  37.1627169 109.5469396 111.6162727  37.3486852
 110.1893699 112.6330763  36.4292993 101.4176406 111.4242779  23.2054373
 102.3635511 111.2948988  23.2742791 101.0390651 110.6857441  23.6823801
 109.7287564 109.3457770  37.2085452 109.2126613 108.5616227  37.0215381
 110.6127513 109.0176487  37.3731971 107.3898291 103.0898785  33.1681264
 107.1923112 102.7813874  34.0524596 107.9997997 103.8160424  33.2979194
 115.3969625 113.6162733  36.3033205 116.1273014 113.3548021  36.8640909
 114.7876571 112.8791455  36.3435273 113.4784922 111.7570596  36.9007657
 112.7518086 111.6226561  36.2924148 113.0632209 112.0647425  37.7064375
 101.3015099 115.4760526  44.6655030 102.2218108 115.6539125  44.8595076
 101.2664682 114.5316571  44.5134729  99.6019324 109.3492756  23.1409258
  98.6950779 109.0525869  23.2171971  99.8795305 109.0522574  22.2743544
  90.5197264 110.6699119  33.5908304  90.2000048 109.8164427  33.2982678
  89.9730692 110.8847697  34.3466272  94.2977171 113.3861560  37.3077811
  94.5163181 114.3178668  37.3265845  94.7102945 113.0269535  38.0932615
 101.2181389 103.8929646  29.2953499 100.4082118 103.5476731  29.6708745
 101.9065806 103.5837189  29.8841111 103.1471938 102.9707692  30.9177796
 103.7002976 103.3903146  31.5767819 103.3842024 102.0443440  30.9600752
  99.1705037 108.9594766  46.6980560  99.0701764 109.9089123  46.6292651
  98.9526579 108.6313005  45.8256630  98.3718108 106.2079691  23.2821237
  99.2337272 106.5334589  23.5417054  98.5568452 105.4211187  22.7694303
  90.3885524 114.2902031  35.5601426  89.6948995 113.8755984  35.0471380
  91.1358515 114.3322567  34.9634845 106.5250745 105.0808218  30.4256460
 105.9449414 105.7393022  30.0434512 106.2586677 104.2585562  30.0143878
 104.9754311 104.4813275  32.6277780 105.4754089 104.5929810  31.8192099
 105.6189919 104.1774328  33.2678589  99.0336307 112.3891905  45.5145621
  98.5503389 113.1892265  45.7209510  99.1197246 112.3999850  44.5613065
  92.3022266 114.2220285  33.4367441  92.2792955 114.3207972  32.4849324
  92.6122903 115.0685435  33.7584607  94.9609644 116.2796440  37.5514055
  95.9152898 116.2480382  37.4843987  94.7622168 115.8187063  38.3664281
  95.5509026 114.8497556  40.1184853  96.3701915 115.3441634  40.1419690
  95.8245834 113.9329524  40.0902420 105.3075623 107.2408308  29.4812808
 104.4201478 107.5257959  29.2633003 105.7229612 107.0802071  28.6340085
 108.6590159 107.2654829  33.1967148 109.4350549 107.7551281  33.4691764
 107.9338293 107.6912883  33.6539017 111.0962717 107.9782448  34.2541088
 111.6907208 107.7378184  33.5434396 111.1689301 107.2589579  34.8814624
  93.3159873 121.8216059  34.5684253  93.1814341 121.0616460  34.0022251
  92.8991935 122.5456959  34.1013042 104.4518836 117.0052983  23.5760828
 105.1554686 117.2102985  24.1918484 103.7281485 117.5729744  23.8409912
 105.2816646 112.7562844  29.6963098 105.2251848 113.2131395  28.8570731
 105.8344989 111.9953528  29.5185941 109.0921452 108.5452576  30.5213218
 108.8358387 108.1449211  31.3521426 108.4674320 109.2596370  30.3963357
 113.4033790 111.2848649  33.0284509 112.8433348 111.3541838  33.8016071
 112.7977294 111.1089634  32.3084006  96.4728999 122.7185376  34.7802696
  96.3561383 123.6630809  34.6781386  95.6521445 122.4158938  35.1688495
 106.3605534 117.4435512  25.6259288 107.1951137 117.0116710  25.4436763
 106.1989876 117.2717525  26.5536183 106.0151426 113.9467625  26.9915628
 105.9600230 113.7811897  26.0504072 105.3897481 114.6543658  27.1477817
 103.3297333 116.2516537  46.3169190 104.1988493 116.4257189  45.9555825
 102.8504084 117.0710954  46.1944920  99.3247551 103.4475734  26.5700946
  99.3126221 104.3917574  26.7269217 100.2170973 103.2645879  26.2760407
  97.4983513 123.3713638  37.9958624  98.4010760 123.4037248  38.3125119
  97.2720883 122.4414089  38.0104960  99.2537115 122.1244624  34.6568703
  98.3032746 122.1246486  34.5433075  99.5569601 121.3777359  34.1404737
 103.1399671 100.0418511  30.8246883 102.3732066  99.4876997  30.9703565
 103.5510376 100.1140379  31.6861034  95.1441432 106.3303307  44.9152064
  96.0072893 105.9740111  45.1255389  94.5706842 105.9917201  45.6027468
 114.9889809 127.9605163  35.7214465 115.6268219 127.8411910  35.0177805
 114.8710652 128.9086007  35.7802417 111.7979515 127.9132591  35.6575990
 111.4598026 127.7973656  34.7696525 112.6669283 127.5123756  35.6376996
 107.6566331 129.7668067  31.6472881 107.0931196 129.6758004  30.8789168
 107.5418726 128.9467972  32.1275373 112.2799298 129.0667443  41.6162195
 112.2687939 128.6720241  40.7442699 112.4419937 128.3333515  42.2095967
 105.2030763 131.2619259  34.4857101 105.9952054 130.9210084  34.0703400
 105.4427413 131.3714234  35.4059255 109.0006559 131.8504555  40.5641379
 108.7096425 132.7550185  40.4488046 109.6363543 131.8921082  41.2785449
 109.9262766 129.2281403  37.1542739 110.5226338 129.0037425  36.4399702
 109.9837737 128.4866149  37.7568187 114.5431077 125.6856617  32.7967673
 115.3294166 125.2676040  32.4458090 114.8069781 126.5902709  32.9649322
 119.9439504 125.6231850  33.7000652 120.6764676 125.0531067  33.9338481
 119.1878860 125.2353450  34.1407157 111.5615624 128.0459091  30.8963994
 111.1973831 127.5189712  31.6076916 112.4182740 127.6557560  30.7230480
 117.4664925 119.3353424  38.1595260 117.1348249 120.2048835  37.9356475
 116.8710538 119.0189708  38.8389291 113.9596444 131.5365970  37.5591173
 113.6597167 132.4391009  37.4506980 113.6147504 131.2698153  38.4112326
 107.4108926 127.9879767  33.5927877 106.4859422 127.8555981  33.8005569
 107.6593339 128.7673986  34.0897820 117.3593588 124.0548510  35.2388610
 116.4510465 123.9863919  34.9447371 117.3081184 124.5320455  36.0670436
 104.7717737 127.6313040  34.4271666 104.9010118 127.8847519  35.3411078
 104.0915188 128.2240748  34.1076322 111.4334454 125.4738156  43.1823508
 110.6567788 126.0332076  43.1726372 112.0725017 125.9594939  43.7038378
 119.2255234 122.2564949  37.0166484 118.5829615 122.5497482  36.3706279
 118.7210163 122.1417869  37.8219681 109.6880826 128.2823609  42.7441475
 110.4295510 128.8208653  42.4676298 108.9817811 128.9089898  42.9013026
 115.1636166 130.4252750  41.3413636 115.5719522 129.9835160  40.5968268
 114.4413427 129.8505377  41.5947829 111.5167236 125.3625356  38.7147193
 112.3628431 125.7864770  38.8581842 111.4565873 124.7058981  39.4085756
 115.4864980 130.9853940  35.0965925 114.8573843 131.1499654  34.3941993
 115.0990642 131.3995550  35.8676889 114.6666681 123.0229725  40.3728367
 114.4227613 123.7771785  39.8362642 114.9426612 123.4015072  41.2075614
 116.6205144 129.5668337  39.0505632 116.8322039 130.2100097  38.3740013
 116.5734892 128.7330654  38.5827562 114.2231373 122.1786158  35.9542204
 113.3615852 122.4767411  36.2458942 114.2493807 122.3956557  35.0223237
 107.9317023 130.2699830  35.2995773 108.5018380 130.6987098  34.6613258
 108.5225135 129.9882415  35.9979959 109.9761828 126.8451501  29.1705575
 110.6785872 127.2972544  29.6379502 109.6442457 126.2035320  29.7985468
 108.4242190 125.4363257  43.5456785 107.7940850 126.1179538  43.7792181
 108.3178278 125.3246339  42.6009923 103.7187162 125.1035053  34.4722709
 102.9286216 125.3592582  33.9962819 104.2098410 125.9183391  34.5774749
 117.7350972 132.4440293  37.2227990 118.5568415 132.0420480  36.9410671
 117.7313375 132.3408527  38.1744105 105.6701908 125.4679633  31.4306185
 104.8733071 125.5798327  31.9489681 105.4427500 125.8066285  30.5647076
 111.5007575 131.9924336  39.3788700 111.5652008 132.4544743  40.2146872
 110.7918499 131.3621701  39.5071010 102.0024865 125.3565544  36.9037700
 102.2532904 126.2412554  37.1695275 102.5384414 125.1770145  36.1312791
 107.7022932 119.7384023  45.9082036 107.3089878 119.1850222  46.5829680
 108.5189073 120.0494602  46.2988553 104.6684990 131.1767881  29.8195605
 105.1809511 131.9711132  29.9701170 105.3207703 130.4794172  29.7529207
 110.6190893 121.1541902  43.5002292 111.3600607 121.7549055  43.4206755
 110.8508816 120.4119540  42.9420335 105.7632231 126.3398270  41.7780522
 105.6485747 125.4383527  42.0787621 104.9076749 126.5861966  41.4265338
 112.8424069 134.2816010  43.3768022 112.3987923 133.4952388  43.0588927
 113.5041283 134.4695160  42.7111913 107.6011190 135.8111811  37.9028701
 108.1518616 135.6828875  37.1305695 106.7622666 136.1106700  37.5523594
 114.9405307 134.5618810  41.4049424 114.9223783 135.3827691  40.9129693
 115.8625227 134.4372885  41.6299565 111.3978361 132.0762939  42.2472932
 111.9306698 131.3151227  42.0172240 110.8692443 131.7836591  42.9897087
 114.5648056 117.1823005  37.7766574 114.2212326 118.0724647  37.7005684
 114.9327019 116.9924663  36.9136159 102.6333907 129.5056536  30.5955176
 103.4709129 129.9153544  30.3788884 102.8112175 128.5655978  30.5655370
 112.1145450 122.0181317  31.3424247 111.2587046 121.6288167  31.1629886
 112.5272402 122.0973278  30.4824033 113.6444597 119.5527660  35.7415807
 113.1409392 119.5157796  34.9283612 113.9375204 120.4620403  35.8012464
 109.8887483 119.6366390  34.7481989 110.7540479 119.4409199  34.3887878
 109.9564992 119.4076742  35.6751346 117.7423920 129.3997952  34.8758790
 117.0847595 130.0897214  34.9638919 118.5464319 129.7894384  35.2192777
 107.4949802 121.8668598  32.1198356 108.0693554 121.6443780  31.3871549
 108.0820784 121.9357293  32.8726957 116.5529379 127.7542325  32.9262732
 117.0661261 128.3872317  33.4284442 117.2030603 127.1543520  32.5606092
 109.7972469 118.7409847  30.8473425 109.1436882 118.4258864  30.2230040
 109.7552944 118.1185587  31.5733248 113.0310210 125.2291780  35.1721073
 112.1132771 125.4506727  35.0142761 113.4470353 125.3038091  34.3132780
 116.2624095 123.6640312  32.2842542 115.5246852 123.1517699  32.6152785
 116.5150868 123.2240694  31.4725819 116.3635722 116.4416564  32.8784312
 116.6694599 115.5813928  32.5910227 117.0888327 117.0334185  32.6783305
 102.6560078 126.8447251  31.2665909 102.4584478 126.2516612  30.5416976
 102.1006742 126.5399461  31.9841848 110.6356802 126.7370357  33.3860503
 110.6905412 125.7844194  33.3102979 109.8248004 126.8929797  33.8701801
 108.5749162 125.3547417  31.1450881 107.7617027 125.6541588  31.5516074
 109.0708156 124.9603106  31.8625364 114.1723373 125.8189242  39.9765775
 114.5272761 126.0460715  40.8360241 114.8195505 126.1507618  39.3543031
 108.0663236 122.9265773  36.7612116 108.7062616 122.7854532  36.0635080
 107.2340767 122.6400286  36.3850718 108.8423540 132.2268203  32.8747109
 109.6364139 131.7318523  32.6729684 108.1315233 131.6986066  32.5114814
 113.6618385 134.6086299  37.2259477 113.7155407 135.1777235  37.9937192
 112.7933166 134.7788184  36.8613514 105.1506304 126.3711285  28.9506862
 104.2203892 126.3095740  29.1676824 105.2463776 125.8487238  28.1543503
 105.0691853 122.8966098  31.5385103 105.3298670 123.8111431  31.4294264
 105.8909025 122.4290540  31.6881716 106.5416778 124.3103855  38.7083928
 107.2139832 124.1021217  38.0596577 105.7146565 124.1125941  38.2689160
 120.7906040 131.0507905  38.2259261 120.9841930 131.9553716  38.4718536
 120.6906658 130.5915324  39.0597846 112.4442350 120.9365796  40.7249589
 111.7970265 121.6355745  40.6314065 113.2143366 121.3701940  41.0925837
 115.8521148 131.2014648  43.8000142 115.7006655 130.9725200  42.8830226
 115.8425828 132.1585249  43.8131487 112.6206485 128.7746561  38.7846408
 113.5498545 128.9257720  38.6115376 112.1997515 128.8630582  37.9295055
 111.4194816 132.7997225  36.5544946 111.2805902 132.4316010  37.4270884
 110.6309413 133.3144865  36.3828904 112.9700032 132.1778828  33.9433784
 112.6349864 132.1379598  34.8391434 112.4703977 131.5123544  33.4704194
 106.9444275 127.5846458  39.4686365 106.8064073 126.8526697  40.0697904
 107.8549199 127.4955358  39.1870553 109.5726576 127.2966417  38.9570045
 110.2826195 126.6559609  38.9156663 109.5295884 127.5479312  39.8796225
 117.5613355 134.2333771  41.8776624 117.5025901 133.5492991  41.2107207
 117.9632873 134.9752761  41.4257250 108.2855510 124.2831635  40.7765684
 107.7492867 123.8322374  41.4287280 107.6972219 124.4177544  40.0336148
 117.5630762 132.1973354  40.1090603 116.6757541 131.8599276  40.2317002
 118.1329313 131.4656386  40.3459369  99.2159909 128.5297446  33.4333655
  99.9030949 128.2159176  32.8454670  99.0608038 129.4338811  33.1600906
 104.0194631 123.4187643  37.8618679 103.9352820 122.8113312  37.1269088
 103.1977338 123.9096661  37.8628175 111.0931916 136.8574807  37.0751847
 111.0202087 137.6629778  37.5871151 110.6509309 137.0566773  36.2499868
 114.1918345 121.9041206  33.2288874 114.6887045 121.1511169  32.9089944
 113.4205327 121.9405523  32.6632083 113.5530599 136.7561641  39.2310005
 114.2658571 137.3909106  39.1585907 113.0620628 136.8525507  38.4150007
 110.7753314 124.0458589  32.9560558 110.4051102 123.4929630  33.6441464
 111.2712406 123.4416723  32.4035558 108.6042513 134.5056084  40.0515576
 109.3051972 135.1392567  40.2044970 108.1337628 134.8470816  39.2911215
 116.6337340 118.8710800  35.3768232 115.7200420 119.1015027  35.5450439
 117.0630441 118.9549244  36.2282265 116.4043799 127.0600692  37.8768127
 115.7515249 127.3076599  37.2220579 116.7824178 126.2464830  37.5430604
 112.4531372 127.8020503  44.3634164 111.7772009 127.7014632  45.0336539
 113.2759005 127.6459717  44.8270161 104.2010231 134.0392439  36.9846679
 104.7863667 133.2936127  37.1174583 104.0035069 134.3496396  37.8683343
  98.7927885 126.6098040  35.7051122  98.8311985 126.0761630  36.4988240
  98.2868178 126.0833245  35.0862099 111.1954154 139.1087430  38.5991780
 111.7472462 139.2719052  39.3640865 111.5360348 139.6991868  37.9271804
 106.1718648 121.4562580  39.2013664 106.2359974 122.3177411  38.7891062
 106.1085768 120.8436582  38.4686023 105.6470920 123.5285713  42.8486699
 106.2742959 123.1462790  43.4624223 104.7898839 123.3099915  43.2142391
 116.0465029 133.9348688  44.4540434 116.5904933 134.5478646  43.9595389
 115.4651874 134.4928266  44.9707447 102.4236463 125.3362142  28.7805053
 102.7189904 124.4272820  28.7272107 101.5224499 125.3149881  28.4586056
 105.9530710 123.4118138  34.7632602 105.2317296 124.0254106  34.6240075
 106.7423966 123.9475903  34.6849248 116.3957450 134.8578426  37.2135012
 115.4487786 134.7383777  37.1413339 116.7440223 133.9700924  37.2961273
 108.7557023 120.7472565  41.0373254 109.2791425 120.9934861  41.7999563
 108.5369357 121.5792600  40.6176391 104.1524305 123.0176239  28.9044379
 103.8237011 122.1373618  28.7219484 104.5063675 122.9623908  29.7920768
 107.2666128 123.3049209  29.2719856 107.6062200 123.8335130  28.5498465
 107.7138248 123.6429615  30.0478423 109.9609568 121.6886260  38.7222924
 109.6206389 120.8894073  39.1243604 109.2548575 121.9887971  38.1499757
 110.6126040 118.7735572  37.1750247 111.4352110 118.2996051  37.0529138
 110.8564104 119.5526056  37.6748934 109.2534275 121.8023831  27.4713149
 109.9742637 122.1805084  26.9676866 108.6299579 122.5212708  27.5748127
 108.1364619 125.4654693  34.9842226 107.9909200 125.7794996  35.8766507
 107.6589823 126.0839593  34.4313125 109.9961002 122.4557241  35.0323115
 109.9822571 121.5598334  34.6955413 110.7133430 122.4627905  35.6661401
 111.8487133 122.8894581  37.0776243 111.5904910 123.8111652  37.0760573
 111.3172173 122.4925016  37.7676707 102.6110281 128.0060037  37.9229887
 102.0663749 128.7819845  38.0550161 103.4889631 128.3530842  37.7649009
 109.3997898 121.3371621  30.3010686 109.5213809 120.4088267  30.5001573
 109.1099940 121.3510307  29.3889001 112.2689088 119.0226532  33.4377405
 112.2910785 119.0865865  32.4829385 112.6857147 118.1831040  33.6317912
 103.3976303 127.1329934  40.8160044 102.6558039 127.2812569  41.4024674
 103.0769047 127.3938199  39.9526793 111.3419966 136.6745912  40.6140434
 111.6507092 136.4295059  41.4863134 112.1395448 136.8792550  40.1259304
 103.8432917 135.0195362  32.8470439 104.6690937 134.7199134  32.4669082
 103.4926969 134.2502985  33.2960227 108.8114450 134.3721831  34.9168112
 108.1894459 133.7092536  34.6170340 109.4819317 134.3982962  34.2341760
 102.0441522 132.9381689  33.8059372 101.2073430 132.5103863  33.6243373
 102.0165167 133.1314132  34.7430163 108.8838977 122.8503619  44.5100618
 108.9327133 123.7265741  44.1278388 109.4261492 122.3081012  43.9372261
 119.3693823 133.3944742  43.7901755 118.5789367 133.3768881  43.2506255
 119.1327178 133.9333036  44.5450792 119.4891698 130.2437208  41.1034484
 119.5389703 130.0787216  42.0450007 119.3805622 129.3764467  40.7132365
 116.7795461 126.2268136  42.4193791 117.6805323 126.0874601  42.1277788
 116.8543435 126.3922591  43.3591968 111.1138266 123.6034991  41.2646977
 110.2441575 123.8968557  40.9929565 111.3497746 124.1875436  41.9854240
 120.9909895 132.6634150  41.3476505 120.6994703 133.0264130  42.1839966
 120.3782026 131.9501158  41.1689837 119.2397083 127.7866764  39.8156563
 119.7151205 127.9794411  39.0075415 118.3162649 127.8425950  39.5699947
 113.8177300 119.8214608  38.7812397 114.3359244 120.5575635  38.4558886
 113.4632432 120.1278601  39.6159156 105.3976237 124.6819289  26.8973803
 104.7045482 124.7563644  26.2413839 105.1527989 123.9179633  27.4195320
 114.0689894 116.2414890  34.3013294 114.3491648 115.5738080  34.9273720
 114.8540501 116.4343986  33.7887958 117.9398752 124.6632524  38.0484869
 118.8916175 124.7630622  38.0697093 117.7702203 123.8710793  38.5582953
 115.9613132 121.7488108  38.2344270 115.3663064 122.0293120  37.5390758
 115.6762828 122.2382009  39.0061011 120.4186830 127.8838644  37.1627169
 120.3863150 126.9454645  37.3486852 121.0287454 127.9622681  36.4292993
 120.5681318 124.6749688  37.2085452 120.0520367 123.8908144  37.0215381
 121.4521267 124.3468404  37.3731971 118.2292045 118.4190703  33.1681264
 118.0316867 118.1105791  34.0524596 118.8391751 119.1452342  33.2979194
 124.3178677 127.0862514  36.9007657 123.5911841 126.9518479  36.2924148
 123.9025964 127.3939342  37.7064375 112.1408853 130.8052443  44.6655030
 113.0611863 130.9831042  44.8595076 112.1058436 129.8608489  44.5134729
 101.3591018 125.9991037  33.5908304 101.0393803 125.1456345  33.2982678
 100.8124447 126.2139615  34.3466272 105.1370926 128.7153478  37.3077811
 105.3556936 129.6470586  37.3265845 105.5496700 128.3561452  38.0932615
 112.0575144 119.2221563  29.2953499 111.2475872 118.8768648  29.6708745
 112.7459561 118.9129107  29.8841111 113.9865692 118.2999610  30.9177796
 114.5396731 118.7195063  31.5767819 114.2235778 117.3735358  30.9600752
 110.0098791 124.2886684  46.6980560 109.9095518 125.2381041  46.6292651
 109.7920333 123.9604923  45.8256630 101.2279278 129.6193948  35.5601426
 100.5342750 129.2047901  35.0471380 101.9752269 129.6614485  34.9634845
 117.3644499 120.4100135  30.4256460 116.7843168 121.0684939  30.0434512
 117.0980432 119.5877480  30.0143878 115.8148065 119.8105193  32.6277780
 116.3147844 119.9221727  31.8192099 116.4583673 119.5066246  33.2678589
 109.8730061 127.7183823  45.5145621 109.3897143 128.5184183  45.7209510
 109.9591000 127.7291767  44.5613065 103.1416021 129.5512202  33.4367441
 103.1186709 129.6499889  32.4849324 103.4516657 130.3977353  33.7584607
 105.8003399 131.6088357  37.5514055 106.7546652 131.5772300  37.4843987
 105.6015922 131.1478981  38.3664281 106.3902781 130.1789473  40.1184853
 107.2095670 130.6733552  40.1419690 106.6639589 129.2621441  40.0902420
 119.4983913 122.5946747  33.1967148 120.2744303 123.0843199  33.4691764
 118.7732047 123.0204801  33.6539017 121.9356472 123.3074366  34.2541088
 122.5300963 123.0670102  33.5434396 122.0083056 122.5881496  34.8814624
 104.1553628 137.1507977  34.5684253 104.0208096 136.3908378  34.0022251
 103.7385690 137.8748877  34.1013042 107.3122753 138.0477294  34.7802696
 107.1955138 138.9922726  34.6781386 106.4915200 137.7450855  35.1688495
 101.6437695 124.5127607  40.8177050 102.2896559 124.0026561  41.3064275
 101.4354846 125.2496289  41.3920475 114.1691087 131.5808455  46.3169190
 115.0382247 131.7549107  45.9555825 113.6897839 132.4002871  46.1944920
 110.1641306 118.7767652  26.5700946 110.1519975 119.7209492  26.7269217
 111.0564728 118.5937797  26.2760407 108.3377268 138.7005556  37.9958624
 109.2404514 138.7329166  38.3125119 108.1114638 137.7706007  38.0104960
 113.9793425 115.3710428  30.8246883 113.2125821 114.8168915  30.9703565
 114.3904130 115.4432297  31.6861034 105.9835186 121.6595224  44.9152064
 106.8466648 121.3032029  45.1255389 105.4100597 121.3209119  45.6027468
 122.2728208 140.8030073  43.1823508 121.4961542 141.3623994  43.1726372
 122.9118771 141.2886856  43.7038378 119.2635944 140.7655175  43.5456785
 118.6334605 141.4471456  43.7792181 119.1572032 140.6538257  42.6009923
 118.5416687 135.0675941  45.9082036 118.1483633 134.5142139  46.5829680
 119.3582827 135.3786519  46.2988553 121.4584648 136.4833820  43.5002292
 122.1994361 137.0840973  43.4206755 121.6902571 135.7411458  42.9420335
 116.6025986 141.6690187  41.7780522 116.4879501 140.7675444  42.0787621
 115.7470504 141.9153884  41.4265338 123.2836105 136.2657713  40.7249589
 122.6364020 136.9647663  40.6314065 124.0537120 136.6993857  41.0925837
 119.1249265 139.6123553  40.7765684 118.5886622 139.1614291  41.4287280
 118.5365973 139.7469462  40.0336148 123.2925126 143.1312420  44.3634164
 122.6165763 143.0306550  45.0336539 124.1152760 142.9751634  44.8270161
 117.0112402 136.7854498  39.2013664 117.0753729 137.6469329  38.7891062
 116.9479522 136.1728499  38.4686023 116.4864675 138.8577630  42.8486699
 117.1136713 138.4754708  43.4624223 115.6292594 138.6391832  43.2142391
 119.5950778 136.0764482  41.0373254 120.1185180 136.3226779  41.7999563
 119.3763111 136.9084517  40.6176391 114.2370058 142.4621851  40.8160044
 113.4951794 142.6104487  41.4024674 113.9162802 142.7230117  39.9526793
 119.7232732 138.1795536  44.5100618 119.7720887 139.0557659  44.1278388
 120.2655246 137.6372929  43.9372261 121.9532020 138.9326909  41.2646977
 121.0835330 139.2260475  40.9929565 122.1891501 139.5167354  41.9854240
 120.8492546 139.6178601  46.6980560 120.7489273 140.5672958  46.6292651
 120.6314088 139.2896840  45.8256630 120.7123816 143.0475740  45.5145621
 120.2290898 143.8476100  45.7209510 120.7984755 143.0583685  44.5613065
 112.4831450 139.8419525  40.8177050 113.1290313 139.3318479  41.3064275
 112.2748601 140.5788206  41.3920475 116.8228941 136.9887142  44.9152064
 117.6860402 136.6323947  45.1255389 116.2494351 136.6501037  45.6027468
  47.8061544  19.3126626  30.1013329  47.3625398  18.5263005  29.7834234
  48.4678757  19.5005777  29.4357220  49.9042782  19.5929426  28.1294730
  49.8861257  20.4138307  27.6375000  50.8262702  19.4683502  28.3544872
  46.3615836  17.1073556  28.9718239  46.8944173  16.3461844  28.7417547
  45.8329917  16.8147208  29.7142393  50.8158622  16.2325265  30.5245449
  50.6644129  16.0035816  29.6075532  50.8063302  17.1895866  30.5376794
  52.5250829  19.2644387  28.6021930  52.4663375  18.5803607  27.9352513
  52.9270348  20.0063377  28.1502556  52.5268236  17.2283971  26.8335910
  51.6395015  16.8909893  26.9562309  53.0966787  16.4967002  27.0704675
  48.5168073  21.7872257  25.9555312  49.2296046  22.4219722  25.8831213
  48.0258102  21.8836123  25.1395314  47.4168846  12.8331119  31.0879470
  46.7409483  12.7325249  31.7581845  48.2396480  12.6770333  31.5515467
  46.1591629  24.1398047  25.3237086  46.7109937  24.3029668  26.0886171
  46.4997822  24.7302485  24.6517111  51.0102503  18.9659304  31.1785741
  51.5542407  19.5789263  30.6840695  50.4289348  19.5238883  31.6952754
  46.3057440  21.7056528  27.3385741  46.6144567  21.4605675  28.2108440
  47.1032922  21.9103167  26.8504611  54.3331297  18.4255358  30.5147062
  53.5426841  18.4079497  29.9751561  54.0964652  18.9643652  31.2696098
  54.4529172  15.2747825  27.8279790  54.5027177  15.1097832  28.7695313
  54.3443096  14.4075084  27.4377671  55.9547369  17.6944766  28.0721812
  55.6632178  18.0574747  28.9085273  55.3419501  16.9811775  27.8935144
  47.1046328  15.8363060  31.3900336  48.0249337  16.0141659  31.5840383
  47.0695911  14.8919105  31.2380036  49.1328562  16.6119071  33.0414497
  50.0019721  16.7859723  32.6801132  48.6535313  17.4313488  32.9190226
  60.7921037  28.3207697  22.4459772  61.4299447  28.2014444  21.7423112
  60.6741880  29.2688541  22.5047724  57.6010744  28.2735125  22.3821296
  57.2629255  28.1576190  21.4941831  58.4700512  27.8726290  22.3622303
  58.0830527  29.4269977  28.3407502  58.0719167  29.0322775  27.4688006
  58.2451166  28.6936050  28.9341273  51.0061991  31.6221793  21.2102408
  51.7983283  31.2812618  20.7948707  51.2458641  31.7316768  22.1304561
  54.8037788  32.2107089  27.2886686  54.5127654  33.1152720  27.1733352
  55.4394772  32.2523616  28.0030755  55.7293995  29.5883937  23.8788046
  56.3257567  29.3639960  23.1645009  55.7868966  28.8468683  24.4813493
  60.3462306  26.0459151  19.5212980  61.1325395  25.6278574  19.1703397
  60.6101010  26.9505243  19.6894628  65.7470733  25.9834384  20.4245958
  66.4795905  25.4133601  20.6583788  64.9910089  25.5955985  20.8652464
  57.3646853  28.4061626  17.6209301  57.0005060  27.8792247  18.3322222
  58.2213969  28.0160095  17.4475786  63.2696153  19.6955958  24.8840567
  62.9379478  20.5651369  24.6601782  62.6741767  19.3792242  25.5634597
  59.7627673  31.8968504  24.2836480  59.4628396  32.7993543  24.1752287
  59.4178732  31.6300687  25.1357633  53.2140154  28.3482301  20.3173184
  52.2890651  28.2158515  20.5250876  53.4624568  29.1276520  20.8143126
  63.1624817  24.4151044  21.9633917  62.2541694  24.3466453  21.6692678
  63.1112413  24.8922989  22.7915742  50.5748965  27.9915575  21.1516973
  50.7041347  28.2450054  22.0656385  49.8946417  28.5843283  20.8321628
  54.7448453  38.6612825  17.2507447  54.6672482  39.6120650  17.3295928
  54.1410096  38.3158697  17.9082374  57.2365682  25.8340690  29.9068814
  56.4599017  26.3934610  29.8971679  57.8756246  26.3197473  30.4283684
  65.0286463  22.6167483  23.7411791  64.3860843  22.9100016  23.0951585
  64.5241392  22.5020403  24.5464988  55.4912055  28.6426143  29.4686781
  56.2326739  29.1811187  29.1921605  54.7849040  29.2692432  29.6258333
  60.9667394  30.7855284  28.0658943  61.3750750  30.3437694  27.3213575
  60.2444656  30.2107911  28.3193136  57.3198464  25.7227891  25.4392500
  58.1659660  26.1467304  25.5827149  57.2597102  25.0661515  26.1331063
  61.2896209  31.3456474  21.8211232  60.6605072  31.5102189  21.1187299
  60.9021871  31.7598084  22.5922196  65.1685441  32.2810912  19.1755595
  64.4836479  32.6609814  18.6252629  65.2529290  32.8906239  19.9087543
  60.4697910  23.3832259  27.0973673  60.2258842  24.1374320  26.5607949
  60.7457840  23.7617607  27.9320920  62.4236373  29.9270871  25.7750939
  62.6353268  30.5702631  25.0985320  62.3766121  29.0933188  25.3072869
  60.0262602  22.5388692  22.6787511  59.1647081  22.8369946  22.9704249
  60.0525036  22.7559091  21.7468544  56.8424171  31.0830883  19.0861317
  57.3062516  31.3618586  18.2965939  56.5780969  30.1814327  18.9034407
  53.7348252  30.6302364  22.0241080  54.3049609  31.0589632  21.3858564
  54.3256364  30.3484949  22.7225266  54.2273419  25.7965792  30.2702091
  53.5972079  26.4782072  30.5037488  54.1209506  25.6848873  29.3255229
  63.5382201  32.8042827  23.9473296  64.3599644  32.4023014  23.6655978
  63.5344603  32.7011061  24.8989412  57.3038804  32.3526870  26.1034007
  57.3683236  32.8147277  26.9392179  56.5949728  31.7224235  26.2316317
  47.8056094  25.7168078  23.6283006  48.0564132  26.6015088  23.8940582
  48.3415642  25.5372680  22.8558098  71.6288194  29.1481575  20.2958268
  70.8751902  28.5788973  20.1402272  71.7635735  29.1144240  21.2428902
  57.0186822  34.0194978  15.9712987  56.8832496  34.8646513  16.3997835
  57.5596634  34.2214255  15.2078921  53.5054161  20.0986557  32.6327342
  53.1121107  19.5452756  33.3074987  54.3220302  20.4097136  33.0233860
  52.2811104  34.6536172  18.6263665  52.4577732  35.5754137  18.4384649
  53.0767937  34.3394591  19.0558045  56.4222122  21.5144436  30.2247599
  57.1631836  22.1151590  30.1452061  56.6540045  20.7722074  29.6665641
  51.5663460  26.7000804  28.5025829  51.4516975  25.7986061  28.8032927
  50.7107978  26.9464501  28.1510645  58.6455298  34.6418544  30.1013329
  58.2019152  33.8554923  29.7834234  59.3072512  34.8297695  29.4357220
  53.4042419  36.1714346  24.6274008  53.9549844  36.0431409  23.8551002
  52.5653895  36.4709235  24.2768900  60.7436536  34.9221344  28.1294730
  60.7255011  35.7430225  27.6375000  61.6656456  34.7975419  28.3544872
  57.2009590  32.4365473  28.9718239  57.7337927  31.6753762  28.7417547
  56.6723671  32.1439125  29.7142393  60.3679285  17.5425539  24.5011881
  60.0243555  18.4327181  24.4250991  60.7358248  17.3527197  23.6381466
  59.4475826  19.9130195  22.4661114  58.9440621  19.8760330  21.6528919
  59.7406432  20.8222937  22.5257770  65.3063842  30.2866505  14.9437489
  64.5293285  29.9477665  14.4992651  65.9855323  30.2919128  14.2692454
  58.5662303  31.5651466  16.4837051  58.0383665  30.8304226  16.1710288
  58.0649806  32.3426142  16.2377019  63.5455149  29.7600486  21.6004097
  62.8878823  30.4499748  21.6884226  64.3495548  30.1496918  21.9438083
  62.3560608  28.1144859  19.6508039  62.8692490  28.7474851  20.1529749
  63.0061832  27.5146055  19.2851399  59.6182982  38.0929183  12.4068710
  58.9444681  38.3960880  13.0153668  60.0048804  38.8958264  12.0574167
  58.8341439  25.5894315  21.8966379  57.9164000  25.8109262  21.7388067
  59.2501582  25.6640625  21.0378087  63.1222404  33.0950861  17.7787181
  62.6684731  32.2541770  17.8352372  62.4916371  33.7312259  18.1161962
  62.0655324  24.0242847  19.0087849  61.3278080  23.5120233  19.3398091
  62.3182097  23.5843228  18.1971126  61.5655343  34.9327357  18.7137000
  61.8578318  35.4932414  17.9949365  62.0753964  35.2255918  19.4690159
  56.4388031  27.0972892  20.1105809  56.4936640  26.1446728  20.0348286
  55.6279233  27.2532331  20.5947108  56.5288968  35.7107708  19.8030453
  56.4865147  35.9368555  18.8738985  57.4451667  35.4771083  19.9516254
  59.9754602  26.1791776  26.7011082  60.3303990  26.4063249  27.5605548
  60.6226733  26.5110153  26.0788337  65.7052339  29.3010212  17.4060411
  65.5670238  29.4911808  16.4781600  65.3488558  30.0629595  17.8628462
  53.8694465  23.2868307  23.4857423  54.5093845  23.1457066  22.7880386
  53.0371996  23.0002820  23.1096025  65.7321719  31.3686739  22.4171683
  66.1658225  31.2762028  23.2654737  66.4453299  31.3444239  21.7791699
  54.6454769  32.5870737  19.5992416  55.4395368  32.0921058  19.3974990
  53.9346462  32.0588601  19.2360121  59.4649614  34.9688833  23.9504783
  59.5186636  35.5379769  24.7182499  58.5964395  35.1390718  23.5858820
  52.3448007  24.6706389  25.4329234  53.0171060  24.4623751  24.7841883
  51.5177794  24.4728475  24.9934467  66.5937268  31.4110439  24.9504568
  66.7873158  32.3156250  25.1963843  66.4937886  30.9517859  25.7843153
  58.2473579  21.2968330  27.4494895  57.6001494  21.9958280  27.3559372
  59.0174594  21.7304474  27.8171143  61.6552377  31.5617182  30.5245449
  61.5037883  31.3327734  29.6075532  61.6457056  32.5187784  30.5376794
  58.4237713  29.1349095  25.5091715  59.3529773  29.2860255  25.3360682
  58.0028743  29.2233116  24.6540362  57.2226045  33.1599759  23.2790253
  57.0837131  32.7918544  24.1516191  56.4340641  33.6747399  23.1074210
  57.8174197  38.2608856  14.6215789  57.9925953  37.7896899  15.4361412
  57.1306985  38.8874622  14.8497050  58.7731260  32.5381362  20.6679090
  58.4381093  32.4982132  21.5636740  58.2735206  31.8726078  20.1949501
  52.7475504  27.9448992  26.1931672  52.6095302  27.2129231  26.7943211
  53.6580428  27.8557892  25.9115859  55.3757805  27.6568951  25.6815351
  56.0857423  27.0162144  25.6401970  55.3327113  27.9081846  26.6041532
  63.3644584  34.5936305  28.6021930  63.3057130  33.9095525  27.9352513
  63.7664102  35.3355295  28.1502556  54.0886739  24.6434169  27.5010991
  53.5524096  24.1924908  28.1532587  53.5003447  24.7780078  26.7581455
  52.3835282  41.4098219  21.3955649  52.6231881  42.0416743  22.0734668
  51.5404479  41.0586259  21.6821009  63.3661991  32.5575889  26.8335910
  62.4788770  32.2201810  26.9562309  63.9360542  31.8258920  27.0704675
  49.8225860  23.7790177  24.5863985  49.7384049  23.1715847  23.8514395
  49.0008567  24.2699195  24.5873482  56.8963144  37.2177341  23.7997153
  56.8233316  38.0232313  24.3116458  56.4540537  37.4169307  22.9745175
  56.6852924  36.4549111  17.3099975  55.9020446  36.9970791  17.4038199
  57.3845669  36.9723091  17.7094216  67.8479331  27.9684106  21.5952472
  67.8369208  28.8508821  21.2246405  66.9796711  27.6155657  21.4007009
  59.3561828  37.1164175  25.9555312  60.0689800  37.7511640  25.8831213
  58.8651856  37.2128041  25.1395314  61.0779355  31.0215428  17.5272604
  60.1435633  31.1416890  17.3577308  61.2556023  30.1187895  17.2632613
  64.4651906  26.8632747  18.0622638  64.9312358  27.6960739  17.9882940
  64.9159407  26.3977729  18.7667896  54.4073741  34.8658619  26.7760883
  55.1083201  35.4995101  26.9290277  53.9368856  35.2073350  26.0156522
  62.5328137  33.2076568  15.0608790  62.8087981  33.0933163  15.9702664
  61.6632636  32.8094053  15.0220963  62.4368569  19.2313334  22.1013539
  61.5231649  19.4617561  22.2695746  62.8661670  19.3151778  22.9527571
  62.2075027  27.4203226  24.6013433  61.5546478  27.6679133  23.9465886
  62.5855407  26.6067364  24.2675910  59.1682201  37.4562919  18.7041603
  59.3504596  36.6384575  19.1669356  59.9915187  37.6730611  18.2666493
  59.5024367  36.3831104  15.9656652  60.0312133  35.8723559  15.3526814
  59.7652586  36.0673635  16.8302185  58.2562600  28.1623037  31.0879470
  57.5803237  28.0617166  31.7581845  59.0790234  28.0062251  31.5515467
  50.0041459  34.3994974  23.7091985  50.5894896  33.6538661  23.8419890
  49.8066298  34.7098930  24.5928649  52.8580115  37.4346221  18.7254428
  52.1890490  37.9192349  18.2418468  52.7192984  37.6815441  19.6397806
  56.9985383  39.4689964  25.3237086  57.5503691  39.6321586  26.0886171
  57.3391577  40.0594402  24.6517111  51.9749876  21.8165114  25.9258971
  52.0391203  22.6779945  25.5136369  51.9116997  21.2039116  25.1931329
  51.4502149  23.8888247  29.5732005  52.0774188  23.5065324  30.1869529
  50.5930068  23.6702449  29.9387698  61.8496258  34.2951222  31.1785741
  62.3936162  34.9081180  30.6840695  61.2683102  34.8530800  31.6952754
  60.1353770  37.4171940  22.3100768  60.0104910  36.6161680  21.8011714
  60.7932862  37.9118133  21.8214738  62.1988679  35.2180960  23.9380318
  61.2519014  35.0986311  23.8658645  62.5471452  34.3303458  24.0206580
  54.5588252  21.1075099  27.7618560  55.0822654  21.3537396  28.5244870
  54.3400586  21.9395134  27.3421698  59.2035112  35.0133676  20.1384671
  59.0560075  34.0850384  20.3192241  60.0288606  35.0353767  19.6541746
  62.8069234  35.8362235  21.2249543  63.7315781  35.6305096  21.0873995
  62.6384537  35.5878636  22.1338885  55.7640797  22.0488794  25.4468231
  55.4237618  21.2496607  25.8488911  55.0579804  22.3490505  24.8745064
  56.4157269  19.1338107  23.8995554  57.2383338  18.6598585  23.7774444
  56.6595333  19.9128590  24.3994240  53.9395848  25.8257227  21.7087533
  53.7940429  26.1397530  22.6011814  53.4621052  26.4442128  21.1558431
  57.6518361  23.2497115  23.8021550  57.3936139  24.1714186  23.8005880
  57.1203402  22.8527550  24.4922014  62.5964550  36.3547902  16.5811635
  62.7701428  35.7894325  15.8285487  63.0893441  37.1548797  16.3991125
  48.4141510  28.3662572  24.6475194  47.8694978  29.1422380  24.7795468
  49.2920860  28.7133376  24.4894315  68.4503941  29.1184325  18.2001935
  68.8935087  28.3691651  17.8021058  67.5730452  29.1094462  17.8175667
  63.5839723  35.6714667  13.6808533  64.2790627  36.2921360  13.8995848
  63.9262873  34.8210018  13.9560911  49.2007532  27.4932468  27.5405351
  48.4589268  27.6415103  28.1269981  48.8800276  27.7540733  26.6772100
  65.4831146  33.1214372  15.2095864  66.0082470  33.4601645  14.4845184
  65.3953498  32.1861388  15.0258999  57.1451195  37.0348446  27.3385741
  57.4538321  36.7897593  28.2108440  57.9426677  37.2395085  26.8504611
  57.1671807  39.1886356  19.5691117  56.7276797  38.6962734  20.2623974
  57.9179924  38.6459323  19.3283192  49.6464146  35.3797897  19.5715745
  50.4722165  35.0801668  19.1914389  49.2958198  34.6105519  20.0205534
  54.6145679  34.7324365  21.6413419  53.9925688  34.0695070  21.3415647
  55.2850546  34.7585497  20.9587067  47.8472751  33.2984223  20.5304679
  47.0104659  32.8706397  20.3488680  47.8196396  33.4916666  21.4675470
  54.6870206  23.2106153  31.2345925  54.7358362  24.0868276  30.8523694
  55.2292720  22.6683546  30.6617568  65.1725052  33.7547276  30.5147062
  64.3820596  33.7371415  29.9751561  64.9358406  34.2935570  31.2696098
  65.2922927  30.6039742  27.8279790  65.3420932  30.4389750  28.7695313
  65.1836850  29.7367001  27.4377671  62.5826689  26.5870670  29.1439097
  63.4836552  26.4477135  28.8523095  62.6574664  26.7525125  30.0837275
  56.9169495  23.9637525  27.9892283  56.0472804  24.2571091  27.7174872
  57.1528975  24.5477970  28.7099547  66.7941124  33.0236684  28.0721812
  66.5025932  33.3866665  28.9085273  66.1813255  32.3103692  27.8935144
  67.9936806  30.5889564  20.5924382  68.8283697  31.0279368  20.7561943
  68.1295935  30.1128217  19.7732628  65.0428312  28.1469299  26.5401870
  65.5182434  28.3396945  25.7320721  64.1193877  28.2028484  26.2945254
  59.6208529  20.1817142  25.5057704  60.1390472  20.9178169  25.1804192
  59.2663661  20.4881135  26.3404463  63.7429981  25.0235059  24.7730176
  64.6947404  25.1233156  24.7942400  63.5733431  24.2313327  25.2828260
  61.7644360  22.1090642  24.9589577  61.1694293  22.3895655  24.2636065
  61.4794057  22.5984543  25.7306318  60.8951851  36.0613569  13.7192209
  61.8282524  35.9959130  13.9225085  60.8075064  36.8969836  13.2606742
  66.2218059  28.2441178  23.8872475  66.1894379  27.3057179  24.0732159
  66.8318682  28.3225215  23.1538300  66.3712547  25.0352222  23.9330758
  65.8551596  24.2510678  23.7460687  67.2552496  24.7070938  24.0977278
  72.0394609  29.3057185  23.0278512  72.7697997  29.0442473  23.5886215
  71.4301554  28.5685907  23.0680580  70.1209906  27.4465048  23.6252963
  69.3943069  27.3121013  23.0169455  69.7057193  27.7541876  24.4309681
  57.9440082  31.1654977  31.3900336  58.8643092  31.3433576  31.5840383
  57.9089665  30.2211023  31.2380036  50.9402155  29.0756012  24.0323117
  51.1588165  30.0073120  24.0511151  51.3527929  28.7163987  24.8177921
  55.8130020  24.6489218  33.4225866  55.7126747  25.5983575  33.3537957
  55.5951562  24.3207457  32.5501936  47.0310507  29.9796483  22.2846732
  46.3373979  29.5650435  21.7716687  47.7783498  30.0217019  21.6880151
  55.6761290  28.0786357  32.2390928  55.1928372  28.8786717  32.4454817
  55.7622229  28.0894302  31.2858372  51.6034628  31.9690891  24.2759362
  52.5577881  31.9374834  24.2089293  51.4047151  31.5081515  25.0909588
  52.1934010  30.5392007  26.8430159  53.0126899  31.0336086  26.8664997
  52.4670817  29.6223976  26.8147727  65.3015142  22.9549281  19.9212454
  66.0775532  23.4445733  20.1937071  64.5763276  23.3807335  20.3784324
  67.7387701  23.6676900  20.9786395  68.3332192  23.4272636  20.2679703
  67.8114284  22.9484031  21.6059931  49.9584856  37.5110511  21.2929560
  49.8239324  36.7510912  20.7267558  49.5416919  38.2351411  20.8258349
  61.9241630  28.4457296  16.4208405  61.8676831  28.9025847  15.5816038
  62.4769972  27.6847980  16.2431248  65.7346436  24.2347028  17.2458525
  65.4783370  23.8343663  18.0766732  65.1099304  24.9490822  17.1208664
  70.0458773  26.9743101  19.7529816  69.4858331  27.0436290  20.5261378
  69.4402277  26.7984085  19.0329312  53.1153982  38.4079828  21.5048002
  52.9986366  39.3525260  21.4026693  52.2946429  38.1053390  21.8933801
  63.0030517  33.1329964  12.3504595  63.8376121  32.7011162  12.1682070
  62.8414860  32.9611977  13.2781489  47.4468924  24.8730141  27.5422356
  48.0927788  24.3629095  28.0309582  47.2386075  25.6098823  28.1165782
  59.9722316  31.9410989  33.0414497  60.8413476  32.1151641  32.6801132
  59.4929068  32.7605406  32.9190226  54.1408496  39.0608090  24.7203931
  55.0435743  39.0931700  25.0370426  53.9145866  38.1308541  24.7350267
  55.8962098  37.8139076  21.3814009  54.9457729  37.8140938  21.2678382
  56.1994585  37.0671811  20.8650044  51.7866415  22.0197758  31.6397371
  52.6497877  21.6634563  31.8500695  51.2131826  21.6811653  32.3272775
  71.6314792  43.6499615  22.4459772  72.2693202  43.5306362  21.7423112
  71.5135635  44.5980459  22.5047724  68.4404498  43.6027043  22.3821296
  68.1023010  43.4868108  21.4941831  69.3094266  43.2018208  22.3622303
  64.2991314  45.4562519  18.3718187  63.7356179  45.3652456  17.6034475
  64.1843709  44.6362424  18.8520680  68.9224281  44.7561895  28.3407502
  68.9112922  44.3614693  27.4688006  69.0844921  44.0227967  28.9341273
  61.8455746  46.9513711  21.2102408  62.6377038  46.6104536  20.7948707
  62.0852396  47.0608686  22.1304561  69.8790873  49.1233487  13.6832652
  69.2278852  49.7087567  13.2966666  70.6735235  49.6539682  13.7427690
  63.8046500  46.2122624  14.0819787  64.5777376  45.6651611  13.9432662
  64.1571899  47.0766873  14.2934248  65.6431542  47.5399006  27.2886686
  65.3521408  48.4444637  27.1733352  66.2788527  47.5815534  28.0030755
  66.5687749  44.9175855  23.8788046  67.1651321  44.6931877  23.1645009
  66.6262721  44.1760600  24.4813493  66.1412778  42.3715290  11.7138237
  66.3938298  41.8496812  10.9521700  65.2037337  42.2081436  11.8164920
  71.1856060  41.3751069  19.5212980  71.9719150  40.9570492  19.1703397
  71.4494765  42.2797161  19.6894628  71.3566138  46.8123919  14.2201637
  70.7211971  46.8858545  14.9322541  71.0263544  47.4017518  13.5420716
  76.5864488  41.3126302  20.4245958  77.3189659  40.7425519  20.6583788
  75.8303843  40.9247902  20.8652464  65.8609066  44.2743396  13.9162612
  65.7445324  43.5988300  14.5843696  65.9711326  43.7875770  13.0994765
  68.2040607  43.7353543  17.6209301  67.8398814  43.2084164  18.3322222
  69.0607723  43.3452012  17.4475786  74.1089908  35.0247876  24.8840567
  73.7773233  35.8943287  24.6601782  73.5135521  34.7084160  25.5634597
  67.8446094  38.7643443  12.6170649  68.0120497  39.6323679  12.9841120
  67.6543263  38.9270725  11.6931939  70.6021427  47.2260422  24.2836480
  70.3022151  48.1285461  24.1752287  70.2572487  46.9592605  25.1357633
  64.0533909  43.6774219  20.3173184  63.1284405  43.5450433  20.5250876
  64.3018322  44.4568438  20.8143126  74.0018571  39.7442962  21.9633917
  73.0935449  39.6758371  21.6692678  73.9506167  40.2214907  22.7915742
  67.8235315  41.2201101  13.6017316  67.7034940  41.6658151  14.4402796
  67.1287903  41.5686418  13.0430854  61.4142720  43.3207492  21.1516973
  61.5435101  43.5741971  22.0656385  60.7340171  43.9135200  20.8321628
  65.5842207  53.9904742  17.2507447  65.5066237  54.9412567  17.3295928
  64.9803851  53.6450615  17.9082374  68.0759437  41.1632608  29.9068814
  67.2992771  41.7226528  29.8971679  68.7150000  41.6489391  30.4283684
  75.8680218  37.9459401  23.7411791  75.2254598  38.2391934  23.0951585
  75.3635146  37.8312321  24.5464988  73.5220381  41.6922574  14.4297650
  74.4338237  41.9249960  14.2545348  73.0130028  42.2759618  13.8672729
  66.3305809  43.9718061  29.4686781  67.0720494  44.5103105  29.1921605
  65.6242795  44.5984350  29.6258333  71.8061149  46.1147202  28.0658943
  72.2144505  45.6729612  27.3213575  71.0838410  45.5399829  28.3193136
  68.1592219  41.0519808  25.4392500  69.0053414  41.4759222  25.5827149
  68.0990857  40.3953433  26.1331063  72.1289964  46.6748392  21.8211232
  71.4998826  46.8394106  21.1187299  71.7415626  47.0890002  22.5922196
  76.0079195  47.6102830  19.1755595  75.3230234  47.9901731  18.6252629
  76.0923045  48.2198157  19.9087543  71.3091664  38.7124177  27.0973673
  71.0652596  39.4666237  26.5607949  71.5851595  39.0909524  27.9320920
  73.2630127  45.2562789  25.7750939  73.4747022  45.8994549  25.0985320
  73.2159875  44.4225106  25.3072869  70.8656356  37.8680610  22.6787511
  70.0040835  38.1661863  22.9704249  70.8918791  38.0851009  21.7468544
  67.6817925  46.4122800  19.0861317  68.1456271  46.6910503  18.2965939
  67.4174724  45.5106245  18.9034407  64.5742007  45.9594282  22.0241080
  65.1443364  46.3881550  21.3858564  65.1650118  45.6776866  22.7225266
  66.6186812  42.5345953  15.8950882  67.3210855  42.9866996  16.3624808
  66.2867440  41.8929771  16.5230775  65.0667173  41.1257709  30.2702091
  64.4365834  41.8073990  30.5037488  64.9603261  41.0140791  29.3255229
  60.3612145  40.7929505  21.1968015  59.5711199  41.0487034  20.7208126
  60.8523393  41.6077843  21.3020056  74.3775955  48.1334744  23.9473296
  75.1993399  47.7314932  23.6655978  74.3738358  48.0302979  24.8989412
  62.3126891  41.1574085  18.1551492  61.5158054  41.2692779  18.6734988
  62.0852483  41.4960737  17.2892383  68.1432558  47.6818788  26.1034007
  68.2076991  48.1439195  26.9392179  67.4343482  47.0516153  26.2316317
  58.6449848  41.0459996  23.6283006  58.8957887  41.9307006  23.8940582
  59.1809397  40.8664597  22.8558098  82.4681948  44.4773493  20.2958268
  81.7145656  43.9080891  20.1402272  82.6029489  44.4436157  21.2428902
  67.8580576  49.3486895  15.9712987  67.7226251  50.1938431  16.3997835
  68.3990389  49.5506173  15.2078921  64.3447916  35.4278475  32.6327342
  63.9514861  34.8744674  33.3074987  65.1614056  35.7389054  33.0233860
  61.3109974  46.8662333  16.5440912  61.8234494  47.6605584  16.6946477
  61.9632686  46.1688624  16.4774514  63.1204858  49.9828090  18.6263665
  63.2971487  50.9046054  18.4384649  63.9161692  49.6686509  19.0558045
  67.2615877  36.8436354  30.2247599  68.0025590  37.4443507  30.1452061
  67.4933800  36.1013992  29.6665641  62.4057215  42.0292721  28.5025829
  62.2910730  41.1277979  28.8032927  61.5501733  42.2756418  28.1510645
  69.4849053  49.9710462  30.1013329  69.0412907  49.1846840  29.7834234
  70.1466266  50.1589612  29.4357220  64.2436174  51.5006263  24.6274008
  64.7943599  51.3723327  23.8551002  63.4047650  51.8001152  24.2768900
  71.5830291  50.2513262  28.1294730  71.5648766  51.0722143  27.6375000
  72.5050211  50.1267337  28.3544872  68.0403345  47.7657391  28.9718239
  68.5731682  47.0045679  28.7417547  67.5117426  47.4731043  29.7142393
  71.2073040  32.8717457  24.5011881  70.8637309  33.7619099  24.4250991
  71.5752002  32.6819115  23.6381466  59.2758890  45.1950988  17.3200483
  60.1134112  45.6047996  17.1034190  59.4537158  44.2550430  17.2900677
  71.1723322  42.8626068  13.0084316  70.6569946  43.6330673  13.2472703
  70.9000631  42.1891204  13.6317377  68.7570433  37.7075769  18.0669554
  67.9012030  37.3182619  17.8875193  69.1697385  37.7867730  17.2069340
  70.2869580  35.2422112  22.4661114  69.7834376  35.2052247  21.6528919
  70.5800187  36.1514855  22.5257770  66.5312466  35.3260842  21.4727295
  67.3965463  35.1303651  21.1133185  66.5989975  35.0971194  22.3996652
  76.1457597  45.6158423  14.9437489  75.3687039  45.2769582  14.4992651
  76.8249078  45.6211046  14.2692454  70.9609626  40.7353160  14.8344097
  70.6559761  41.0499309  15.6854240  71.9140068  40.8134580  14.8771430
  69.4056057  46.8943384  16.4837051  68.8777419  46.1596143  16.1710288
  68.9043560  47.6718060  16.2377019  74.3848903  45.0892404  21.6004097
  73.7272578  45.7791666  21.6884226  75.1889303  45.4788836  21.9438083
  64.1374785  37.5563050  18.8443662  64.7118537  37.3338231  18.1116855
  64.7245767  37.6251744  19.5972264  73.1954362  43.4436777  19.6508039
  73.7086244  44.0766769  20.1529749  73.8455586  42.8437972  19.2851399
  64.4644372  39.5867511  12.8639548  63.6281684  39.9242197  13.1848822
  64.3249142  39.4516491  11.9266685  66.4397453  34.4304299  17.5718732
  65.7861865  34.1153316  16.9475347  66.3977927  33.8080039  18.2978555
  67.5508658  44.7123594   9.4872024  66.6435719  44.4812847   9.6863173
  68.0479690  43.9161213   9.6746005  70.4576736  53.4221101  12.4068710
  69.7838435  53.7252798  13.0153668  70.8442558  54.2250181  12.0574167
  69.6735193  40.9186232  21.8966379  68.7557754  41.1401179  21.7388067
  70.0895337  40.9932543  21.0378087  70.4570241  42.3177648  17.0269060
  71.2042060  42.8299045  16.7176182  70.7261830  41.9961701  17.8873453
  68.7296891  44.8136189  14.0096014  67.8208110  44.5295222  14.1068484
  68.7591975  45.2335267  13.1499321  73.9616158  48.4242778  17.7787181
  73.5078486  47.5833688  17.8352372  73.3310125  49.0604177  18.1161962
  72.9049078  39.3534764  19.0087849  72.1671835  38.8412150  19.3398091
  73.1575852  38.9135146  18.1971126  72.4049098  50.2619275  18.7137000
  72.6972072  50.8224332  17.9949365  72.9147718  50.5547836  19.4690159
  73.0060705  32.1311016  19.6029618  73.3119582  31.2708380  19.3155533
  73.7313310  32.7228636  19.4028612  59.2985061  42.5341703  17.9911216
  59.1009461  41.9411064  17.2662283  58.7431725  42.2293913  18.7087155
  67.2781785  42.4264809  20.1105809  67.3330395  41.4738646  20.0348286
  66.4672987  42.5824248  20.5947108  68.4272979  46.3544932  11.3484092
  67.9892409  45.6380791  10.8889730  69.1683420  46.5821047  10.7869184
  65.2174145  41.0441869  17.8696188  64.4042011  41.3436040  18.2761380
  65.7133139  40.6497558  18.5870670  67.3682723  51.0399626  19.8030453
  67.3258902  51.2660472  18.8738985  68.2845422  50.8063001  19.9516254
  70.8148357  41.5083694  26.7011082  71.1697744  41.7355167  27.5605548
  71.4620488  41.8402070  26.0788337  76.5446094  44.6302129  17.4060411
  76.4063992  44.8203725  16.4781600  76.1882312  45.3921512  17.8628462
  64.7088220  38.6160225  23.4857423  65.3487599  38.4748984  22.7880386
  63.8765750  38.3294738  23.1096025  76.5715473  46.6978656  22.4171683
  77.0051980  46.6053946  23.2654737  77.2847054  46.6736157  21.7791699
  65.4848524  47.9162655  19.5992416  66.2789122  47.4212975  19.3974990
  64.7740216  47.3880518  19.2360121  70.3043368  50.2980751  23.9504783
  70.3580390  50.8671687  24.7182499  69.4358150  50.4682636  23.5858820
  61.7931287  42.0605737  15.6752168  60.8628875  41.9990192  15.8922130
  61.8888759  41.5381690  14.8788809  61.7116836  38.5860550  18.2630410
  61.9723653  39.5005883  18.1539570  62.5334009  38.1184992  18.4127023
  63.1841762  39.9998307  25.4329234  63.8564815  39.7915669  24.7841883
  62.3571548  39.8020393  24.9934467  77.4331023  46.7402357  24.9504568
  77.6266913  47.6448168  25.1963843  77.3331641  46.2809776  25.7843153
  69.0867334  36.6260248  27.4494895  68.4395249  37.3250197  27.3559372
  69.8568349  37.0596392  27.8171143  72.4946131  46.8909100  30.5245449
  72.3431638  46.6619652  29.6075532  72.4850811  47.8479701  30.5376794
  69.2631468  44.4641013  25.5091715  70.1923528  44.6152172  25.3360682
  68.8422498  44.5525033  24.6540362  68.0619800  48.4891677  23.2790253
  67.9230885  48.1210461  24.1516191  67.2734396  49.0039316  23.1074210
  68.6567952  53.5900774  14.6215789  68.8319707  53.1188817  15.4361412
  67.9700740  54.2166540  14.8497050  69.6125015  47.8673280  20.6679090
  69.2774847  47.8274050  21.5636740  69.1128961  47.2017996  20.1949501
  63.5869259  43.2740910  26.1931672  63.4489057  42.5421149  26.7943211
  64.4974182  43.1849810  25.9115859  72.5484206  45.2129314  10.9416150
  71.9313377  44.4876142  10.8449203  72.0800695  45.9738674  10.5983224
  66.2151559  42.9860869  25.6815351  66.9251178  42.3454061  25.6401970
  66.1720868  43.2373764  26.6041532  74.2038338  49.9228222  28.6021930
  74.1450884  49.2387443  27.9352513  74.6057857  50.6647212  28.1502556
  64.9280493  39.9726087  27.5010991  64.3917850  39.5216825  28.1532587
  64.3397202  40.1071996  26.7581455  63.2229037  56.7390136  21.3955649
  63.4625635  57.3708660  22.0734668  62.3798233  56.3878176  21.6821009
  64.3382752  39.4314738  10.0637454  63.4612219  39.3103539   9.6999701
  64.8140505  38.6400817   9.8116343  74.2055745  47.8867806  26.8335910
  73.3182524  47.5493728  26.9562309  74.7754296  47.1550838  27.0704675
  55.8584893  44.2191898  20.1578961  56.5455932  43.9053628  19.5699977
  55.7033021  45.1233263  19.8846213  60.6619615  39.1082095  24.5863985
  60.5777803  38.5007764  23.8514395  59.8402321  39.5991113  24.5873482
  67.7356899  52.5469259  23.7997153  67.6627070  53.3524230  24.3116458
  67.2934292  52.7461225  22.9745175  67.5246678  51.7841029  17.3099975
  66.7414200  52.3262709  17.4038199  68.2239424  52.3015008  17.7094216
  70.8343329  37.5935658  19.9534180  71.3312028  36.8405621  19.6335250
  70.0630310  37.6299975  19.3877390  78.6873086  43.2976024  21.5952472
  78.6762962  44.1800739  21.2246405  77.8190465  42.9447575  21.4007009
  70.1955582  52.4456093  25.9555312  70.9083555  53.0803558  25.8831213
  69.7045611  52.5419959  25.1395314  71.9173109  46.3507345  17.5272604
  70.9829388  46.4708808  17.3577308  72.0949778  45.4479812  17.2632613
  67.4178297  39.7353041  19.6805865  67.0476085  39.1824082  20.3686770
  67.9137390  39.1311175  19.1280865  75.3045661  42.1924665  18.0622638
  75.7706113  43.0252656  17.9882940  75.7553161  41.7269646  18.7667896
  65.2467496  50.1950536  26.7760883  65.9476955  50.8287019  26.9290277
  64.7762611  50.5365268  26.0156522  73.3721892  48.5368486  15.0608790
  73.6481736  48.4225081  15.9702664  72.5026390  48.1385971  15.0220963
  73.2762323  34.5605252  22.1013539  72.3625403  34.7909479  22.2695746
  73.7055425  34.6443696  22.9527571  73.0468782  42.7495144  24.6013433
  72.3940232  42.9971051  23.9465886  73.4249162  41.9359282  24.2675910
  70.0075956  52.7854837  18.7041603  70.1898350  51.9676493  19.1669356
  70.8308942  53.0022529  18.2666493  70.3418121  51.7123022  15.9656652
  70.8705888  51.2015477  15.3526814  70.6046341  51.3965552  16.8302185
  69.0956355  43.4914955  31.0879470  68.4196992  43.3909084  31.7581845
  69.9183989  43.3354168  31.5515467  60.8435214  49.7286891  23.7091985
  61.4288651  48.9830579  23.8419890  60.6460052  50.0390848  24.5928649
  63.6973869  52.7638139  18.7254428  63.0284244  53.2484266  18.2418468
  63.5586739  53.0107359  19.6397806  55.4352869  42.2992491  22.4296429
  55.4736968  41.7656082  23.2233547  54.9293161  41.7727697  21.8107406
  67.8379138  54.7981882  25.3237086  68.3897446  54.9613504  26.0886171
  68.1785331  55.3886320  24.6517111  62.8143631  37.1457032  25.9258971
  62.8784957  38.0071863  25.5136369  62.7510751  36.5331034  25.1931329
  62.2895903  39.2180165  29.5732005  62.9167942  38.8357242  30.1869529
  61.4323822  38.9994366  29.9387698  72.6890012  49.6243140  31.1785741
  73.2329916  50.2373098  30.6840695  72.1076857  50.1822718  31.6952754
  59.0661446  41.0256594  15.5050360  59.3614887  40.1167272  15.4517414
  58.1649482  41.0044333  15.1831362  70.9747525  52.7463858  22.3100768
  70.8498664  51.9453598  21.8011714  71.6326616  53.2410051  21.8214738
  62.5955693  39.1012590  21.4877909  61.8742279  39.7148558  21.3485382
  63.3848949  39.6370355  21.4094555  73.0382433  50.5472878  23.9380318
  72.0912769  50.4278229  23.8658645  73.3865206  49.6595376  24.0206580
  65.3982007  36.4367017  27.7618560  65.9216409  36.6829313  28.5244870
  65.1794340  37.2687052  27.3421698  60.7949288  38.7070691  15.6289685
  60.4661994  37.8268070  15.4464791  61.1488658  38.6518360  16.5166074
  70.0428867  50.3425594  20.1384671  69.8953829  49.4142301  20.3192241
  70.8682360  50.3645685  19.6541746  63.9091111  38.9943661  15.9965163
  64.2487183  39.5229582  15.2743771  64.3563231  39.3324067  16.7723729
  73.6462989  51.1654153  21.2249543  74.5709536  50.9597014  21.0873995
  73.4778292  50.9170554  22.1338885  66.6034552  37.3780712  25.4468231
  66.2631372  36.5788525  25.8488911  65.8973558  37.6782423  24.8745064
  67.2551024  34.4630024  23.8995554  68.0777093  33.9890502  23.7774444
  67.4989087  35.2420508  24.3994240  65.8959258  37.4918283  14.1958456
  66.6167621  37.8699535  13.6922172  65.2724562  38.2107159  14.2993434
  70.0390381  38.1963432  15.1316788  70.2553995  39.0788070  14.8305616
  69.5584448  37.8049645  14.4022430  64.7789602  41.1549145  21.7087533
  64.6334183  41.4689448  22.6011814  64.3014806  41.7734045  21.1558431
  66.6385985  38.1451693  21.7568422  66.6247554  37.2492786  21.4200720
  67.3558413  38.1522357  22.3906708  68.4912116  38.5789033  23.8021550
  68.2329894  39.5006104  23.8005880  67.9597156  38.1819468  24.4922014
  73.4358305  51.6839820  16.5811635  73.6095182  51.1186243  15.8285487
  73.9287196  52.4840715  16.3991125  59.2535265  43.6954489  24.6475194
  58.7088733  44.4714297  24.7795468  60.1314614  44.0425294  24.4894315
  66.0422881  37.0266073  17.0255992  66.1638792  36.0982719  17.2246880
  65.7524924  37.0404759  16.1134308  68.9114072  34.7120984  20.1622712
  68.9335768  34.7760317  19.2074692  69.3282131  33.8725492  20.3563218
  79.2897696  44.4476243  18.2001935  79.7328842  43.6983568  17.8021058
  78.4124206  44.4386379  17.8175667  74.4233477  51.0006585  13.6808533
  75.1184382  51.6213277  13.8995848  74.7656627  50.1501936  13.9560911
  60.0401286  42.8224386  27.5405351  59.2983022  42.9707021  28.1269981
  59.7194031  43.0832651  26.6772100  76.3224900  48.4506290  15.2095864
  76.8476224  48.7893563  14.4845184  76.2347253  47.5153305  15.0258999
  67.9844949  52.3640364  27.3385741  68.2932075  52.1189511  28.2108440
  68.7820431  52.5687002  26.8504611  68.0065561  54.5178273  19.5691117
  67.5670551  54.0254652  20.2623974  68.7573678  53.9751241  19.3283192
  60.4857900  50.7089814  19.5715745  61.3115920  50.4093586  19.1914389
  60.1351952  49.9397437  20.0205534  65.4539433  50.0616282  21.6413419
  64.8319443  49.3986987  21.3415647  66.1244300  50.0877414  20.9587067
  58.6866505  48.6276141  20.5304679  57.8498413  48.1998315  20.3488680
  58.6590151  48.8208584  21.4675470  65.5263961  38.5398070  31.2345925
  65.5752116  39.4160193  30.8523694  66.0686475  37.9975464  30.6617568
  76.0118806  49.0839194  30.5147062  75.2214350  49.0663333  29.9751561
  75.7752161  49.6227487  31.2696098  76.1316681  45.9331660  27.8279790
  76.1814686  45.7681668  28.7695313  76.0230605  45.0658919  27.4377671
  65.0152940  48.6120206  15.1171879  65.1641061  49.2955670  14.4638552
  65.8219384  48.5925296  15.6321335  73.4220444  41.9162588  29.1439097
  74.3230307  41.7769053  28.8523095  73.4968418  42.0817043  30.0837275
  67.7563249  39.2929443  27.9892283  66.8866559  39.5863009  27.7174872
  67.9922730  39.8769888  28.7099547  77.6334878  48.3528602  28.0721812
  77.3419687  48.7158582  28.9085273  77.0207010  47.6395610  27.8935144
  78.8330561  45.9181481  20.5924382  79.6677452  46.3571285  20.7561943
  78.9689689  45.4420135  19.7732628  75.8822067  43.4761216  26.5401870
  76.3576188  43.6688863  25.7320721  74.9587632  43.5320402  26.2945254
  62.7705573  44.6385383  16.1232948  62.5251615  43.7347713  16.3213158
  62.9401488  44.6402534  15.1812426  70.4602283  35.5109060  25.5057704
  70.9784227  36.2470087  25.1804192  70.1057416  35.8173053  26.3404463
  62.0401221  40.3713741  13.6219110  61.3470466  40.4458096  12.9659146
  61.7952973  39.6074085  14.1440627  70.7114877  31.9309342  21.0258600
  70.9916631  31.2632531  21.6519027  71.4965484  32.1238438  20.5133264
  68.5148346  51.1068336  12.5883627  67.9422313  51.7258523  12.1354099
  69.0881139  51.6567698  13.1223549  74.5823736  40.3526976  24.7730176
  75.5341158  40.4525074  24.7942400  74.4127186  39.5605245  25.2828260
  72.6038115  37.4382560  24.9589577  72.0088047  37.7187572  24.2636065
  72.3187812  37.9276460  25.7306318  71.7345605  51.3905486  13.7192209
  72.6676279  51.3251048  13.9225085  71.6468818  52.2261753  13.2606742
  74.3633622  50.7071357  10.6796157  74.2847254  50.3731220  11.5731915
  75.1843289  51.1993125  10.6787629  77.0611813  43.5733096  23.8872475
  77.0288133  42.6349097  24.0732159  77.6712437  43.6517133  23.1538300
  68.8995144  42.4429149   9.9299679  69.8454249  42.3135357   9.9988097
  68.5209389  41.7043811  10.4069107  77.2106302  40.3644139  23.9330758
  76.6945350  39.5802596  23.7460687  78.0946250  40.0362856  24.0977278
  74.8717029  34.1085155  19.8926571  74.6741850  33.8000243  20.7769903
  75.4816734  34.8346794  20.0224501  82.8788363  44.6349103  23.0278512
  83.6091752  44.3734391  23.5886215  82.2695309  43.8977825  23.0680580
  80.9603660  42.7756965  23.6252963  80.2336824  42.6412930  23.0169455
  80.5450947  43.0833794  24.4309681  68.7833837  46.4946895  31.3900336
  69.7036846  46.6725494  31.5840383  68.7483420  45.5502941  31.2380036
  67.0838061  40.3679125   9.8654564  66.1769517  40.0712238   9.9417278
  67.3614042  40.0708943   8.9988851  58.0016002  41.6885489  20.3153611
  57.6818786  40.8350797  20.0227985  57.4549430  41.9034067  21.0711578
  61.7795909  44.4047930  24.0323117  61.9981919  45.3365038  24.0511151
  62.1921683  44.0455904  24.8177921  68.7000127  34.9116015  16.0198806
  67.8900855  34.5663100  16.3954052  69.3884544  34.6023559  16.6086417
  70.6290675  33.9894062  17.6423102  71.1821714  34.4089515  18.3013126
  70.8660762  33.0629810  17.6846058  66.6523775  39.9781136  33.4225866
  66.5520501  40.9275493  33.3537957  66.4345317  39.6499374  32.5501936
  65.8536846  37.2266061  10.0066544  66.7156010  37.5520959  10.2662361
  66.0387190  36.4397557   9.4939609  57.8704262  45.3088400  22.2846732
  57.1767733  44.8942353  21.7716687  58.6177253  45.3508937  21.6880151
  74.0069482  36.0994587  17.1501767  73.4268151  36.7579391  16.7679819
  73.7405415  35.2771932  16.7389184  72.4573049  35.4999645  19.3523087
  72.9572827  35.6116179  18.5437406  73.1008657  35.1960698  19.9923895
  66.5155045  43.4078274  32.2390928  66.0322126  44.2078635  32.4454817
  66.6015984  43.4186219  31.2858372  59.7841004  45.2406654  20.1612747
  59.7611692  45.3394341  19.2094630  60.0941641  46.0871805  20.4829913
  62.4428382  47.2982809  24.2759362  63.3971636  47.2666751  24.2089293
  62.2440906  46.8373433  25.0909588  63.0327764  45.8683925  26.8430159
  63.8520653  46.3628004  26.8664997  63.3064572  44.9515893  26.8147727
  72.7894360  38.2594677  16.2058115  71.9020215  38.5444328  15.9878310
  73.2048350  38.0988441  15.3585392  76.1408897  38.2841198  19.9212454
  76.9169287  38.7737651  20.1937071  75.4157031  38.7099253  20.3784324
  78.5781455  38.9968818  20.9786395  79.1725946  38.7564554  20.2679703
  78.6508039  38.2775948  21.6059931  60.7978611  52.8402429  21.2929560
  60.6633079  52.0802829  20.7267558  60.3810673  53.5643328  20.8258349
  71.9337574  48.0239352  10.3006135  72.6373424  48.2289355  10.9163791
  71.2100223  48.5916114  10.5655218  72.7635384  43.7749213  16.4208405
  72.7070586  44.2317765  15.5816038  73.3163727  43.0139898  16.2431248
  76.5740190  39.5638945  17.2458525  76.3177124  39.1635581  18.0766732
  75.9493058  40.2782739  17.1208664  80.8852528  42.3035019  19.7529816
  80.3252086  42.3728208  20.5261378  80.2796031  42.1276003  19.0329312
  63.9547737  53.7371746  21.5048002  63.8380121  54.6817178  21.4026693
  63.1340183  53.4345307  21.8933801  73.8424271  48.4621881  12.3504595
  74.6769875  48.0303080  12.1682070  73.6808614  48.2903895  13.2781489
  73.4970164  44.9653995  13.7160934  73.4418967  44.7998266  12.7749378
  72.8716219  45.6730028  13.8723124  58.2862678  40.2022059  27.5422356
  58.9321542  39.6921013  28.0309582  58.0779830  40.9390741  28.1165782
  70.8116071  47.2702907  33.0414497  71.6807230  47.4443559  32.6801132
  70.3322822  48.0897323  32.9190226  66.8066289  34.4662104  13.2946253
  66.7944959  35.4103944  13.4514524  67.6989711  34.2832249  13.0005714
  64.9802251  54.3900008  24.7203931  65.8829498  54.4223618  25.0370426
  64.7539621  53.4600458  24.7350267  66.7355853  53.1430994  21.3814009
  65.7851484  53.1432856  21.2678382  67.0388339  52.3963729  20.8650044
  70.6218408  31.0604880  17.5492189  69.8550804  30.5063367  17.6948872
  71.0329113  31.1326749  18.4106341  62.6260169  37.3489676  31.6397371
  63.4891631  36.9926481  31.8500695  62.0525580  37.0103571  32.3272775
  82.4708546  58.9791532  22.4459772  83.1086956  58.8598280  21.7423112
  82.3529389  59.9272376  22.5047724  79.2798253  58.9318961  22.3821296
  78.9416764  58.8160025  21.4941831  80.1488021  58.5310126  22.3622303
  75.1385068  60.7854437  18.3718187  74.5749934  60.6944374  17.6034475
  75.0237463  59.9654341  18.8520680  79.7618036  60.0853812  28.3407502
  79.7506676  59.6906611  27.4688006  79.9238675  59.3519885  28.9341273
  72.6849500  62.2805629  21.2102408  73.4770792  61.9396453  20.7948707
  72.9246150  62.3900604  22.1304561  80.7184627  64.4525405  13.6832652
  80.0672607  65.0379485  13.2966666  81.5128990  64.9831600  13.7427690
  74.6440254  61.5414542  14.0819787  75.4171130  60.9943529  13.9432662
  74.9965653  62.4058791  14.2934248  76.4825297  62.8690924  27.2886686
  76.1915163  63.7736555  27.1733352  77.1182281  62.9107452  28.0030755
  77.4081504  60.2467773  23.8788046  78.0045076  60.0223795  23.1645009
  77.4656475  59.5052518  24.4813493  76.9806532  57.7007208  11.7138237
  77.2332053  57.1788729  10.9521700  76.0431091  57.5373353  11.8164920
  82.0249815  56.7042986  19.5212980  82.8112904  56.2862409  19.1703397
  82.2888519  57.6089078  19.6894628  82.1959892  62.1415837  14.2201637
  81.5605725  62.2150463  14.9322541  81.8657299  62.7309435  13.5420716
  87.4258242  56.6418220  20.4245958  88.1583414  56.0717436  20.6583788
  86.6697598  56.2539820  20.8652464  76.7002821  59.6035314  13.9162612
  76.5839079  58.9280217  14.5843696  76.8105081  59.1167688  13.0994765
  79.0434362  59.0645461  17.6209301  78.6792569  58.5376082  18.3322222
  79.9001478  58.6743930  17.4475786  84.9483662  50.3539794  24.8840567
  84.6166987  51.2235205  24.6601782  84.3529276  50.0376078  25.5634597
  78.6839849  54.0935361  12.6170649  78.8514251  54.9615597  12.9841120
  78.4937018  54.2562642  11.6931939  81.4415182  62.5552340  24.2836480
  81.1415905  63.4577378  24.1752287  81.0966241  62.2884523  25.1357633
  74.8927663  59.0066136  20.3173184  73.9678160  58.8742351  20.5250876
  75.1412077  59.7860356  20.8143126  84.8412326  55.0734880  21.9633917
  83.9329203  55.0050288  21.6692678  84.7899921  55.5506825  22.7915742
  78.6629070  56.5493018  13.6017316  78.5428695  56.9950069  14.4402796
  77.9681658  56.8978336  13.0430854  72.2536474  58.6499410  21.1516973
  72.3828856  58.9033889  22.0656385  71.5733926  59.2427118  20.8321628
  76.4235962  69.3196660  17.2507447  76.3459991  70.2704485  17.3295928
  75.8197605  68.9742532  17.9082374  78.9153191  56.4924525  29.9068814
  78.1386526  57.0518446  29.8971679  79.5543755  56.9781308  30.4283684
  86.7073972  53.2751318  23.7411791  86.0648352  53.5683851  23.0951585
  86.2028901  53.1604239  24.5464988  84.3614136  57.0214491  14.4297650
  85.2731992  57.2541878  14.2545348  83.8523783  57.6051536  13.8672729
  77.1699564  59.3009979  29.4686781  77.9114248  59.8395023  29.1921605
  76.4636549  59.9276267  29.6258333  82.6454903  61.4439119  28.0658943
  83.0538259  61.0021530  27.3213575  81.9232165  60.8691747  28.3193136
  78.9985973  56.3811726  25.4392500  79.8447169  56.8051140  25.5827149
  78.9384611  55.7245350  26.1331063  82.9683718  62.0040310  21.8211232
  82.3392581  62.1686024  21.1187299  82.5809380  62.4181919  22.5922196
  86.8472950  62.9394748  19.1755595  86.1623988  63.3193649  18.6252629
  86.9316799  63.5490074  19.9087543  82.1485419  54.0416094  27.0973673
  81.9046351  54.7958155  26.5607949  82.4245349  54.4201442  27.9320920
  84.1023882  60.5854707  25.7750939  84.3140777  61.2286467  25.0985320
  84.0553630  59.7517023  25.3072869  81.7050111  53.1972527  22.6787511
  80.8434590  53.4953781  22.9704249  81.7312545  53.4142926  21.7468544
  78.5211680  61.7414718  19.0861317  78.9850025  62.0202421  18.2965939
  78.2568478  60.8398162  18.9034407  75.4135761  61.2886199  22.0241080
  75.9837118  61.7173468  21.3858564  76.0043873  61.0068784  22.7225266
  77.4580566  57.8637870  15.8950882  78.1604609  58.3158914  16.3624808
  77.1261194  57.2221689  16.5230775  75.9060928  56.4549627  30.2702091
  75.2759588  57.1365908  30.5037488  75.7997015  56.3432709  29.3255229
  71.2005900  56.1221423  21.1968015  70.4104954  56.3778951  20.7208126
  71.6917147  56.9369761  21.3020056  85.2169710  63.4626662  23.9473296
  86.0387153  63.0606849  23.6655978  85.2132112  63.3594896  24.8989412
  73.1520645  56.4866002  18.1551492  72.3551809  56.5984696  18.6734988
  72.9246238  56.8252654  17.2892383  78.9826313  63.0110705  26.1034007
  79.0470745  63.4731113  26.9392179  78.2737237  62.3808070  26.2316317
  69.4843603  56.3751913  23.6283006  69.7351641  57.2598923  23.8940582
  70.0203151  56.1956515  22.8558098  93.3075703  59.8065411  20.2958268
  92.5539411  59.2372809  20.1402272  93.4423244  59.7728075  21.2428902
  78.6974331  64.6778813  15.9712987  78.5620005  65.5230349  16.3997835
  79.2384143  64.8798091  15.2078921  75.1841670  50.7570393  32.6327342
  74.7908616  50.2036591  33.3074987  76.0007811  51.0680971  33.0233860
  72.1503728  62.1954251  16.5440912  72.6628249  62.9897501  16.6946477
  72.8026441  61.4980541  16.4774514  73.9598613  65.3120007  18.6263665
  74.1365241  66.2337972  18.4384649  74.7555446  64.9978426  19.0558045
  78.1009631  52.1728272  30.2247599  78.8419345  52.7735425  30.1452061
  78.3327554  51.4305910  29.6665641  73.2450969  57.3584639  28.5025829
  73.1304484  56.4569896  28.8032927  72.3895487  57.6048336  28.1510645
  80.3242807  65.3002379  30.1013329  79.8806661  64.5138758  29.7834234
  80.9860021  65.4881530  29.4357220  75.0829928  66.8298181  24.6274008
  75.6337353  66.7015244  23.8551002  74.2441404  67.1293070  24.2768900
  82.4224045  65.5805179  28.1294730  82.4042520  66.4014060  27.6375000
  83.3443965  65.4559255  28.3544872  78.8797099  63.0949309  28.9718239
  79.4125436  62.3337597  28.7417547  78.3511180  62.8022961  29.7142393
  82.0466794  48.2009375  24.5011881  81.7031064  49.0911016  24.4250991
  82.4145757  48.0111032  23.6381466  70.1152645  60.5242905  17.3200483
  70.9527867  60.9339914  17.1034190  70.2930912  59.5842347  17.2900677
  82.0117077  58.1917986  13.0084316  81.4963700  58.9622591  13.2472703
  81.7394385  57.5183122  13.6317377  79.5964188  53.0367687  18.0669554
  78.7405784  52.6474537  17.8875193  80.0091140  53.1159647  17.2069340
  81.1263335  50.5714030  22.4661114  80.6228130  50.5344165  21.6528919
  81.4193941  51.4806773  22.5257770  77.3706220  50.6552760  21.4727295
  78.2359217  50.4595568  21.1133185  77.4383729  50.4263111  22.3996652
  86.9851351  60.9450341  14.9437489  86.2080794  60.6061500  14.4992651
  87.6642832  60.9502964  14.2692454  81.8003380  56.0645078  14.8344097
  81.4953516  56.3791227  15.6854240  82.7533822  56.1426498  14.8771430
  80.2449812  62.2235301  16.4837051  79.7171173  61.4888061  16.1710288
  79.7437315  63.0009978  16.2377019  85.2242658  60.4184322  21.6004097
  84.5666332  61.1083583  21.6884226  86.0283057  60.8080754  21.9438083
  74.9768540  52.8854968  18.8443662  75.5512291  52.6630149  18.1116855
  75.5639522  52.9543662  19.5972264  84.0348117  58.7728694  19.6508039
  84.5479998  59.4058686  20.1529749  84.6849341  58.1729890  19.2851399
  75.3038127  54.9159429  12.8639548  74.4675439  55.2534115  13.1848822
  75.1642896  54.7808408  11.9266685  77.2791207  49.7596216  17.5718732
  76.6255620  49.4445234  16.9475347  77.2371681  49.1371957  18.2978555
  78.3902412  60.0415512   9.4872024  77.4829474  59.8104765   9.6863173
  78.8873444  59.2453131   9.6746005  81.2970491  68.7513019  12.4068710
  80.6232190  69.0544716  13.0153668  81.6836313  69.5542099  12.0574167
  80.5128948  56.2478150  21.8966379  79.5951509  56.4693097  21.7388067
  80.9289091  56.3224461  21.0378087  81.2963995  57.6469566  17.0269060
  82.0435814  58.1590963  16.7176182  81.5655585  57.3253618  17.8873453
  79.5690646  60.1428106  14.0096014  78.6601865  59.8587139  14.1068484
  79.5985729  60.5627185  13.1499321  84.8009913  63.7534696  17.7787181
  84.3472240  62.9125606  17.8352372  84.1703880  64.3896094  18.1161962
  83.7442833  54.6826682  19.0087849  83.0065589  54.1704068  19.3398091
  83.9969606  54.2427064  18.1971126  83.2442852  65.5911193  18.7137000
  83.5365827  66.1516250  17.9949365  83.7541473  65.8839754  19.4690159
  83.8454460  47.4602934  19.6029618  84.1513337  46.6000297  19.3155533
  84.5707065  48.0520554  19.4028612  70.1378816  57.8633621  17.9911216
  69.9403216  57.2702981  17.2662283  69.5825480  57.5585831  18.7087155
  78.1175540  57.7556727  20.1105809  78.1724149  56.8030563  20.0348286
  77.3066742  57.9116166  20.5947108  79.2666733  61.6836850  11.3484092
  78.8286163  60.9672709  10.8889730  80.0077174  61.9112965  10.7869184
  76.0567900  56.3733787  17.8696188  75.2435765  56.6727957  18.2761380
  76.5526894  55.9789476  18.5870670  78.2076477  66.3691544  19.8030453
  78.1652656  66.5952390  18.8738985  79.1239176  66.1354918  19.9516254
  81.6542111  56.8375611  26.7011082  82.0091499  57.0647084  27.5605548
  82.3014242  57.1693988  26.0788337  87.3839848  59.9594047  17.4060411
  87.2457747  60.1495643  16.4781600  87.0276067  60.7213430  17.8628462
  75.5481974  53.9452142  23.4857423  76.1881354  53.8040901  22.7880386
  74.7159505  53.6586656  23.1096025  87.4109228  62.0270574  22.4171683
  87.8445734  61.9345863  23.2654737  88.1240808  62.0028075  21.7791699
  76.3242278  63.2454573  19.5992416  77.1182877  62.7504893  19.3974990
  75.6133971  62.7172436  19.2360121  81.1437123  65.6272668  23.9504783
  81.1974145  66.1963605  24.7182499  80.2751904  65.7974553  23.5858820
  72.6325042  57.3897654  15.6752168  71.7022630  57.3282110  15.8922130
  72.7282514  56.8673607  14.8788809  72.5510591  53.9152467  18.2630410
  72.8117408  54.8297801  18.1539570  73.3727763  53.4476910  18.4127023
  74.0235516  55.3290224  25.4329234  74.6958569  55.1207587  24.7841883
  73.1965303  55.1312310  24.9934467  88.2724777  62.0694275  24.9504568
  88.4660667  62.9740085  25.1963843  88.1725395  61.6101694  25.7843153
  79.9261088  51.9552165  27.4494895  79.2789003  52.6542115  27.3559372
  80.6962103  52.3888309  27.8171143  83.3339886  62.2201018  30.5245449
  83.1825392  61.9911569  29.6075532  83.3244565  63.1771619  30.5376794
  80.1025222  59.7932930  25.5091715  81.0317282  59.9444090  25.3360682
  79.6816252  59.8816951  24.6540362  78.9013554  63.8183595  23.2790253
  78.7624640  63.4502379  24.1516191  78.1128150  64.3331234  23.1074210
  79.4961706  68.9192691  14.6215789  79.6713462  68.4480734  15.4361412
  78.8094494  69.5458457  14.8497050  80.4518769  63.1965197  20.6679090
  80.1168602  63.1565967  21.5636740  79.9522715  62.5309913  20.1949501
  74.4263013  58.6032827  26.1931672  74.2882811  57.8713066  26.7943211
  75.3367937  58.5141728  25.9115859  83.3877961  60.5421232  10.9416150
  82.7707132  59.8168060  10.8449203  82.9194449  61.3030592  10.5983224
  77.0545314  58.3152787  25.6815351  77.7644932  57.6745979  25.6401970
  77.0114622  58.5665682  26.6041532  85.0432093  65.2520140  28.6021930
  84.9844639  64.5679360  27.9352513  85.4451611  65.9939130  28.1502556
  75.7674248  55.3018005  27.5010991  75.2311605  54.8508743  28.1532587
  75.1790956  55.4363913  26.7581455  74.0622791  72.0682054  21.3955649
  74.3019390  72.7000578  22.0734668  73.2191988  71.7170094  21.6821009
  75.1776507  54.7606656  10.0637454  74.3005973  54.6395457   9.6999701
  75.6534260  53.9692734   9.8116343  85.0449500  63.2159724  26.8335910
  84.1576279  62.8785646  26.9562309  85.6148051  62.4842755  27.0704675
  66.6978647  59.5483816  20.1578961  67.3849687  59.2345546  19.5699977
  66.5426776  60.4525180  19.8846213  71.5013369  54.4374012  24.5863985
  71.4171558  53.8299682  23.8514395  70.6796076  54.9283031  24.5873482
  78.5750653  67.8761176  23.7997153  78.5020825  68.6816148  24.3116458
  78.1328046  68.0753142  22.9745175  78.3640433  67.1132946  17.3099975
  77.5807955  67.6554627  17.4038199  79.0633178  67.6306926  17.7094216
  81.6737083  52.9227576  19.9534180  82.1705783  52.1697538  19.6335250
  80.9024065  52.9591893  19.3877390  89.5266840  58.6267941  21.5952472
  89.5156717  59.5092657  21.2246405  88.6584220  58.2739492  21.4007009
  81.0349337  67.7748010  25.9555312  81.7477309  68.4095475  25.8831213
  80.5439365  67.8711876  25.1395314  82.7566864  61.6799263  17.5272604
  81.8223142  61.8000726  17.3577308  82.9343532  60.7771730  17.2632613
  78.2572052  55.0644959  19.6805865  77.8869839  54.5115999  20.3686770
  78.7531144  54.4603092  19.1280865  86.1439415  57.5216582  18.0622638
  86.6099867  58.3544574  17.9882940  86.5946916  57.0561564  18.7667896
  76.0861250  65.5242454  26.7760883  76.7870710  66.1578937  26.9290277
  75.6156365  65.8657185  26.0156522  84.2115646  63.8660404  15.0608790
  84.4875490  63.7516998  15.9702664  83.3420145  63.4677889  15.0220963
  84.1156078  49.8897169  22.1013539  83.2019158  50.1201396  22.2695746
  84.5449179  49.9735613  22.9527571  83.8862536  58.0787061  24.6013433
  83.2333987  58.3262969  23.9465886  84.2642916  57.2651200  24.2675910
  80.8469710  68.1146755  18.7041603  81.0292105  67.2968410  19.1669356
  81.6702696  68.3314447  18.2666493  81.1811876  67.0414940  15.9656652
  81.7099642  66.5307394  15.3526814  81.4440095  66.7257470  16.8302185
  79.9350109  58.8206872  31.0879470  79.2590746  58.7201002  31.7581845
  80.7577743  58.6646086  31.5515467  71.6828968  65.0578809  23.7091985
  72.2682405  64.3122497  23.8419890  71.4853807  65.3682766  24.5928649
  74.5367624  68.0930056  18.7254428  73.8677999  68.5776184  18.2418468
  74.3980493  68.3399277  19.6397806  66.2746623  57.6284409  22.4296429
  66.3130723  57.0948000  23.2233547  65.7686916  57.1019615  21.8107406
  78.6772892  70.1273800  25.3237086  79.2291200  70.2905421  26.0886171
  79.0179086  70.7178238  24.6517111  73.6537385  52.4748950  25.9258971
  73.7178712  53.3363781  25.5136369  73.5904506  51.8622951  25.1931329
  73.1289658  54.5472082  29.5732005  73.7561697  54.1649160  30.1869529
  72.2717577  54.3286284  29.9387698  83.5283767  64.9535057  31.1785741
  84.0723671  65.5665016  30.6840695  82.9470611  65.5114636  31.6952754
  69.9055201  56.3548511  15.5050360  70.2008642  55.4459190  15.4517414
  69.0043236  56.3336251  15.1831362  81.8141279  68.0755775  22.3100768
  81.6892419  67.2745515  21.8011714  82.4720371  68.5701969  21.8214738
  73.4349448  54.4304508  21.4877909  72.7136033  55.0440476  21.3485382
  74.2242703  54.9662273  21.4094555  83.8776188  65.8764795  23.9380318
  82.9306523  65.7570147  23.8658645  84.2258961  64.9887293  24.0206580
  76.2375761  51.7658934  27.7618560  76.7610163  52.0121231  28.5244870
  76.0188095  52.5978969  27.3421698  71.6343042  54.0362609  15.6289685
  71.3055748  53.1559988  15.4464791  71.9882413  53.9810278  16.5166074
  80.8822621  65.6717512  20.1384671  80.7347584  64.7434219  20.3192241
  81.7076115  65.6937602  19.6541746  74.7484865  54.3235579  15.9965163
  75.0880938  54.8521500  15.2743771  75.1956986  54.6615985  16.7723729
  84.4856743  66.4946070  21.2249543  85.4103290  66.2888932  21.0873995
  84.3172046  66.2462472  22.1338885  77.4428306  52.7072629  25.4468231
  77.1025127  51.9080443  25.8488911  76.7367313  53.0074340  24.8745064
  78.0944778  49.7921942  23.8995554  78.9170847  49.3182420  23.7774444
  78.3382842  50.5712426  24.3994240  76.7353013  52.8210200  14.1958456
  77.4561375  53.1991453  13.6922172  76.1118317  53.5399077  14.2993434
  80.8784135  53.5255349  15.1316788  81.0947750  54.4079987  14.8305616
  80.3978203  53.1341563  14.4022430  75.6183357  56.4841063  21.7087533
  75.4727938  56.7981366  22.6011814  75.1408560  57.1025963  21.1558431
  77.4779740  53.4743611  21.7568422  77.4641309  52.5784704  21.4200720
  78.1952168  53.4814274  22.3906708  79.3305870  53.9080951  23.8021550
  79.0723648  54.8298021  23.8005880  78.7990911  53.5111385  24.4922014
  84.2752059  67.0131738  16.5811635  84.4488937  66.4478160  15.8285487
  84.7680950  67.8132633  16.3991125  70.0929019  59.0246407  24.6475194
  69.5482487  59.8006215  24.7795468  70.9708369  59.3717211  24.4894315
  76.8816636  52.3557991  17.0255992  77.0032547  51.4274637  17.2246880
  76.5918678  52.3696677  16.1134308  79.7507826  50.0412901  20.1622712
  79.7729523  50.1052234  19.2074692  80.1675885  49.2017410  20.3563218
  90.1291450  59.7768161  18.2001935  90.5722596  59.0275486  17.8021058
  89.2517961  59.7678297  17.8175667  85.2627232  66.3298502  13.6808533
  85.9578136  66.9505195  13.8995848  85.6050382  65.4793853  13.9560911
  70.8795041  58.1516303  27.5405351  70.1376777  58.2998939  28.1269981
  70.5587785  58.4124569  26.6772100  87.1618655  63.7798208  15.2095864
  87.6869979  64.1185481  14.4845184  87.0741007  62.8445223  15.0258999
  78.8238704  67.6932281  27.3385741  79.1325830  67.4481428  28.2108440
  79.6214186  67.8978920  26.8504611  78.8459316  69.8470191  19.5691117
  78.4064306  69.3546570  20.2623974  79.5967433  69.3043159  19.3283192
  71.3251655  66.0381732  19.5715745  72.1509674  65.7385504  19.1914389
  70.9745707  65.2689354  20.0205534  76.2933188  65.3908200  21.6413419
  75.6713197  64.7278905  21.3415647  76.9638055  65.4169332  20.9587067
  69.5260260  63.9568058  20.5304679  68.6892168  63.5290233  20.3488680
  69.4983905  64.1500502  21.4675470  76.3657715  53.8689988  31.2345925
  76.4145871  54.7452111  30.8523694  76.9080229  53.3267381  30.6617568
  86.8512561  64.4131111  30.5147062  86.0608105  64.3955250  29.9751561
  86.6145915  64.9519405  31.2696098  86.9710436  61.2623578  27.8279790
  87.0208441  61.0973585  28.7695313  86.8624359  60.3950837  27.4377671
  75.8546695  63.9412123  15.1171879  76.0034815  64.6247588  14.4638552
  76.6613138  63.9217214  15.6321335  84.2614198  57.2454506  29.1439097
  85.1624061  57.1060971  28.8523095  84.3362173  57.4108961  30.0837275
  78.5957004  54.6221361  27.9892283  77.7260313  54.9154927  27.7174872
  78.8316484  55.2061806  28.7099547  88.4728633  63.6820519  28.0721812
  88.1813441  64.0450500  28.9085273  87.8600764  62.9687528  27.8935144
  89.6724315  61.2473399  20.5924382  90.5071206  61.6863203  20.7561943
  89.8083444  60.7712052  19.7732628  86.7215821  58.8053134  26.5401870
  87.1969943  58.9980780  25.7320721  85.7981386  58.8612320  26.2945254
  73.6099328  59.9677301  16.1232948  73.3645370  59.0639631  16.3213158
  73.7795242  59.9694452  15.1812426  81.2996037  50.8400978  25.5057704
  81.8177981  51.5762004  25.1804192  80.9451170  51.1464971  26.3404463
  72.8794975  55.7005659  13.6219110  72.1864220  55.7750014  12.9659146
  72.6346727  54.9366002  14.1440627  81.5508632  47.2601260  21.0258600
  81.8310385  46.5924449  21.6519027  82.3359239  47.4530356  20.5133264
  79.3542100  66.4360254  12.5883627  78.7816067  67.0550441  12.1354099
  79.9274894  66.9859616  13.1223549  85.4217490  55.6818894  24.7730176
  86.3734913  55.7816992  24.7942400  85.2520940  54.8897163  25.2828260
  83.4431869  52.7674477  24.9589577  82.8481802  53.0479490  24.2636065
  83.1581566  53.2568378  25.7306318  82.5739360  66.7197404  13.7192209
  83.5070033  66.6542966  13.9225085  82.4862573  67.5553671  13.2606742
  85.2027377  66.0363274  10.6796157  85.1241008  65.7023138  11.5731915
  86.0237043  66.5285042  10.6787629  87.9005568  58.9025014  23.8872475
  87.8681888  57.9641014  24.0732159  88.5106191  58.9809050  23.1538300
  79.7388899  57.7721067   9.9299679  80.6848003  57.6427275   9.9988097
  79.3603144  57.0335729  10.4069107  88.0500056  55.6936057  23.9330758
  87.5339105  54.9094514  23.7460687  88.9340005  55.3654774  24.0977278
  85.7110783  49.4377073  19.8926571  85.5135604  49.1292161  20.7769903
  86.3210489  50.1638712  20.0224501  93.7182118  59.9641021  23.0278512
  94.4485506  59.7026309  23.5886215  93.1089063  59.2269743  23.0680580
  91.7997415  58.1048883  23.6252963  91.0730578  57.9704848  23.0169455
  91.3844702  58.4125712  24.4309681  79.6227591  61.8238813  31.3900336
  80.5430601  62.0017412  31.5840383  79.5877174  60.8794858  31.2380036
  77.9231816  55.6971043   9.8654564  77.0163271  55.4004156   9.9417278
  78.2007797  55.4000861   8.9988851  68.8409756  57.0177406  20.3153611
  68.5212541  56.1642715  20.0227985  68.2943184  57.2325985  21.0711578
  72.6189664  59.7339847  24.0323117  72.8375674  60.6656955  24.0511151
  73.0315438  59.3747822  24.8177921  79.5393882  50.2407933  16.0198806
  78.7294610  49.8955018  16.3954052  80.2278298  49.9315477  16.6086417
  81.4684430  49.3185980  17.6423102  82.0215468  49.7381433  18.3013126
  81.7054516  48.3921728  17.6846058  77.4917529  55.3073053  33.4225866
  77.3914256  56.2567410  33.3537957  77.2739071  54.9791292  32.5501936
  76.6930600  52.5557978  10.0066544  77.5549764  52.8812877  10.2662361
  76.8780945  51.7689474   9.4939609  68.7098016  60.6380318  22.2846732
  68.0161488  60.2234271  21.7716687  69.4571007  60.6800854  21.6880151
  84.8463237  51.4286505  17.1501767  84.2661906  52.0871309  16.7679819
  84.5799170  50.6063849  16.7389184  83.2966803  50.8291562  19.3523087
  83.7966582  50.9408097  18.5437406  83.9402411  50.5252615  19.9923895
  77.3548799  58.7370192  32.2390928  76.8715881  59.5370552  32.4454817
  77.4409738  58.7478137  31.2858372  70.6234759  60.5698572  20.1612747
  70.6005447  60.6686259  19.2094630  70.9335395  61.4163723  20.4829913
  73.2822137  62.6274727  24.2759362  74.2365390  62.5958669  24.2089293
  73.0834660  62.1665351  25.0909588  73.8721519  61.1975843  26.8430159
  74.6914408  61.6919922  26.8664997  74.1458326  60.2807811  26.8147727
  83.6288115  53.5886595  16.2058115  82.7413970  53.8736246  15.9878310
  84.0442104  53.4280359  15.3585392  86.9802651  53.6133116  19.9212454
  87.7563041  54.1029569  20.1937071  86.2550785  54.0391170  20.3784324
  89.4175210  54.3260735  20.9786395  90.0119700  54.0856471  20.2679703
  89.4901793  53.6067866  21.6059931  71.6372365  68.1694346  21.2929560
  71.5026833  67.4094747  20.7267558  71.2204428  68.8935246  20.8258349
  82.7731328  63.3531270  10.3006135  83.4767179  63.5581272  10.9163791
  82.0493977  63.9208032  10.5655218  83.6029139  59.1041131  16.4208405
  83.5464340  59.5609683  15.5816038  84.1557481  58.3431816  16.2431248
  87.4133945  54.8930863  17.2458525  87.1570879  54.4927499  18.0766732
  86.7886813  55.6074657  17.1208664  91.7246282  57.6326936  19.7529816
  91.1645840  57.7020126  20.5261378  91.1189786  57.4567921  19.0329312
  74.7941491  69.0663663  21.5048002  74.6773875  70.0109096  21.4026693
  73.9733938  68.7637225  21.8933801  84.6818026  63.7913799  12.3504595
  85.5163630  63.3594997  12.1682070  84.5202369  63.6195813  13.2781489
  84.3363918  60.2945912  13.7160934  84.2812722  60.1290184  12.7749378
  83.7109973  61.0021945  13.8723124  69.1256433  55.5313977  27.5422356
  69.7715297  55.0212931  28.0309582  68.9173584  56.2682658  28.1165782
  81.6509825  62.5994824  33.0414497  82.5200985  62.7735476  32.6801132
  81.1716577  63.4189241  32.9190226  77.6460043  49.7954021  13.2946253
  77.6338713  50.7395861  13.4514524  78.5383465  49.6124167  13.0005714
  75.8196005  69.7191925  24.7203931  76.7223252  69.7515535  25.0370426
  75.5933375  68.7892376  24.7350267  77.5749607  68.4722912  21.3814009
  76.6245238  68.4724773  21.2678382  77.8782094  67.7255646  20.8650044
  81.4612163  46.3896798  17.5492189  80.6944559  45.8355285  17.6948872
  81.8722868  46.4618667  18.4106341  73.4653924  52.6781594  31.6397371
  74.3285386  52.3218399  31.8500695  72.8919335  52.3395489  32.3272775
  93.3102301  74.3083450  22.4459772  93.9480711  74.1890197  21.7423112
  93.1923144  75.2564294  22.5047724  90.1192007  74.2610878  22.3821296
  89.7810519  74.1451943  21.4941831  90.9881775  73.8602043  22.3622303
  85.9778823  76.1146355  18.3718187  85.4143688  76.0236292  17.6034475
  85.8631218  75.2946259  18.8520680  90.6011790  75.4145730  28.3407502
  90.5900431  75.0198528  27.4688006  90.7632430  74.6811803  28.9341273
  83.5243255  77.6097546  21.2102408  84.3164547  77.2688371  20.7948707
  83.7639905  77.7192521  22.1304561  91.5578382  79.7817322  13.6832652
  90.9066361  80.3671403  13.2966666  92.3522744  80.3123517  13.7427690
  85.4834009  76.8706459  14.0819787  86.2564885  76.3235447  13.9432662
  85.8359408  77.7350709  14.2934248  87.3219051  78.1982842  27.2886686
  87.0308917  79.1028473  27.1733352  87.9576036  78.2399369  28.0030755
  88.2475258  75.5759690  23.8788046  88.8438830  75.3515713  23.1645009
  88.3050230  74.8344436  24.4813493  87.8200287  73.0299126  11.7138237
  88.0725807  72.5080647  10.9521700  86.8824846  72.8665271  11.8164920
  92.8643569  72.0334904  19.5212980  93.6506659  71.6154327  19.1703397
  93.1282274  72.9380996  19.6894628  93.0353647  77.4707754  14.2201637
  92.3999480  77.5442381  14.9322541  92.7051053  78.0601353  13.5420716
  98.2651997  71.9710137  20.4245958  98.9977168  71.4009354  20.6583788
  97.5091352  71.5831738  20.8652464  87.5396575  74.9327232  13.9162612
  87.4232833  74.2572135  14.5843696  87.6498835  74.4459606  13.0994765
  89.8828116  74.3937379  17.6209301  89.5186323  73.8668000  18.3322222
  90.7395232  74.0035848  17.4475786  95.7877417  65.6831711  24.8840567
  95.4560742  66.5527122  24.6601782  95.1923030  65.3667995  25.5634597
  89.5233603  69.4227278  12.6170649  89.6908006  70.2907515  12.9841120
  89.3330772  69.5854560  11.6931939  92.2808936  77.8844257  24.2836480
  91.9809659  78.7869296  24.1752287  91.9359996  77.6176440  25.1357633
  85.7321418  74.3358054  20.3173184  84.8071914  74.2034268  20.5250876
  85.9805831  75.1152273  20.8143126  95.6806080  70.4026797  21.9633917
  94.7722958  70.3342206  21.6692678  95.6293676  70.8798742  22.7915742
  89.5022824  71.8784936  13.6017316  89.3822449  72.3241987  14.4402796
  88.8075412  72.2270254  13.0430854  83.0930229  73.9791328  21.1516973
  83.2222610  74.2325807  22.0656385  82.4127680  74.5719036  20.8321628
  87.2629716  84.6488578  17.2507447  87.1853746  85.5996403  17.3295928
  86.6591360  84.3034450  17.9082374  89.7546946  71.8216443  29.9068814
  88.9780280  72.3810363  29.8971679  90.3937509  72.3073226  30.4283684
  97.5467727  68.6043236  23.7411791  96.9042107  68.8975769  23.0951585
  97.0422655  68.4896156  24.5464988  95.2007890  72.3506409  14.4297650
  96.1125746  72.5833796  14.2545348  94.6917537  72.9343453  13.8672729
  88.0093318  74.6301896  29.4686781  88.7508003  75.1686940  29.1921605
  87.3030304  75.2568185  29.6258333  93.4848658  76.7731037  28.0658943
  93.8932014  76.3313447  27.3213575  92.7625919  76.1983664  28.3193136
  89.8379728  71.7103644  25.4392500  90.6840923  72.1343057  25.5827149
  89.7778366  71.0537268  26.1331063  93.8077473  77.3332227  21.8211232
  93.1786335  77.4977942  21.1187299  93.4203135  77.7473837  22.5922196
  97.6866704  78.2686665  19.1755595  97.0017743  78.6485567  18.6252629
  97.7710554  78.8781992  19.9087543  92.9879173  69.3708012  27.0973673
  92.7440105  70.1250073  26.5607949  93.2639104  69.7493360  27.9320920
  94.9417636  75.9146624  25.7750939  95.1534531  76.5578384  25.0985320
  94.8947384  75.0808941  25.3072869  92.5443865  68.5264445  22.6787511
  91.6828344  68.8245699  22.9704249  92.5706300  68.7434844  21.7468544
  89.3605434  77.0706636  19.0861317  89.8243780  77.3494339  18.2965939
  89.0962233  76.1690080  18.9034407  86.2529515  76.6178117  22.0241080
  86.8230873  77.0465386  21.3858564  86.8437627  76.3360702  22.7225266
  88.2974320  73.1929788  15.8950882  88.9998364  73.6450832  16.3624808
  87.9654949  72.5513607  16.5230775  86.7454682  71.7841545  30.2702091
  86.1153343  72.4657825  30.5037488  86.6390770  71.6724626  29.3255229
  82.0399654  71.4513341  21.1968015  81.2498708  71.7070869  20.7208126
  82.5310902  72.2661678  21.3020056  96.0563464  78.7918580  23.9473296
  96.8780908  78.3898767  23.6655978  96.0525867  78.6886814  24.8989412
  83.9914400  71.8157920  18.1551492  83.1945563  71.9276614  18.6734988
  83.7639992  72.1544572  17.2892383  89.8220067  78.3402623  26.1034007
  89.8864500  78.8023030  26.9392179  89.1130991  77.7099988  26.2316317
  80.3237357  71.7043831  23.6283006  80.5745396  72.5890841  23.8940582
  80.8596906  71.5248433  22.8558098 104.1469457  75.1357328  20.2958268
 103.3933165  74.5664726  20.1402272 104.2816998  75.1019993  21.2428902
  89.5368085  80.0070731  15.9712987  89.4013760  80.8522266  16.3997835
  90.0777898  80.2090008  15.2078921  86.0235425  66.0862310  32.6327342
  85.6302370  65.5328509  33.3074987  86.8401565  66.3972889  33.0233860
  82.9897483  77.5246169  16.5440912  83.5022003  78.3189419  16.6946477
  83.6420195  76.8272459  16.4774514  84.7992367  80.6411925  18.6263665
  84.9758996  81.5629890  18.4384649  85.5949201  80.3270344  19.0558045
  88.9403386  67.5020190  30.2247599  89.6813099  68.1027343  30.1452061
  89.1721309  66.7597827  29.6665641  84.0844724  72.6876557  28.5025829
  83.9698239  71.7861814  28.8032927  83.2289241  72.9340254  28.1510645
  91.1636561  80.6294297  30.1013329  90.7200416  79.8430676  29.7834234
  91.8253775  80.8173448  29.4357220  85.9223683  82.1590099  24.6274008
  86.4731108  82.0307162  23.8551002  85.0835159  82.4584988  24.2768900
  93.2617800  80.9097097  28.1294730  93.2436275  81.7305978  27.6375000
  94.1837720  80.7851172  28.3544872  89.7190854  78.4241227  28.9718239
  90.2519191  77.6629515  28.7417547  89.1904935  78.1314878  29.7142393
  92.8860549  63.5301292  24.5011881  92.5424818  64.4202934  24.4250991
  93.2539511  63.3402950  23.6381466  80.9546399  75.8534823  17.3200483
  81.7921621  76.2631831  17.1034190  81.1324667  74.9134265  17.2900677
  92.8510831  73.5209904  13.0084316  92.3357455  74.2914508  13.2472703
  92.5788140  72.8475040  13.6317377  90.4357942  68.3659604  18.0669554
  89.5799539  67.9766455  17.8875193  90.8484894  68.4451565  17.2069340
  91.9657089  65.9005948  22.4661114  91.4621885  65.8636083  21.6528919
  92.2587696  66.8098690  22.5257770  88.2099975  65.9844677  21.4727295
  89.0752972  65.7887486  21.1133185  88.2777484  65.7555029  22.3996652
  97.8245106  76.2742258  14.9437489  97.0474548  75.9353418  14.4992651
  98.5036587  76.2794881  14.2692454  92.6397135  71.3936996  14.8344097
  92.3347270  71.7083145  15.6854240  93.5927577  71.4718416  14.8771430
  91.0843566  77.5527219  16.4837051  90.5564928  76.8179979  16.1710288
  90.5831069  78.3301895  16.2377019  96.0636412  75.7476239  21.6004097
  95.4060087  76.4375501  21.6884226  96.8676812  76.1372671  21.9438083
  85.8162294  68.2146885  18.8443662  86.3906046  67.9922067  18.1116855
  86.4033276  68.2835580  19.5972264  94.8741871  74.1020612  19.6508039
  95.3873753  74.7350604  20.1529749  95.5243095  73.5021808  19.2851399
  86.1431881  70.2451346  12.8639548  85.3069193  70.5826033  13.1848822
  86.0036651  70.1100326  11.9266685  88.1184962  65.0888134  17.5718732
  87.4649374  64.7737151  16.9475347  88.0765436  64.4663875  18.2978555
  89.2296167  75.3707429   9.4872024  88.3223228  75.1396683   9.6863173
  89.7267199  74.5745048   9.6746005  92.1364245  84.0804936  12.4068710
  91.4625944  84.3836633  13.0153668  92.5230067  84.8834017  12.0574167
  91.3522702  71.5770068  21.8966379  90.4345263  71.7985015  21.7388067
  91.7682846  71.6516378  21.0378087  92.1357750  72.9761483  17.0269060
  92.8829569  73.4882881  16.7176182  92.4049339  72.6545536  17.8873453
  90.4084400  75.4720024  14.0096014  89.4995619  75.1879057  14.1068484
  90.4379484  75.8919103  13.1499321  95.6403667  79.0826614  17.7787181
  95.1865995  78.2417523  17.8352372  95.0097634  79.7188012  18.1161962
  94.5836587  70.0118600  19.0087849  93.8459344  69.4995986  19.3398091
  94.8363361  69.5718981  18.1971126  94.0836607  80.9203110  18.7137000
  94.3759581  81.4808167  17.9949365  94.5935227  81.2131671  19.4690159
  94.6848214  62.7894852  19.6029618  94.9907091  61.9292215  19.3155533
  95.4100819  63.3812472  19.4028612  80.9772570  73.1925538  17.9911216
  80.7796970  72.5994899  17.2662283  80.4219234  72.8877748  18.7087155
  88.9569294  73.0848645  20.1105809  89.0117904  72.1322481  20.0348286
  88.1460496  73.2408084  20.5947108  90.1060488  77.0128768  11.3484092
  89.6679918  76.2964627  10.8889730  90.8470929  77.2404883  10.7869184
  86.8961654  71.7025704  17.8696188  86.0829520  72.0019875  18.2761380
  87.3920648  71.3081393  18.5870670  89.0470232  81.6983461  19.8030453
  89.0046411  81.9244308  18.8738985  89.9632931  81.4646836  19.9516254
  92.4935866  72.1667529  26.7011082  92.8485253  72.3939002  27.5605548
  93.1407997  72.4985906  26.0788337  98.2233603  75.2885965  17.4060411
  98.0851501  75.4787561  16.4781600  97.8669821  76.0505348  17.8628462
  86.3875729  69.2744060  23.4857423  87.0275108  69.1332819  22.7880386
  85.5553259  68.9878573  23.1096025  98.2502982  77.3562492  22.4171683
  98.6839489  77.2637781  23.2654737  98.9634563  77.3319992  21.7791699
  87.1636033  78.5746490  19.5992416  87.9576631  78.0796811  19.3974990
  86.4527725  78.0464354  19.2360121  91.9830877  80.9564586  23.9504783
  92.0367899  81.5255522  24.7182499  91.1145658  81.1266471  23.5858820
  83.4718796  72.7189572  15.6752168  82.5416384  72.6574028  15.8922130
  83.5676268  72.1965525  14.8788809  83.3904345  69.2444385  18.2630410
  83.6511162  70.1589718  18.1539570  84.2121518  68.7768828  18.4127023
  84.8629271  70.6582142  25.4329234  85.5352324  70.4499504  24.7841883
  84.0359057  70.4604228  24.9934467  99.1118532  77.3986192  24.9504568
  99.3054422  78.3032003  25.1963843  99.0119150  76.9393612  25.7843153
  90.7654843  67.2844083  27.4494895  90.1182758  67.9834033  27.3559372
  91.5355858  67.7180227  27.8171143  94.1733640  77.5492935  30.5245449
  94.0219147  77.3203487  29.6075532  94.1638320  78.5063537  30.5376794
  90.9418977  75.1224848  25.5091715  91.8711037  75.2736008  25.3360682
  90.5210007  75.2108869  24.6540362  89.7407309  79.1475512  23.2790253
  89.6018394  78.7794297  24.1516191  88.9521905  79.6623152  23.1074210
  90.3355461  84.2484609  14.6215789  90.5107216  83.7772652  15.4361412
  89.6488249  84.8750375  14.8497050  91.2912524  78.5257115  20.6679090
  90.9562356  78.4857885  21.5636740  90.7916469  77.8601831  20.1949501
  85.2656768  73.9324745  26.1931672  85.1276566  73.2004984  26.7943211
  86.1761691  73.8433645  25.9115859  94.2271715  75.8713149  10.9416150
  93.6100886  75.1459978  10.8449203  93.7588204  76.6322510  10.5983224
  87.8939068  73.6444704  25.6815351  88.6038687  73.0037897  25.6401970
  87.8508377  73.8957599  26.6041532  95.8825847  80.5812058  28.6021930
  95.8238393  79.8971278  27.9352513  96.2845365  81.3231048  28.1502556
  86.6068002  70.6309922  27.5010991  86.0705359  70.1800661  28.1532587
  86.0184711  70.7655831  26.7581455  84.9016546  87.3973972  21.3955649
  85.1413144  88.0292496  22.0734668  84.0585742  87.0462012  21.6821009
  86.0170261  70.0898574  10.0637454  85.1399728  69.9687375   9.6999701
  86.4928014  69.2984652   9.8116343  95.8843254  78.5451642  26.8335910
  94.9970033  78.2077564  26.9562309  96.4541805  77.8134673  27.0704675
  77.5372401  74.8775733  20.1578961  78.2243441  74.5637463  19.5699977
  77.3820530  75.7817098  19.8846213  82.3407124  69.7665930  24.5863985
  82.2565312  69.1591600  23.8514395  81.5189830  70.2574948  24.5873482
  89.4144408  83.2053094  23.7997153  89.3414579  84.0108066  24.3116458
  88.9721801  83.4045060  22.9745175  89.2034187  82.4424864  17.3099975
  88.4201709  82.9846544  17.4038199  89.9026933  82.9598844  17.7094216
  92.5130838  68.2519494  19.9534180  93.0099537  67.4989456  19.6335250
  91.7417819  68.2883810  19.3877390 100.3660595  73.9559859  21.5952472
 100.3550471  74.8384575  21.2246405  99.4977974  73.6031410  21.4007009
  91.8743091  83.1039928  25.9555312  92.5871063  83.7387393  25.8831213
  91.3833120  83.2003794  25.1395314  93.5960618  77.0091181  17.5272604
  92.6616897  77.1292643  17.3577308  93.7737287  76.1063648  17.2632613
  89.0965806  70.3936877  19.6805865  88.7263594  69.8407917  20.3686770
  89.5924899  69.7895010  19.1280865  96.9833170  72.8508500  18.0622638
  97.4493622  73.6836492  17.9882940  97.4340670  72.3853482  18.7667896
  86.9255005  80.8534372  26.7760883  87.6264464  81.4870855  26.9290277
  86.4550120  81.1949103  26.0156522  95.0509401  79.1952321  15.0608790
  95.3269245  79.0808916  15.9702664  94.1813899  78.7969806  15.0220963
  94.9549832  65.2189087  22.1013539  94.0412912  65.4493314  22.2695746
  95.3842934  65.3027531  22.9527571  94.7256291  73.4078979  24.6013433
  94.0727741  73.6554886  23.9465886  95.1036671  72.5943117  24.2675910
  91.6863465  83.4438672  18.7041603  91.8685859  82.6260328  19.1669356
  92.5096451  83.6606364  18.2666493  92.0205630  82.3706857  15.9656652
  92.5493397  81.8599312  15.3526814  92.2833850  82.0549388  16.8302185
  90.7743864  74.1498790  31.0879470  90.0984501  74.0492919  31.7581845
  91.5971498  73.9938004  31.5515467  82.5222723  80.3870727  23.7091985
  83.1076160  79.6414415  23.8419890  82.3247561  80.6974683  24.5928649
  85.3761378  83.4221974  18.7254428  84.7071753  83.9068102  18.2418468
  85.2374248  83.6691194  19.6397806  77.1140378  72.9576327  22.4296429
  77.1524477  72.4239918  23.2233547  76.6080670  72.4311532  21.8107406
  89.5166647  85.4565718  25.3237086  90.0684955  85.6197339  26.0886171
  89.8572840  86.0470155  24.6517111  84.4931140  67.8040867  25.9258971
  84.5572466  68.6655698  25.5136369  84.4298260  67.1914869  25.1931329
  83.9683412  69.8764000  29.5732005  84.5955451  69.4941077  30.1869529
  83.1111331  69.6578202  29.9387698  94.3677521  80.2826975  31.1785741
  94.9117425  80.8956933  30.6840695  93.7864366  80.8406553  31.6952754
  80.7448955  71.6840429  15.5050360  81.0402396  70.7751107  15.4517414
  79.8436991  71.6628168  15.1831362  92.6535034  83.4047693  22.3100768
  92.5286173  82.6037433  21.8011714  93.3114125  83.8993886  21.8214738
  84.2743202  69.7596426  21.4877909  83.5529788  70.3732393  21.3485382
  85.0636458  70.2954190  21.4094555  94.7169942  81.2056713  23.9380318
  93.7700278  81.0862064  23.8658645  95.0652715  80.3179211  24.0206580
  87.0769516  67.0950852  27.7618560  87.6003918  67.3413149  28.5244870
  86.8581849  67.9270887  27.3421698  82.4736797  69.3654527  15.6289685
  82.1449503  68.4851906  15.4464791  82.8276167  69.3102195  16.5166074
  91.7216376  81.0009429  20.1384671  91.5741338  80.0726137  20.3192241
  92.5469869  81.0229520  19.6541746  85.5878620  69.6527496  15.9965163
  85.9274692  70.1813418  15.2743771  86.0350740  69.9907903  16.7723729
  95.3250497  81.8237988  21.2249543  96.2497045  81.6180849  21.0873995
  95.1565801  81.5754389  22.1338885  88.2822061  68.0364547  25.4468231
  87.9418881  67.2372360  25.8488911  87.5761067  68.3366258  24.8745064
  88.9338533  65.1213860  23.8995554  89.7564602  64.6474338  23.7774444
  89.1776596  65.9004343  24.3994240  87.5746767  68.1502118  14.1958456
  88.2955130  68.5283371  13.6922172  86.9512071  68.8690995  14.2993434
  91.7177890  68.8547267  15.1316788  91.9341504  69.7371905  14.8305616
  91.2371957  68.4633480  14.4022430  86.4577111  71.8132980  21.7087533
  86.3121692  72.1273283  22.6011814  85.9802315  72.4317881  21.1558431
  88.3173494  68.8035528  21.7568422  88.3035063  67.9076622  21.4200720
  89.0345922  68.8106192  22.3906708  90.1699625  69.2372868  23.8021550
  89.9117403  70.1589939  23.8005880  89.6384665  68.8403303  24.4922014
  95.1145814  82.3423656  16.5811635  95.2882691  81.7770078  15.8285487
  95.6074705  83.1424550  16.3991125  80.9322774  74.3538325  24.6475194
  80.3876242  75.1298133  24.7795468  81.8102123  74.7009129  24.4894315
  87.7210390  67.6849908  17.0255992  87.8426301  66.7566555  17.2246880
  87.4312433  67.6988594  16.1134308  90.5901581  65.3704819  20.1622712
  90.6123277  65.4344152  19.2074692  91.0069640  64.5309328  20.3563218
 100.9685205  75.1060078  18.2001935 101.4116351  74.3567404  17.8021058
 100.0911715  75.0970215  17.8175667  96.1020986  81.6590420  13.6808533
  96.7971891  82.2797113  13.8995848  96.4444136  80.8085771  13.9560911
  81.7188795  73.4808221  27.5405351  80.9770531  73.6290856  28.1269981
  81.3981540  73.7416486  26.6772100  98.0012409  79.1090125  15.2095864
  98.5263733  79.4477398  14.4845184  97.9134762  78.1737141  15.0258999
  89.6632458  83.0224199  27.3385741  89.9719584  82.7773346  28.2108440
  90.4607940  83.2270838  26.8504611  89.6853070  85.1762109  19.5691117
  89.2458060  84.6838487  20.2623974  90.4361187  84.6335076  19.3283192
  82.1645409  81.3673650  19.5715745  82.9903429  81.0677421  19.1914389
  81.8139461  80.5981272  20.0205534  87.1326942  80.7200118  21.6413419
  86.5106952  80.0570823  21.3415647  87.8031809  80.7461250  20.9587067
  80.3654014  79.2859976  20.5304679  79.5285922  78.8582150  20.3488680
  80.3377660  79.4792419  21.4675470  87.2051470  69.1981906  31.2345925
  87.2539625  70.0744029  30.8523694  87.7473984  68.6559299  30.6617568
  97.6906315  79.7423029  30.5147062  96.9001859  79.7247168  29.9751561
  97.4539670  80.2811323  31.2696098  97.8104190  76.5915495  27.8279790
  97.8602195  76.4265503  28.7695313  97.7018114  75.7242755  27.4377671
  86.6940449  79.2704041  15.1171879  86.8428569  79.9539506  14.4638552
  87.5006893  79.2509131  15.6321335  95.1007953  72.5746424  29.1439097
  96.0017816  72.4352888  28.8523095  95.1755927  72.7400878  30.0837275
  89.4350758  69.9513278  27.9892283  88.5654068  70.2446844  27.7174872
  89.6710239  70.5353723  28.7099547  99.3122387  79.0112437  28.0721812
  99.0207196  79.3742418  28.9085273  98.6994519  78.2979445  27.8935144
 100.5118070  76.5765317  20.5924382 101.3464961  77.0155121  20.7561943
 100.6477198  76.1003970  19.7732628  97.5609576  74.1345052  26.5401870
  98.0363697  74.3272698  25.7320721  96.6375141  74.1904237  26.2945254
  84.4493082  75.2969219  16.1232948  84.2039124  74.3931549  16.3213158
  84.6188997  75.2986369  15.1812426  92.1389792  66.1692895  25.5057704
  92.6571736  66.9053922  25.1804192  91.7844925  66.4756888  26.3404463
  83.7188730  71.0297576  13.6219110  83.0257975  71.1041931  12.9659146
  83.4740482  70.2657920  14.1440627  92.3902386  62.5893178  21.0258600
  92.6704140  61.9216367  21.6519027  93.1752993  62.7822273  20.5133264
  90.1935855  81.7652172  12.5883627  89.6209822  82.3842359  12.1354099
  90.7668648  82.3151533  13.1223549  96.2611245  71.0110812  24.7730176
  97.2128667  71.1108909  24.7942400  96.0914695  70.2189080  25.2828260
  94.2825624  68.0966395  24.9589577  93.6875556  68.3771408  24.2636065
  93.9975321  68.5860296  25.7306318  93.4133114  82.0489322  13.7192209
  94.3463788  81.9834883  13.9225085  93.3256327  82.8845589  13.2606742
  96.0421131  81.3655192  10.6796157  95.9634763  81.0315056  11.5731915
  96.8630798  81.8576960  10.6787629  98.7399322  74.2316931  23.8872475
  98.7075642  73.2932932  24.0732159  99.3499946  74.3100968  23.1538300
  90.5782653  73.1012984   9.9299679  91.5241758  72.9719192   9.9988097
  90.1996898  72.3627646  10.4069107  98.8893811  71.0227975  23.9330758
  98.3732859  70.2386431  23.7460687  99.7733759  70.6946691  24.0977278
  96.5504538  64.7668990  19.8926571  96.3529359  64.4584079  20.7769903
  97.1604243  65.4930629  20.0224501 104.5575872  75.2932938  23.0278512
 105.2879261  75.0318226  23.5886215 103.9482818  74.5561660  23.0680580
 102.6391169  73.4340801  23.6252963 101.9124333  73.2996766  23.0169455
 102.2238456  73.7417629  24.4309681  90.4621346  77.1530730  31.3900336
  91.3824355  77.3309330  31.5840383  90.4270929  76.2086776  31.2380036
  88.7625570  71.0262961   9.8654564  87.8557026  70.7296073   9.9417278
  89.0401551  70.7292779   8.9988851  79.6803511  72.3469324  20.3153611
  79.3606295  71.4934632  20.0227985  79.1336939  72.5617902  21.0711578
  83.4583418  75.0631765  24.0323117  83.6769428  75.9948873  24.0511151
  83.8709192  74.7039740  24.8177921  90.3787636  65.5699850  16.0198806
  89.5688364  65.2246935  16.3954052  91.0672053  65.2607394  16.6086417
  92.3078184  64.6477897  17.6423102  92.8609223  65.0673351  18.3013126
  92.5448271  63.7213645  17.6846058  88.3311284  70.6364971  33.4225866
  88.2308010  71.5859328  33.3537957  88.1132826  70.3083210  32.5501936
  87.5324355  67.8849896  10.0066544  88.3943519  68.2104794  10.2662361
  87.7174699  67.0981392   9.4939609  79.5491771  75.9672236  22.2846732
  78.8555242  75.5526188  21.7716687  80.2964762  76.0092772  21.6880151
  95.6856991  66.7578422  17.1501767  95.1055660  67.4163226  16.7679819
  95.4192924  65.9355767  16.7389184  94.1360558  66.1583480  19.3523087
  94.6360336  66.2700015  18.5437406  94.7796166  65.8544533  19.9923895
  88.1942554  74.0662110  32.2390928  87.7109635  74.8662470  32.4454817
  88.2803493  74.0770055  31.2858372  81.4628513  75.8990489  20.1612747
  81.4399201  75.9978177  19.2094630  81.7729150  76.7455640  20.4829913
  84.1215891  77.9566644  24.2759362  85.0759145  77.9250587  24.2089293
  83.9228415  77.4957268  25.0909588  84.7115273  76.5267761  26.8430159
  85.5308162  77.0211839  26.8664997  84.9852081  75.6099729  26.8147727
  94.4681869  68.9178513  16.2058115  93.5807724  69.2028163  15.9878310
  94.8835858  68.7572276  15.3585392  97.8196406  68.9425034  19.9212454
  98.5956796  69.4321486  20.1937071  97.0944540  69.3683088  20.3784324
 100.2568964  69.6552653  20.9786395 100.8513455  69.4148389  20.2679703
 100.3295548  68.9359784  21.6059931  82.4766120  83.4986264  21.2929560
  82.3420588  82.7386665  20.7267558  82.0598182  84.2227164  20.8258349
  93.6125083  78.6823187  10.3006135  94.3160933  78.8873190  10.9163791
  92.8887732  79.2499949  10.5655218  94.4422893  74.4333049  16.4208405
  94.3858095  74.8901600  15.5816038  94.9951236  73.6723733  16.2431248
  98.2527699  70.2222781  17.2458525  97.9964633  69.8219416  18.0766732
  97.6280567  70.9366575  17.1208664 102.5640037  72.9618854  19.7529816
 102.0039595  73.0312043  20.5261378 101.9583540  72.7859838  19.0329312
  85.6335246  84.3955581  21.5048002  85.5167630  85.3401013  21.4026693
  84.8127692  84.0929143  21.8933801  95.5211780  79.1205717  12.3504595
  96.3557384  78.6886915  12.1682070  95.3596123  78.9487730  13.2781489
  95.1757672  75.6237830  13.7160934  95.1206476  75.4582101  12.7749378
  94.5503728  76.3313863  13.8723124  79.9650187  70.8605894  27.5422356
  80.6109051  70.3504848  28.0309582  79.7567339  71.5974576  28.1165782
  92.4903580  77.9286742  33.0414497  93.3594739  78.1027394  32.6801132
  92.0110331  78.7481159  32.9190226  88.4853798  65.1245939  13.2946253
  88.4732468  66.0687779  13.4514524  89.3777220  64.9416084  13.0005714
  86.6589760  85.0483843  24.7203931  87.5617007  85.0807453  25.0370426
  86.4327130  84.1184294  24.7350267  88.4143362  83.8014829  21.3814009
  87.4638993  83.8016691  21.2678382  88.7175848  83.0547564  20.8650044
  92.3005917  61.7188716  17.5492189  91.5338313  61.1647202  17.6948872
  92.7116622  61.7910584  18.4106341  84.3047678  68.0073511  31.6397371
  85.1679140  67.6510316  31.8500695  83.7313089  67.6687406  32.3272775
 104.1496055  89.6375368  22.4459772 104.7874465  89.5182115  21.7423112
 104.0316898  90.5856212  22.5047724 100.9585762  89.5902796  22.3821296
 100.6204273  89.4743861  21.4941831 101.8275530  89.1893961  22.3622303
  96.8172577  91.4438272  18.3718187  96.2537442  91.3528209  17.6034475
  96.7024972  90.6238177  18.8520680 101.4405545  90.7437648  28.3407502
 101.4294185  90.3490446  27.4688006 101.6026184  90.0103720  28.9341273
  94.3637009  92.9389464  21.2102408  95.1558301  92.5980289  20.7948707
  94.6033659  93.0484439  22.1304561 102.3972136  95.1109240  13.6832652
 101.7460116  95.6963320  13.2966666 103.1916499  95.6415435  13.7427690
  96.3227763  92.1998377  14.0819787  97.0958639  91.6527364  13.9432662
  96.6753162  93.0642626  14.2934248  98.1612806  93.5274759  27.2886686
  97.8702672  94.4320390  27.1733352  98.7969790  93.5691287  28.0030755
  99.0869013  90.9051608  23.8788046  99.6832585  90.6807630  23.1645009
  99.1443984  90.1636353  24.4813493  98.6594041  88.3591043  11.7138237
  98.9119562  87.8372565  10.9521700  97.7218600  88.1957189  11.8164920
 103.7037324  87.3626822  19.5212980 104.4900413  86.9446245  19.1703397
 103.9676028  88.2672914  19.6894628 103.8747401  92.7999672  14.2201637
 103.2393234  92.8734298  14.9322541 103.5444808  93.3893271  13.5420716
 109.1045751  87.3002055  20.4245958 109.8370923  86.7301272  20.6583788
 108.3485107  86.9123655  20.8652464  98.3790330  90.2619149  13.9162612
  98.2626588  89.5864053  14.5843696  98.4892590  89.7751523  13.0994765
 100.7221871  89.7229296  17.6209301 100.3580078  89.1959917  18.3322222
 101.5788987  89.3327765  17.4475786 106.6271171  81.0123629  24.8840567
 106.2954496  81.8819040  24.6601782 106.0316785  80.6959913  25.5634597
 100.3627358  84.7519196  12.6170649 100.5301760  85.6199432  12.9841120
 100.1724527  84.9146478  11.6931939 103.1202691  93.2136175  24.2836480
 102.8203414  94.1161214  24.1752287 102.7753750  92.9468358  25.1357633
  96.5715172  89.6649972  20.3173184  95.6465669  89.5326186  20.5250876
  96.8199586  90.4444191  20.8143126 106.5199835  85.7318715  21.9633917
 105.6116712  85.6634124  21.6692678 106.4687430  86.2090660  22.7915742
 100.3416579  87.2076854  13.6017316 100.2216204  87.6533904  14.4402796
  99.6469167  87.5562171  13.0430854  93.9323983  89.3083245  21.1516973
  94.0616365  89.5617724  22.0656385  93.2521435  89.9010953  20.8321628
  98.1023471  99.9780495  17.2507447  98.0247500 100.9288320  17.3295928
  97.4985114  99.6326368  17.9082374 100.5940700  87.1508361  29.9068814
  99.8174035  87.7102281  29.8971679 101.2331264  87.6365144  30.4283684
 108.3861481  83.9335154  23.7411791 107.7435861  84.2267687  23.0951585
 107.8816410  83.8188074  24.5464988 106.0401645  87.6798327  14.4297650
 106.9519501  87.9125713  14.2545348 105.5311292  88.2635371  13.8672729
  98.8487073  89.9593814  29.4686781  99.5901757  90.4978858  29.1921605
  98.1424058  90.5860103  29.6258333 104.3242412  92.1022955  28.0658943
 104.7325768  91.6605365  27.3213575 103.6019674  91.5275582  28.3193136
 100.6773482  87.0395561  25.4392500 101.5234678  87.4634975  25.5827149
 100.6172120  86.3829186  26.1331063 104.6471227  92.6624145  21.8211232
 104.0180089  92.8269859  21.1187299 104.2596889  93.0765755  22.5922196
 108.5260459  93.5978583  19.1755595 107.8411497  93.9777484  18.6252629
 108.6104308  94.2073910  19.9087543 103.8272928  84.6999930  27.0973673
 103.5833860  85.4541990  26.5607949 104.1032858  85.0785277  27.9320920
 105.7811391  91.2438542  25.7750939 105.9928286  91.8870302  25.0985320
 105.7341139  90.4100859  25.3072869 103.3837620  83.8556363  22.6787511
 102.5222099  84.1537616  22.9704249 103.4100054  84.0726762  21.7468544
 100.1999189  92.3998553  19.0861317 100.6637534  92.6786256  18.2965939
  99.9355987  91.4981998  18.9034407  97.0923270  91.9470035  22.0241080
  97.6624627  92.3757303  21.3858564  97.6831382  91.6652620  22.7225266
  99.1368075  88.5221706  15.8950882  99.8392118  88.9742749  16.3624808
  98.8048703  87.8805524  16.5230775  97.5848437  87.1133462  30.2702091
  96.9547097  87.7949743  30.5037488  97.4784524  87.0016544  29.3255229
  92.8793409  86.7805258  21.1968015  92.0892463  87.0362787  20.7208126
  93.3704656  87.5953596  21.3020056 106.8957218  94.1210497  23.9473296
 107.7174662  93.7190685  23.6655978 106.8919621  94.0178732  24.8989412
  94.8308154  87.1449838  18.1551492  94.0339318  87.2568532  18.6734988
  94.6033747  87.4836490  17.2892383 100.6613822  93.6694541  26.1034007
 100.7258254  94.1314948  26.9392179  99.9524746  93.0391906  26.2316317
  91.1631112  87.0335749  23.6283006  91.4139150  87.9182759  23.8940582
  91.6990660  86.8540350  22.8558098 114.9863212  90.4649246  20.2958268
 114.2326920  89.8956644  20.1402272 115.1210753  90.4311910  21.2428902
 100.3761840  95.3362648  15.9712987 100.2407514  96.1814184  16.3997835
 100.9171652  95.5381926  15.2078921  96.8629179  81.4154228  32.6327342
  96.4696125  80.8620427  33.3074987  97.6795320  81.7264807  33.0233860
  93.8291237  92.8538086  16.5440912  94.3415758  93.6481337  16.6946477
  94.4813950  92.1564377  16.4774514  95.6386122  95.9703843  18.6263665
  95.8152750  96.8921807  18.4384649  96.4342955  95.6562262  19.0558045
  99.7797140  82.8312107  30.2247599 100.5206854  83.4319260  30.1452061
 100.0115063  82.0889745  29.6665641  94.9238478  88.0168474  28.5025829
  94.8091993  87.1153732  28.8032927  94.0682996  88.2632171  28.1510645
 102.0030316  95.9586215  30.1013329 101.5594170  95.1722593  29.7834234
 102.6647530  96.1465365  29.4357220  96.7617437  97.4882016  24.6274008
  97.3124862  97.3599080  23.8551002  95.9228913  97.7876905  24.2768900
 104.1011554  96.2389015  28.1294730 104.0830029  97.0597896  27.6375000
 105.0231474  96.1143090  28.3544872 100.5584608  93.7533144  28.9718239
 101.0912945  92.9921432  28.7417547 100.0298689  93.4606796  29.7142393
 103.7254303  78.8593210  24.5011881 103.3818573  79.7494852  24.4250991
 104.0933266  78.6694868  23.6381466  91.7940154  91.1826741  17.3200483
  92.6315376  91.5923749  17.1034190  91.9718421  90.2426183  17.2900677
 103.6904586  88.8501821  13.0084316 103.1751209  89.6206426  13.2472703
 103.4181894  88.1766957  13.6317377 101.2751697  83.6951522  18.0669554
 100.4193293  83.3058372  17.8875193 101.6878649  83.7743483  17.2069340
 102.8050844  81.2297865  22.4661114 102.3015639  81.1928000  21.6528919
 103.0981450  82.1390608  22.5257770  99.0493729  81.3136595  21.4727295
  99.9146726  81.1179404  21.1133185  99.1171238  81.0846947  22.3996652
 108.6638860  91.6034176  14.9437489 107.8868303  91.2645335  14.4992651
 109.3430341  91.6086799  14.2692454 103.4790889  86.7228913  14.8344097
 103.1741025  87.0375063  15.6854240 104.4321331  86.8010333  14.8771430
 101.9237321  92.8819137  16.4837051 101.3958682  92.1471896  16.1710288
 101.4224824  93.6593813  16.2377019 106.9030167  91.0768157  21.6004097
 106.2453841  91.7667419  21.6884226 107.7070566  91.4664589  21.9438083
  96.6556049  83.5438803  18.8443662  97.2299800  83.3213984  18.1116855
  97.2427031  83.6127497  19.5972264 105.7135626  89.4312530  19.6508039
 106.2267507  90.0642522  20.1529749 106.3636850  88.8313725  19.2851399
  96.9825636  85.5743264  12.8639548  96.1462948  85.9117951  13.1848822
  96.8430405  85.4392244  11.9266685  98.9578716  80.4180052  17.5718732
  98.3043129  80.1029069  16.9475347  98.9159190  79.7955792  18.2978555
 100.0689921  90.6999347   9.4872024  99.1616983  90.4688600   9.6863173
 100.5660953  89.9036966   9.6746005 102.9758000  99.4096854  12.4068710
 102.3019699  99.7128551  13.0153668 103.3623822 100.2125934  12.0574167
 102.1916457  86.9061985  21.8966379 101.2739018  87.1276932  21.7388067
 102.6076600  86.9808296  21.0378087 102.9751504  88.3053401  17.0269060
 103.7223323  88.8174798  16.7176182 103.2443094  87.9837454  17.8873453
 101.2478155  90.8011942  14.0096014 100.3389374  90.5170975  14.1068484
 101.2773238  91.2211020  13.1499321 106.4797422  94.4118531  17.7787181
 106.0259749  93.5709441  17.8352372 105.8491389  95.0479930  18.1161962
 105.4230342  85.3410517  19.0087849 104.6853098  84.8287904  19.3398091
 105.6757115  84.9010899  18.1971126 104.9230361  96.2495028  18.7137000
 105.2153336  96.8100085  17.9949365 105.4328982  96.5423589  19.4690159
 105.5241969  78.1186769  19.6029618 105.8300846  77.2584133  19.3155533
 106.2494574  78.7104390  19.4028612  91.8166325  88.5217456  17.9911216
  91.6190725  87.9286817  17.2662283  91.2612989  88.2169666  18.7087155
  99.7963049  88.4140562  20.1105809  99.8511658  87.4614399  20.0348286
  98.9854251  88.5700001  20.5947108 100.9454242  92.3420685  11.3484092
 100.5073672  91.6256544  10.8889730 101.6864683  92.5696800  10.7869184
  97.7355408  87.0317622  17.8696188  96.9223274  87.3311793  18.2761380
  98.2314403  86.6373311  18.5870670  99.8863986  97.0275379  19.8030453
  99.8440165  97.2536225  18.8738985 100.8026685  96.7938754  19.9516254
 103.3329620  87.4959447  26.7011082 103.6879008  87.7230920  27.5605548
 103.9801751  87.8277823  26.0788337 109.0627357  90.6177882  17.4060411
 108.9245256  90.8079478  16.4781600 108.7063576  91.3797265  17.8628462
  97.2269483  84.6035978  23.4857423  97.8668863  84.4624737  22.7880386
  96.3947014  84.3170491  23.1096025 109.0896737  92.6854409  22.4171683
 109.5233243  92.5929699  23.2654737 109.8028317  92.6611910  21.7791699
  98.0029787  93.9038408  19.5992416  98.7970386  93.4088728  19.3974990
  97.2921480  93.3756271  19.2360121 102.8224632  96.2856504  23.9504783
 102.8761654  96.8547440  24.7182499 101.9539413  96.4558389  23.5858820
  94.3112551  88.0481490  15.6752168  93.3810139  87.9865945  15.8922130
  94.4070023  87.5257443  14.8788809  94.2298100  84.5736303  18.2630410
  94.4904917  85.4881636  18.1539570  95.0515272  84.1060745  18.4127023
  95.7023025  85.9874060  25.4329234  96.3746078  85.7791422  24.7841883
  94.8752812  85.7896146  24.9934467 109.9512286  92.7278110  24.9504568
 110.1448176  93.6323921  25.1963843 109.8512904  92.2685529  25.7843153
 101.6048597  82.6136001  27.4494895 100.9576512  83.3125950  27.3559372
 102.3749612  83.0472145  27.8171143 105.0127395  92.8784853  30.5245449
 104.8612901  92.6495405  29.6075532 105.0032074  93.8355454  30.5376794
 101.7812731  90.4516766  25.5091715 102.7104791  90.6027925  25.3360682
 101.3603761  90.5400786  24.6540362 100.5801063  94.4767430  23.2790253
 100.4412149  94.1086214  24.1516191  99.7915659  94.9915069  23.1074210
 101.1749215  99.5776527  14.6215789 101.3500971  99.1064570  15.4361412
 100.4882003 100.2042293  14.8497050 102.1306278  93.8549033  20.6679090
 101.7956111  93.8149803  21.5636740 101.6310224  93.1893749  20.1949501
  96.1050522  89.2616663  26.1931672  95.9670320  88.5296902  26.7943211
  97.0155446  89.1725563  25.9115859 105.0665470  91.2005067  10.9416150
 104.4494641  90.4751895  10.8449203 104.5981958  91.9614427  10.5983224
  98.7332823  88.9736622  25.6815351  99.4432441  88.3329814  25.6401970
  98.6902131  89.2249517  26.6041532 106.7219602  95.9103975  28.6021930
 106.6632148  95.2263196  27.9352513 107.1239120  96.6522965  28.1502556
  97.4461757  85.9601840  27.5010991  96.9099114  85.5092578  28.1532587
  96.8578465  86.0947749  26.7581455  95.7410300 102.7265889  21.3955649
  95.9806899 103.3584413  22.0734668  94.8979497 102.3753929  21.6821009
  96.8564016  85.4190491  10.0637454  95.9793482  85.2979292   9.6999701
  97.3321769  84.6276570   9.8116343 106.7237009  93.8743559  26.8335910
 105.8363788  93.5369481  26.9562309 107.2935560  93.1426591  27.0704675
  88.3766156  90.2067651  20.1578961  89.0637196  89.8929381  19.5699977
  88.2214285  91.1109016  19.8846213  93.1800878  85.0957848  24.5863985
  93.0959067  84.4883517  23.8514395  92.3583585  85.5866866  24.5873482
 100.2538162  98.5345012  23.7997153 100.1808334  99.3399983  24.3116458
  99.8115555  98.7336978  22.9745175 100.0427942  97.7716782  17.3099975
  99.2595464  98.3138462  17.4038199 100.7420687  98.2890761  17.7094216
 103.3524592  83.5811411  19.9534180 103.8493292  82.8281374  19.6335250
 102.5811574  83.6175728  19.3877390 111.2054349  89.2851777  21.5952472
 111.1944226  90.1676492  21.2246405 110.3371729  88.9323328  21.4007009
 102.7136846  98.4331846  25.9555312 103.4264818  99.0679311  25.8831213
 102.2226874  98.5295712  25.1395314 104.4354373  92.3383098  17.5272604
 103.5010651  92.4584561  17.3577308 104.6131041  91.4355565  17.2632613
  99.9359561  85.7228794  19.6805865  99.5657348  85.1699835  20.3686770
 100.4318653  85.1186928  19.1280865 107.8226924  88.1800418  18.0622638
 108.2887376  89.0128409  17.9882940 108.2734425  87.7145399  18.7667896
  97.7648759  96.1826289  26.7760883  98.4658219  96.8162772  26.9290277
  97.2943874  96.5241021  26.0156522 105.8903155  94.5244239  15.0608790
 106.1662999  94.4100834  15.9702664 105.0207654  94.1261724  15.0220963
 105.7943587  80.5481005  22.1013539 104.8806667  80.7785232  22.2695746
 106.2236688  80.6319449  22.9527571 105.5650045  88.7370897  24.6013433
 104.9121496  88.9846804  23.9465886 105.9430425  87.9235035  24.2675910
 102.5257219  98.7730590  18.7041603 102.7079614  97.9552246  19.1669356
 103.3490205  98.9898282  18.2666493 102.8599385  97.6998775  15.9656652
 103.3887151  97.1891230  15.3526814 103.1227604  97.3841305  16.8302185
 101.6137618  89.4790708  31.0879470 100.9378255  89.3784837  31.7581845
 102.4365252  89.3229921  31.5515467  93.3616477  95.7162644  23.7091985
  93.9469914  94.9706332  23.8419890  93.1641316  96.0266601  24.5928649
  96.2155133  98.7513892  18.7254428  95.5465508  99.2360019  18.2418468
  96.0768002  98.9983112  19.6397806  87.9534132  88.2868244  22.4296429
  87.9918232  87.7531835  23.2233547  87.4474425  87.7603450  21.8107406
 100.3560401 100.7857635  25.3237086 100.9078709 100.9489257  26.0886171
 100.6966595 101.3762073  24.6517111  95.3324894  83.1332785  25.9258971
  95.3966221  83.9947616  25.5136369  95.2692015  82.5206787  25.1931329
  94.8077167  85.2055918  29.5732005  95.4349206  84.8232995  30.1869529
  93.9505086  84.9870119  29.9387698 105.2071276  95.6118893  31.1785741
 105.7511179  96.2248851  30.6840695 104.6258120  96.1698471  31.6952754
  91.5842710  87.0132347  15.5050360  91.8796151  86.1043025  15.4517414
  90.6830745  86.9920086  15.1831362 103.4928788  98.7339611  22.3100768
 103.3679928  97.9329351  21.8011714 104.1507880  99.2285804  21.8214738
  95.1136957  85.0888343  21.4877909  94.3923542  85.7024311  21.3485382
  95.9030212  85.6246108  21.4094555 105.5563697  96.5348631  23.9380318
 104.6094032  96.4153982  23.8658645 105.9046470  95.6471129  24.0206580
  97.9163270  82.4242770  27.7618560  98.4397672  82.6705066  28.5244870
  97.6975603  83.2562805  27.3421698  93.3130551  84.6946444  15.6289685
  92.9843257  83.8143823  15.4464791  93.6669922  84.6394113  16.5166074
 102.5610130  96.3301347  20.1384671 102.4135093  95.4018054  20.3192241
 103.3863624  96.3521438  19.6541746  96.4272374  84.9819414  15.9965163
  96.7668447  85.5105335  15.2743771  96.8744495  85.3199820  16.7723729
 106.1644252  97.1529906  21.2249543 107.0890799  96.9472767  21.0873995
 105.9959555  96.9046307  22.1338885  99.1215815  83.3656465  25.4468231
  98.7812636  82.5664278  25.8488911  98.4154822  83.6658176  24.8745064
  99.7732287  80.4505777  23.8995554 100.5958356  79.9766255  23.7774444
 100.0170351  81.2296261  24.3994240  98.4140522  83.4794036  14.1958456
  99.1348884  83.8575288  13.6922172  97.7905826  84.1982913  14.2993434
 102.5571644  84.1839185  15.1316788 102.7735259  85.0663823  14.8305616
 102.0765712  83.7925398  14.4022430  97.2970866  87.1424898  21.7087533
  97.1515447  87.4565201  22.6011814  96.8196069  87.7609798  21.1558431
  99.1567249  84.1327446  21.7568422  99.1428817  83.2368539  21.4200720
  99.8739677  84.1398110  22.3906708 101.0093379  84.5664786  23.8021550
 100.7511157  85.4881857  23.8005880 100.4778420  84.1695221  24.4922014
 105.9539568  97.6715573  16.5811635 106.1276446  97.1061996  15.8285487
 106.4468459  98.4716468  16.3991125  91.7716528  89.6830242  24.6475194
  91.2269996  90.4590050  24.7795468  92.6495878  90.0301047  24.4894315
  98.5604145  83.0141826  17.0255992  98.6820056  82.0858472  17.2246880
  98.2706187  83.0280512  16.1134308 101.4295335  80.6996737  20.1622712
 101.4517032  80.7636070  19.2074692 101.8463394  79.8601245  20.3563218
 111.8078959  90.4351996  18.2001935 112.2510105  89.6859321  17.8021058
 110.9305470  90.4262133  17.8175667 106.9414741  96.9882338  13.6808533
 107.6365645  97.6089030  13.8995848 107.2837891  96.1377689  13.9560911
  92.5582550  88.8100139  27.5405351  91.8164286  88.9582774  28.1269981
  92.2375294  89.0708404  26.6772100 108.8406164  94.4382043  15.2095864
 109.3657488  94.7769316  14.4845184 108.7528516  93.5029058  15.0258999
 100.5026213  98.3516117  27.3385741 100.8113339  98.1065264  28.2108440
 101.3001695  98.5562755  26.8504611 100.5246825 100.5054026  19.5691117
 100.0851815 100.0130405  20.2623974 101.2754942  99.9626994  19.3283192
  93.0039164  96.6965567  19.5715745  93.8297183  96.3969339  19.1914389
  92.6533216  95.9273190  20.0205534  97.9720697  96.0492036  21.6413419
  97.3500706  95.3862741  21.3415647  98.6425564  96.0753167  20.9587067
  91.2047769  94.6151894  20.5304679  90.3679677  94.1874068  20.3488680
  91.1771414  94.8084337  21.4675470  98.0445224  84.5273824  31.2345925
  98.0933380  85.4035946  30.8523694  98.5867738  83.9851217  30.6617568
 108.5300070  95.0714947  30.5147062 107.7395614  95.0539086  29.9751561
 108.2933424  95.6103240  31.2696098 108.6497945  91.9207413  27.8279790
 108.6995950  91.7557421  28.7695313 108.5411868  91.0534672  27.4377671
  97.5334204  94.5995959  15.1171879  97.6822324  95.2831423  14.4638552
  98.3400647  94.5801049  15.6321335 105.9401707  87.9038341  29.1439097
 106.8411570  87.7644806  28.8523095 106.0149682  88.0692796  30.0837275
 100.2744513  85.2805196  27.9892283  99.4047822  85.5738762  27.7174872
 100.5103993  85.8645641  28.7099547 110.1516142  94.3404355  28.0721812
 109.8600950  94.7034335  28.9085273 109.5388273  93.6271363  27.8935144
 111.3511824  91.9057234  20.5924382 112.1858715  92.3447039  20.7561943
 111.4870953  91.4295888  19.7732628 108.4003330  89.4636969  26.5401870
 108.8757452  89.6564616  25.7320721 107.4768895  89.5196155  26.2945254
  95.2886837  90.6261136  16.1232948  95.0432879  89.7223466  16.3213158
  95.4582751  90.6278287  15.1812426 102.9783546  81.4984813  25.5057704
 103.4965490  82.2345840  25.1804192 102.6238679  81.8048806  26.3404463
  94.5582484  86.3589494  13.6219110  93.8651729  86.4333849  12.9659146
  94.3134236  85.5949838  14.1440627 103.2296141  77.9185095  21.0258600
 103.5097894  77.2508284  21.6519027 104.0146748  78.1114191  20.5133264
 101.0329609  97.0944089  12.5883627 100.4603576  97.7134276  12.1354099
 101.6062403  97.6443451  13.1223549 107.1004999  86.3402729  24.7730176
 108.0522422  86.4400827  24.7942400 106.9308449  85.5480998  25.2828260
 105.1219378  83.4258313  24.9589577 104.5269311  83.7063325  24.2636065
 104.8369075  83.9152214  25.7306318 104.2526869  97.3781239  13.7192209
 105.1857542  97.3126801  13.9225085 104.1650082  98.2137506  13.2606742
 109.5793077  89.5608849  23.8872475 109.5469397  88.6224850  24.0732159
 110.1893700  89.6392886  23.1538300 101.4176408  88.4304902   9.9299679
 102.3635512  88.3011110   9.9988097 101.0390653  87.6919564  10.4069107
 109.7287565  86.3519893  23.9330758 109.2126614  85.5678349  23.7460687
 110.6127514  86.0238609  24.0977278 107.3898292  80.0960908  19.8926571
 107.1923113  79.7875996  20.7769903 107.9997998  80.8222547  20.0224501
 115.3969627  90.6224856  23.0278512 116.1273015  90.3610144  23.5886215
 114.7876572  89.8853578  23.0680580 113.4784924  88.7632718  23.6252963
 112.7518087  88.6288683  23.0169455 113.0632211  89.0709547  24.4309681
 101.3015100  92.4822648  31.3900336 102.2218110  92.6601247  31.5840383
 101.2664683  91.5378694  31.2380036  99.6019325  86.3554878   9.8654564
  98.6950780  86.0587991   9.9417278  99.8795306  86.0584697   8.9988851
  90.5197265  87.6761242  20.3153611  90.2000050  86.8226550  20.0227985
  89.9730693  87.8909820  21.0711578  94.2977173  90.3923683  24.0323117
  94.5163183  91.3240791  24.0511151  94.7102947  90.0331657  24.8177921
 101.2181391  80.8991768  16.0198806 100.4082119  80.5538853  16.3954052
 101.9065807  80.5899312  16.6086417 103.1471939  79.9769815  17.6423102
 103.7002977  80.3965268  18.3013126 103.3842025  79.0505563  17.6846058
  99.1705038  85.9656889  33.4225866  99.0701765  86.9151246  33.3537957
  98.9526580  85.6375127  32.5501936  98.3718109  83.2141814  10.0066544
  99.2337273  83.5396712  10.2662361  98.5568454  82.4273310   9.4939609
  90.3885525  91.2964153  22.2846732  89.6948997  90.8818106  21.7716687
  91.1358516  91.3384690  21.6880151 106.5250746  82.0870340  17.1501767
 105.9449415  82.7455144  16.7679819 106.2586679  81.2647685  16.7389184
 104.9754312  81.4875398  19.3523087 105.4754091  81.5991932  18.5437406
 105.6189920  81.1836451  19.9923895  99.0336308  89.3954027  32.2390928
  98.5503390  90.1954388  32.4454817  99.1197247  89.4061972  31.2858372
  92.3022268  91.2282407  20.1612747  92.2792956  91.3270094  19.2094630
  92.6122904  92.0747558  20.4829913  94.9609646  93.2858562  24.2759362
  95.9152899  93.2542504  24.2089293  94.7622169  92.8249186  25.0909588
  95.5509028  91.8559678  26.8430159  96.3701917  92.3503757  26.8664997
  95.8245835  90.9391646  26.8147727 105.3075624  84.2470430  16.2058115
 104.4201479  84.5320081  15.9878310 105.7229613  84.0864194  15.3585392
 108.6590160  84.2716951  19.9212454 109.4350550  84.7613404  20.1937071
 107.9338294  84.6975006  20.3784324 111.0962719  84.9844571  20.9786395
 111.6907209  84.7440307  20.2679703 111.1689302  84.2651701  21.6059931
  93.3159874  98.8278182  21.2929560  93.1814342  98.0678583  20.7267558
  92.8991937  99.5519081  20.8258349 104.4518837  94.0115105  10.3006135
 105.1554688  94.2165108  10.9163791 103.7281486  94.5791867  10.5655218
 105.2816648  89.7624966  16.4208405 105.2251849  90.2193518  15.5816038
 105.8344990  89.0015651  16.2431248 109.0921454  85.5514698  17.2458525
 108.8358388  85.1511334  18.0766732 108.4674322  86.2658492  17.1208664
 113.4033791  88.2910772  19.7529816 112.8433349  88.3603961  20.5261378
 112.7977295  88.1151756  19.0329312  96.4729000  99.7247499  21.5048002
  96.3561384 100.6692931  21.4026693  95.6521447  99.4221060  21.8933801
 106.3605535  94.4497634  12.3504595 107.1951139  94.0178833  12.1682070
 106.1989878  94.2779648  13.2781489 106.0151427  90.9529748  13.7160934
 105.9600231  90.7874019  12.7749378 105.3897482  91.6605781  13.8723124
  90.8043942  86.1897812  27.5422356  91.4502806  85.6796766  28.0309582
  90.5961093  86.9266494  28.1165782 103.3297334  93.2578660  33.0414497
 104.1988494  93.4319312  32.6801132 102.8504086  94.0773076  32.9190226
  99.3247552  80.4537857  13.2946253  99.3126222  81.3979697  13.4514524
 100.2170974  80.2708002  13.0005714  97.4983514 100.3775761  24.7203931
  98.4010761 100.4099371  25.0370426  97.2720884  99.4476211  24.7350267
  99.2537116  99.1306747  21.3814009  98.3032747  99.1308609  21.2678382
  99.5569603  98.3839482  20.8650044 103.1399672  77.0480633  17.5492189
 102.3732068  76.4939120  17.6948872 103.5510377  77.1202502  18.4106341
  95.1441433  83.3365429  31.6397371  96.0072895  82.9802234  31.8500695
  94.5706844  82.9979324  32.3272775 114.9889810 104.9667285  22.4459772
 115.6268220 104.8474033  21.7423112 114.8710653 105.9148129  22.5047724
 111.7979516 104.9194714  22.3821296 111.4598028 104.8035778  21.4941831
 112.6669284 104.5185879  22.3622303 107.6566332 106.7730190  18.3718187
 107.0931197 106.6820127  17.6034475 107.5418727 105.9530094  18.8520680
 112.2799299 106.0729565  28.3407502 112.2687940 105.6782364  27.4688006
 112.4419939 105.3395638  28.9341273 105.2030764 108.2681382  21.2102408
 105.9952056 107.9272206  20.7948707 105.4427414 108.3776357  22.1304561
 109.0006560 108.8566677  27.2886686 108.7096426 109.7612308  27.1733352
 109.6363545 108.8983205  28.0030755 109.9262767 106.2343526  23.8788046
 110.5226339 106.0099548  23.1645009 109.9837739 105.4928271  24.4813493
 114.5431078 102.6918739  19.5212980 115.3294168 102.2738162  19.1703397
 114.8069783 103.5964832  19.6894628 119.9439505 102.6293973  20.4245958
 120.6764677 102.0593189  20.6583788 119.1878861 102.2415573  20.8652464
 111.5615625 105.0521214  17.6209301 111.1973832 104.5251835  18.3322222
 112.4182741 104.6619683  17.4475786 117.4664926  96.3415547  24.8840567
 117.1348251  97.2110958  24.6601782 116.8710539  96.0251831  25.5634597
 113.9596445 108.5428093  24.2836480 113.6597168 109.4453131  24.1752287
 113.6147505 108.2760276  25.1357633 107.4108927 104.9941889  20.3173184
 106.4859423 104.8618104  20.5250876 107.6593340 105.7736109  20.8143126
 117.3593589 101.0610633  21.9633917 116.4510467 100.9926041  21.6692678
 117.3081185 101.5382578  22.7915742 104.7717738 104.6375163  21.1516973
 104.9010119 104.8909642  22.0656385 104.0915189 105.2302871  20.8321628
 111.4334455 102.4800278  29.9068814 110.6567789 103.0394199  29.8971679
 112.0725018 102.9657061  30.4283684 119.2255236  99.2627071  23.7411791
 118.5829616  99.5559604  23.0951585 118.7210164  99.1479992  24.5464988
 109.6880827 105.2885732  29.4686781 110.4295512 105.8270776  29.1921605
 108.9817813 105.9152021  29.6258333 115.1636167 107.4314872  28.0658943
 115.5719523 106.9897283  27.3213575 114.4413428 106.8567500  28.3193136
 111.5167237 102.3687479  25.4392500 112.3628432 102.7926893  25.5827149
 111.4565875 101.7121103  26.1331063 115.4864982 107.9916063  21.8211232
 114.8573844 108.1561777  21.1187299 115.0990644 108.4057672  22.5922196
 114.6666682 100.0291847  27.0973673 114.4227614 100.7833908  26.5607949
 114.9426613 100.4077195  27.9320920 116.6205145 106.5730460  25.7750939
 116.8322040 107.2162220  25.0985320 116.5734893 105.7392776  25.3072869
 114.2231374  99.1848280  22.6787511 113.3615853  99.4829534  22.9704249
 114.2493809  99.4018679  21.7468544 107.9317024 107.2761952  22.0241080
 108.5018382 107.7049221  21.3858564 108.5225136 106.9944537  22.7225266
 109.9761829 103.8513623  15.8950882 110.6785873 104.3034667  16.3624808
 109.6442458 103.2097442  16.5230775 108.4242191 102.4425380  30.2702091
 107.7940852 103.1241661  30.5037488 108.3178279 102.3308462  29.3255229
 103.7187163 102.1097176  21.1968015 102.9286217 102.3654705  20.7208126
 104.2098411 102.9245514  21.3020056 117.7350973 109.4502415  23.9473296
 118.5568417 109.0482602  23.6655978 117.7313376 109.3470649  24.8989412
 105.6701909 102.4741755  18.1551492 104.8733072 102.5860449  18.6734988
 105.4427501 102.8128407  17.2892383 111.5007576 108.9986458  26.1034007
 111.5652009 109.4606866  26.9392179 110.7918500 108.3683823  26.2316317
 102.0024866 102.3627666  23.6283006 102.2532905 103.2474676  23.8940582
 102.5384415 102.1832268  22.8558098 107.7022934  96.7446146  32.6327342
 107.3089879  96.1912344  33.3074987 108.5189074  97.0556724  33.0233860
 104.6684991 108.1830004  16.5440912 105.1809512 108.9773254  16.6946477
 105.3207704 107.4856294  16.4774514 110.6190895  98.1604025  30.2247599
 111.3600608  98.7611178  30.1452061 110.8508818  97.4181663  29.6665641
 105.7632233 103.3460392  28.5025829 105.6485748 102.4445649  28.8032927
 104.9076750 103.5924089  28.1510645 112.8424070 111.2878132  30.1013329
 112.3987925 110.5014511  29.7834234 113.5041284 111.4757283  29.4357220
 107.6011192 112.8173934  24.6274008 108.1518617 112.6890997  23.8551002
 106.7622668 113.1168823  24.2768900 114.9405309 111.5680932  28.1294730
 114.9223784 112.3889813  27.6375000 115.8625229 111.4435008  28.3544872
 111.3978363 109.0825062  28.9718239 111.9306699 108.3213350  28.7417547
 110.8692444 108.7898714  29.7142393 114.5648058  94.1885128  24.5011881
 114.2212327  95.0786769  24.4250991 114.9327020  93.9986785  23.6381466
 102.6333908 106.5118658  17.3200483 103.4709130 106.9215667  17.1034190
 102.8112176 105.5718100  17.2900677 112.1145451  99.0243440  18.0669554
 111.2587048  98.6350290  17.8875193 112.5272403  99.1035401  17.2069340
 113.6444598  96.5589783  22.4661114 113.1409394  96.5219918  21.6528919
 113.9375205  97.4682526  22.5257770 109.8887484  96.6428513  21.4727295
 110.7540481  96.4471321  21.1133185 109.9564993  96.4138864  22.3996652
 117.7423921 106.4060075  21.6004097 117.0847596 107.0959336  21.6884226
 118.5464321 106.7956507  21.9438083 107.4949803  98.8730721  18.8443662
 108.0693555  98.6505902  18.1116855 108.0820785  98.9419415  19.5972264
 116.5529380 104.7604448  19.6508039 117.0661262 105.3934439  20.1529749
 117.2030604 104.1605643  19.2851399 109.7972471  95.7471970  17.5718732
 109.1436883  95.4320987  16.9475347 109.7552945  95.1247710  18.2978555
 113.0310211 102.2353903  21.8966379 112.1132772 102.4568850  21.7388067
 113.4470355 102.3100214  21.0378087 116.2624096 100.6702435  19.0087849
 115.5246853 100.1579821  19.3398091 116.5150870 100.2302817  18.1971126
 116.3635723  93.4478687  19.6029618 116.6694600  92.5876050  19.3155533
 117.0888328  94.0396307  19.4028612 102.6560079 103.8509374  17.9911216
 102.4584479 103.2578734  17.2662283 102.1006743 103.5461584  18.7087155
 110.6356803 103.7432480  20.1105809 110.6905413 102.7906316  20.0348286
 109.8248005 103.8991919  20.5947108 108.5749163 102.3609540  17.8696188
 107.7617029 102.6603710  18.2761380 109.0708157 101.9665229  18.5870670
 114.1723375 102.8251364  26.7011082 114.5272762 103.0522837  27.5605548
 114.8195506 103.1569741  26.0788337 108.0663238  99.9327895  23.4857423
 108.7062617  99.7916654  22.7880386 107.2340768  99.6462409  23.1096025
 108.8423542 109.2330326  19.5992416 109.6364140 108.7380646  19.3974990
 108.1315234 108.7048189  19.2360121 113.6618386 111.6148421  23.9504783
 113.7155408 112.1839358  24.7182499 112.7933167 111.7850306  23.5858820
 105.1506305 103.3773407  15.6752168 104.2203893 103.3157863  15.8922130
 105.2463777 102.8549360  14.8788809 105.0691854  99.9028220  18.2630410
 105.3298671 100.8173554  18.1539570 105.8909026  99.4352663  18.4127023
 106.5416779 101.3165977  25.4329234 107.2139833 101.1083340  24.7841883
 105.7146566 101.1188063  24.9934467 120.7906041 108.0570028  24.9504568
 120.9841931 108.9615838  25.1963843 120.6906659 107.5977447  25.7843153
 112.4442351  97.9427918  27.4494895 111.7970267  98.6417868  27.3559372
 113.2143367  98.3764062  27.8171143 115.8521149 108.2076771  30.5245449
 115.7006656 107.9787322  29.6075532 115.8425829 109.1647372  30.5376794
 112.6206486 105.7808683  25.5091715 113.5498546 105.9319843  25.3360682
 112.1997516 105.8692704  24.6540362 111.4194818 109.8059348  23.2790253
 111.2805903 109.4378132  24.1516191 110.6309414 110.3206987  23.1074210
 112.9700033 109.1840950  20.6679090 112.6349865 109.1441720  21.5636740
 112.4703978 108.5185666  20.1949501 106.9444277 104.5908580  26.1931672
 106.8064075 103.8588819  26.7943211 107.8549200 104.5017481  25.9115859
 109.5726577 104.3028540  25.6815351 110.2826196 103.6621732  25.6401970
 109.5295886 104.5541435  26.6041532 117.5613356 111.2395893  28.6021930
 117.5025902 110.5555113  27.9352513 117.9632874 111.9814883  28.1502556
 108.2855511 101.2893758  27.5010991 107.7492868 100.8384496  28.1532587
 107.6972220 101.4239667  26.7581455 117.5630763 109.2035477  26.8335910
 116.6757542 108.8661399  26.9562309 118.1329314 108.4718508  27.0704675
  99.2159910 105.5359569  20.1578961  99.9030950 105.2221299  19.5699977
  99.0608039 106.4400933  19.8846213 104.0194633 100.4249765  24.5863985
 103.9352821  99.8175435  23.8514395 103.1977339 100.9158784  24.5873482
 111.0931917 113.8636929  23.7997153 111.0202088 114.6691901  24.3116458
 110.6509310 114.0628895  22.9745175 114.1918346  98.9103329  19.9534180
 114.6887046  98.1573291  19.6335250 113.4205328  98.9467646  19.3877390
 113.5530600 113.7623763  25.9555312 114.2658572 114.3971228  25.8831213
 113.0620629 113.8587629  25.1395314 110.7753315 101.0520712  19.6805865
 110.4051103 100.4991752  20.3686770 111.2712408 100.4478845  19.1280865
 108.6042514 111.5118207  26.7760883 109.3051973 112.1454690  26.9290277
 108.1337629 111.8532938  26.0156522 116.6337341  95.8772922  22.1013539
 115.7200421  96.1077149  22.2695746 117.0630443  95.9611366  22.9527571
 116.4043800 104.0662814  24.6013433 115.7515250 104.3138722  23.9465886
 116.7824180 103.2526953  24.2675910 112.4531373 104.8082625  31.0879470
 111.7772010 104.7076755  31.7581845 113.2759007 104.6521839  31.5515467
 104.2010232 111.0454562  23.7091985 104.7863669 110.2998250  23.8419890
 104.0035070 111.3558519  24.5928649  98.7927887 103.6160162  22.4296429
  98.8311986 103.0823753  23.2233547  98.2868179 103.0895368  21.8107406
 111.1954156 116.1149553  25.3237086 111.7472464 116.2781174  26.0886171
 111.5360349 116.7053991  24.6517111 106.1718649  98.4624703  25.9258971
 106.2359975  99.3239534  25.5136369 106.1085769  97.8498704  25.1931329
 105.6470921 100.5347835  29.5732005 106.2742960 100.1524913  30.1869529
 104.7898840 100.3162037  29.9387698 116.0465030 110.9410810  31.1785741
 116.5904934 111.5540769  30.6840695 115.4651875 111.4990389  31.6952754
 102.4236464 102.3424264  15.5050360 102.7189905 101.4334943  15.4517414
 101.5224500 102.3212004  15.1831362 105.9530711 100.4180261  21.4877909
 105.2317297 101.0316229  21.3485382 106.7423967 100.9538026  21.4094555
 116.3957451 111.8640548  23.9380318 115.4487787 111.7445900  23.8658645
 116.7440224 110.9763047  24.0206580 108.7557025  97.7534687  27.7618560
 109.2791427  97.9996984  28.5244870 108.5369358  98.5854722  27.3421698
 104.1524306 100.0238362  15.6289685 103.8237012  99.1435741  15.4464791
 104.5063676  99.9686031  16.5166074 107.2666129 100.3111332  15.9965163
 107.6062201 100.8397253  15.2743771 107.7138249 100.6491738  16.7723729
 109.9609570  98.6948383  25.4468231 109.6206390  97.8956196  25.8488911
 109.2548576  98.9950093  24.8745064 110.6126042  95.7797695  23.8995554
 111.4352111  95.3058173  23.7774444 110.8564105  96.5588179  24.3994240
 109.2534276  98.8085953  14.1958456 109.9742639  99.1867206  13.6922172
 108.6299580  99.5274830  14.2993434 108.1364620 102.4716816  21.7087533
 107.9909201 102.7857119  22.6011814 107.6589824 103.0901716  21.1558431
 109.9961003  99.4619364  21.7568422 109.9822572  98.5660457  21.4200720
 110.7133431  99.4690027  22.3906708 111.8487134  99.8956704  23.8021550
 111.5904912 100.8173774  23.8005880 111.3172174  99.4987138  24.4922014
 102.6110282 105.0122160  24.6475194 102.0663751 105.7881968  24.7795468
 103.4889632 105.3592964  24.4894315 109.3997899  98.3433744  17.0255992
 109.5213810  97.4150390  17.2246880 109.1099942  98.3572430  16.1134308
 112.2689090  96.0288654  20.1622712 112.2910786  96.0927987  19.2074692
 112.6857149  95.1893163  20.3563218 103.3976304 104.1392056  27.5405351
 102.6558040 104.2874692  28.1269981 103.0769049 104.4000322  26.6772100
 111.3419967 113.6808034  27.3385741 111.6507093 113.4357181  28.2108440
 112.1395449 113.8854673  26.8504611 103.8432918 112.0257485  19.5715745
 104.6690938 111.7261257  19.1914389 103.4926970 111.2565107  20.0205534
 108.8114451 111.3783953  21.6413419 108.1894460 110.7154658  21.3415647
 109.4819318 111.4045085  20.9587067 102.0441523 109.9443811  20.5304679
 101.2073431 109.5165986  20.3488680 102.0165169 110.1376255  21.4675470
 108.8838979  99.8565741  31.2345925 108.9327134 100.7327864  30.8523694
 109.4261493  99.3143134  30.6617568 119.3693824 110.4006864  30.5147062
 118.5789368 110.3831003  29.9751561 119.1327179 110.9395158  31.2696098
 119.4891699 107.2499331  27.8279790 119.5389704 107.0849338  28.7695313
 119.3805623 106.3826590  27.4377671 116.7795462 103.2330259  29.1439097
 117.6805325 103.0936724  28.8523095 116.8543436 103.3984714  30.0837275
 111.1138267 100.6097114  27.9892283 110.2441577 100.9030680  27.7174872
 111.3497747 101.1937559  28.7099547 120.9909896 109.6696272  28.0721812
 120.6994705 110.0326253  28.9085273 120.3782028 108.9563281  27.8935144
 119.2397084 104.7928887  26.5401870 119.7151206 104.9856533  25.7320721
 118.3162650 104.8488073  26.2945254 113.8177301  96.8276731  25.5057704
 114.3359245  97.5637757  25.1804192 113.4632434  97.1340724  26.3404463
 105.3976239 101.6881412  13.6219110 104.7045484 101.7625767  12.9659146
 105.1527991 100.9241755  14.1440627 114.0689895  93.2477013  21.0258600
 114.3491649  92.5800202  21.6519027 114.8540502  93.4406109  20.5133264
 117.9398753 101.6694647  24.7730176 118.8916176 101.7692745  24.7942400
 117.7702204 100.8772916  25.2828260 115.9613133  98.7550230  24.9589577
 115.3663065  99.0355243  24.2636065 115.6762830  99.2444131  25.7306318
 120.4186831 104.8900767  23.8872475 120.3863151 103.9516767  24.0732159
 121.0287455 104.9684803  23.1538300 120.5681320 101.6811810  23.9330758
 120.0520368 100.8970267  23.7460687 121.4521268 101.3530527  24.0977278
 118.2292047  95.4252826  19.8926571 118.0316868  95.1167914  20.7769903
 118.8391752  96.1514465  20.0224501 124.3178678 104.0924636  23.6252963
 123.5911842 103.9580601  23.0169455 123.9025965 104.4001465  24.4309681
 112.1408855 107.8114566  31.3900336 113.0611864 107.9893165  31.5840383
 112.1058438 106.8670611  31.2380036 101.3591020 103.0053160  20.3153611
 101.0393804 102.1518468  20.0227985 100.8124448 103.2201738  21.0711578
 105.1370927 105.7215601  24.0323117 105.3556937 106.6532708  24.0511151
 105.5496701 105.3623575  24.8177921 112.0575145  96.2283686  16.0198806
 111.2475873  95.8830771  16.3954052 112.7459562  95.9191230  16.6086417
 113.9865693  95.3061733  17.6423102 114.5396732  95.7257186  18.3013126
 114.2235780  94.3797481  17.6846058 110.0098793 101.2948806  33.4225866
 109.9095519 102.2443163  33.3537957 109.7920335 100.9667045  32.5501936
 101.2279280 106.6256071  22.2846732 100.5342751 106.2110024  21.7716687
 101.9752271 106.6676608  21.6880151 117.3644500  97.4162258  17.1501767
 116.7843169  98.0747062  16.7679819 117.0980433  96.5939602  16.7389184
 115.8148067  96.8167316  19.3523087 116.3147845  96.9283850  18.5437406
 116.4583675  96.5128368  19.9923895 109.8730063 104.7245945  32.2390928
 109.3897144 105.5246305  32.4454817 109.9591002 104.7353890  31.2858372
 103.1416022 106.5574325  20.1612747 103.1186710 106.6562012  19.2094630
 103.4516659 107.4039476  20.4829913 105.8003400 108.6150480  24.2759362
 106.7546654 108.5834422  24.2089293 105.6015924 108.1541104  25.0909588
 106.3902782 107.1851596  26.8430159 107.2095671 107.6795675  26.8664997
 106.6639590 106.2683564  26.8147727 119.4983915  99.6008869  19.9212454
 120.2744305 100.0905322  20.1937071 118.7732049 100.0266923  20.3784324
 121.9356473 100.3136488  20.9786395 122.5300964 100.0732224  20.2679703
 122.0083057  99.5943619  21.6059931 104.1553629 114.1570099  21.2929560
 104.0208097 113.3970500  20.7267558 103.7385691 114.8810999  20.8258349
 107.3122755 115.0539416  21.5048002 107.1955139 115.9984849  21.4026693
 106.4915201 114.7512978  21.8933801 101.6437696 101.5189730  27.5422356
 102.2896560 101.0088684  28.0309582 101.4354848 102.2558411  28.1165782
 114.1691089 108.5870577  33.0414497 115.0382248 108.7611230  32.6801132
 113.6897840 109.4064994  32.9190226 110.1641307  95.7829774  13.2946253
 110.1519977  96.7271614  13.4514524 111.0564729  95.5999920  13.0005714
 108.3377269 115.7067678  24.7203931 109.2404516 115.7391288  25.0370426
 108.1114639 114.7768129  24.7350267 113.9793426  92.3772551  17.5492189
 113.2125822  91.8231038  17.6948872 114.3904131  92.4494420  18.4106341
 105.9835187  98.6657347  31.6397371 106.8466649  98.3094152  31.8500695
 105.4100598  98.3271242  32.3272775 122.2728209 117.8092196  29.9068814
 121.4961543 118.3686116  29.8971679 122.9118772 118.2948979  30.4283684
 119.2635945 117.7717298  30.2702091 118.6334606 118.4533578  30.5037488
 119.1572033 117.6600379  29.3255229 118.5416688 112.0738063  32.6327342
 118.1483634 111.5204262  33.3074987 119.3582829 112.3848642  33.0233860
 121.4584649 113.4895943  30.2247599 122.1994363 114.0903096  30.1452061
 121.6902572 112.7473580  29.6665641 116.6025987 118.6752310  28.5025829
 116.4879502 117.7737567  28.8032927 115.7470505 118.9216007  28.1510645
 123.2836106 113.2719836  27.4494895 122.6364021 113.9709786  27.3559372
 124.0537121 113.7055980  27.8171143 119.1249266 116.6185675  27.5010991
 118.5886623 116.1676414  28.1532587 118.5365974 116.7531584  26.7581455
 123.2925127 120.1374543  31.0879470 122.6165764 120.0368672  31.7581845
 124.1152761 119.9813757  31.5515467 117.0112403 113.7916620  25.9258971
 117.0753730 114.6531451  25.5136369 116.9479524 113.1790622  25.1931329
 116.4864676 115.8639753  29.5732005 117.1136715 115.4816830  30.1869529
 115.6292595 115.6453955  29.9387698 119.5950779 113.0826605  27.7618560
 120.1185181 113.3288902  28.5244870 119.3763112 113.9146640  27.3421698
 114.2370059 119.4683974  27.5405351 113.4951795 119.6166609  28.1269981
 113.9162803 119.7292240  26.6772100 119.7232733 115.1857659  31.2345925
 119.7720889 116.0619782  30.8523694 120.2655247 114.6435052  30.6617568
 121.9532022 115.9389031  27.9892283 121.0835331 116.2322597  27.7174872
 122.1891502 116.5229476  28.7099547 120.8492547 116.6240724  33.4225866
 120.7489274 117.5735081  33.3537957 120.6314089 116.2958963  32.5501936
 120.7123817 120.0537863  32.2390928 120.2290899 120.8538223  32.4454817
 120.7984756 120.0645808  31.2858372 112.4831451 116.8481647  27.5422356
 113.1290315 116.3380601  28.0309582 112.2748602 117.5850329  28.1165782
 116.8228942 113.9949264  31.6397371 117.6860403 113.6386069  31.8500695
 116.2494353 113.6563159  32.3272775  69.4849054  26.9772584  16.8258636
  69.0412908  26.1908963  16.5079540  70.1466267  27.1651735  16.1602527
  71.5830292  27.2575384  14.8540037  71.5648767  28.0784265  14.3620306
  72.5050212  27.1329459  15.0790178  68.0403346  24.7719514  15.6963545
  68.5731683  24.0107802  15.4662853  67.5117427  24.4793166  16.4387700
  72.4946133  23.8971222  17.2490755  72.3431639  23.6681774  16.3320839
  72.4850812  24.8541824  17.2622100  74.2038339  26.9290345  15.3267237
  74.1450886  26.2449565  14.6597820  74.6057858  27.6709335  14.8747863
  74.2055747  24.8929929  13.5581217  73.3182525  24.5555851  13.6807616
  74.7754298  24.1612960  13.7949982  70.1955584  29.4518215  12.6800619
  70.9083556  30.0865680  12.6076520  69.7045612  29.5482081  11.8640620
  69.0956356  20.4977077  17.8124777  68.4196993  20.3971207  18.4827152
  69.9183990  20.3416291  18.2760774  67.8379139  31.8044005  12.0482393
  68.3897447  31.9675626  12.8131478  68.1785332  32.3948443  11.3762418
  72.6890013  26.6305262  17.9031047  73.2329917  27.2435221  17.4086002
  72.1076858  27.1884841  18.4198060  67.9844950  29.3702486  14.0631047
  68.2932077  29.1251633  14.9353747  68.7820432  29.5749125  13.5749917
  76.0118808  26.0901316  17.2392369  75.2214351  26.0725455  16.6996868
  75.7752162  26.6289610  17.9941405  76.1316683  22.9393783  14.5525097
  76.1814688  22.7743790  15.4940620  76.0230606  22.0721042  14.1622978
  77.6334880  25.3590724  14.7967119  77.3419688  25.7220705  15.6330580
  77.0207011  24.6457733  14.6180451  68.7833838  23.5009018  18.1145643
  69.7036847  23.6787617  18.3085689  68.7483421  22.5565063  17.9625342
  70.8116072  24.2765029  19.7659804  71.6807232  24.4505681  19.4046439
  70.3322823  25.0959446  19.6435533  82.4708548  35.9853655   9.1705078
  83.1086958  35.8660402   8.4668418  82.3529391  36.9334499   9.2293031
  79.2798254  35.9381083   9.1066603  78.9416765  35.8222148   8.2187138
  80.1488022  35.5372248   9.0867609  79.7618037  37.0915935  15.0652809
  79.7506678  36.6968733  14.1933312  79.9238676  36.3582007  15.6586580
  72.6849502  39.2867751   7.9347714  73.4770793  38.9458576   7.5194014
  72.9246152  39.3962726   8.8549868  76.4825298  39.8753047  14.0131993
  76.1915164  40.7798678  13.8978659  77.1182282  39.9169574  14.7276062
  77.4081505  37.2529895  10.6033352  78.0045077  37.0285918   9.8890315
  77.4656476  36.5114641  11.2058800  82.0249816  33.7105109   6.2458286
  82.8112905  33.2924532   5.8948703  82.2888520  34.6151201   6.4139935
  87.4258243  33.6480342   7.1491265  88.1583415  33.0779559   7.3829094
  86.6697599  33.2601943   7.5897770  79.0434363  36.0707584   4.3454607
  78.6792570  35.5438205   5.0567529  79.9001479  35.6806053   4.1721093
  84.9483664  27.3601916  11.6085874  84.6166988  28.2297327  11.3847089
  84.3529277  27.0438200  12.2879904  81.4415183  39.5614462  11.0081786
  81.1415906  40.4639501  10.8997593  81.0966243  39.2946645  11.8602939
  74.8927665  36.0128259   7.0418491  73.9678161  35.8804473   7.2496182
  75.1412078  36.7922478   7.5388433  84.8412327  32.0797002   8.6879224
  83.9329204  32.0112411   8.3937985  84.7899923  32.5568947   9.5161049
  72.2536476  35.6561533   7.8762280  72.3828857  35.9096012   8.7901691
  71.5733927  36.2489241   7.5566935  76.4235963  46.3258783   3.9752754
  76.3459993  47.2766608   4.0541235  75.8197607  45.9804655   4.6327680
  78.9153193  33.4986648  16.6314121  78.1386527  34.0580568  16.6216985
  79.5543756  33.9843431  17.1528991  86.7073973  30.2813441  10.4657097
  86.0648354  30.5745974   9.8196892  86.2028902  30.1666361  11.2710294
  77.1699565  36.3072101  16.1932088  77.9114249  36.8457145  15.9166911
  76.4636551  36.9338390  16.3503640  82.6454905  38.4501242  14.7904249
  83.0538261  38.0083652  14.0458882  81.9232166  37.8753869  15.0438442
  78.9985975  33.3873849  12.1637806  79.8447170  33.8113262  12.3072455
  78.9384612  32.7307473  12.8576369  82.9683719  39.0102432   8.5456538
  82.3392582  39.1748147   7.8432606  82.5809381  39.4244042   9.3167502
  86.8472951  39.9456870   5.9000902  86.1623989  40.3255772   5.3497935
  86.9316801  40.5552197   6.6332850  82.1485420  31.0478217  13.8218980
  81.9046352  31.8020277  13.2853256  82.4245351  31.4263565  14.6566227
  84.1023883  37.5916829  12.4996246  84.3140778  38.2348589  11.8230627
  84.0553631  36.7579146  12.0318176  81.7050112  30.2034650   9.4032818
  80.8434591  30.5015904   9.6949555  81.7312546  30.4205049   8.4713850
  78.5211681  38.7476841   5.8106623  78.9850027  39.0264543   5.0211246
  78.2568479  37.8460285   5.6279714  75.4135762  38.2948322   8.7486387
  75.9837119  38.7235590   8.1103871  76.0043874  38.0130907   9.4470572
  75.9060929  33.4611750  16.9947398  75.2759589  34.1428030  17.2282795
  75.7997017  33.3494831  16.0500536  85.2169711  40.4688785  10.6718603
  86.0387155  40.0668972  10.3901284  85.2132114  40.3657019  11.6234719
  78.9826314  40.0172828  12.8279313  79.0470747  40.4793235  13.6637485
  78.2737238  39.3870193  12.9561623  69.4843604  33.3814036  10.3528313
  69.7351643  34.2661046  10.6185889  70.0203153  33.2018638   9.5803405
  93.3075704  36.8127533   7.0203574  92.5539412  36.2434931   6.8647579
  93.4423245  36.7790198   7.9674209  78.6974332  41.6840936   2.6958294
  78.5620007  42.5292471   3.1243141  79.2384144  41.8860213   1.9324227
  75.1841672  27.7632515  19.3572649  74.7908617  27.2098714  20.0320293
  76.0007812  28.0743094  19.7479166  73.9598614  42.3182130   5.3508972
  74.1365242  43.2400095   5.1629956  74.7555447  42.0040549   5.7803352
  78.1009633  29.1790394  16.9492905  78.8419346  29.7797548  16.8697368
  78.3327555  28.4368032  16.3910948  73.2450971  34.3646762  15.2271135
  73.1304486  33.4632019  15.5278234  72.3895488  34.6110458  14.8755952
  80.3242808  42.3064502  16.8258636  79.8806662  41.5200881  16.5079540
  80.9860022  42.4943653  16.1602527  75.0829929  43.8360304  11.3519314
  75.6337355  43.7077367  10.5796308  74.2441405  44.1355193  11.0014207
  82.4224046  42.5867302  14.8540037  82.4042522  43.4076183  14.3620306
  83.3443966  42.4621377  15.0790178  78.8797100  40.1011431  15.6963545
  79.4125437  39.3399720  15.4662853  78.3511182  39.8085083  16.4387700
  82.0466795  25.2071497  11.2257187  81.7031065  26.0973139  11.1496298
  82.4145758  25.0173155  10.3626772  81.1263336  27.5776153   9.1906420
  80.6228131  27.5406288   8.3774226  81.4193943  28.4868895   9.2503077
  86.9851352  37.9512463   1.6682796  86.2080795  37.6123623   1.2237958
  87.6642833  37.9565086   0.9937761  80.2449813  39.2297424   3.2082357
  79.7171175  38.4950183   2.8955595  79.7437316  40.0072100   2.9622326
  85.2242659  37.4246444   8.3249404  84.5666334  38.1145706   8.4129532
  86.0283058  37.8142876   8.6683390  84.0348118  35.7790817   6.3753345
  84.5480000  36.4120809   6.8775055  84.6849342  35.1792013   6.0096705
  81.2970492  45.7575141  -0.8685983  80.6232191  46.0606838  -0.2601026
  81.6836314  46.5604222  -1.2180526  80.5128949  33.2540273   8.6211686
  79.5951510  33.4755220   8.4633374  80.9289092  33.3286583   7.7623393
  84.8009914  40.7596819   4.5032488  84.3472241  39.9187728   4.5597679
  84.1703881  41.3958217   4.8407268  83.7442834  31.6888805   5.7333156
  83.0065591  31.1766191   6.0643398  83.9969607  31.2489186   4.9216432
  83.2442853  42.5973315   5.4382306  83.5365828  43.1578372   4.7194672
  83.7541474  42.8901876   6.1935465  78.1175541  34.7618850   6.8351116
  78.1724151  33.8092686   6.7593592  77.3066743  34.9178289   7.3192414
  78.2076479  43.3753666   6.5275759  78.1652657  43.6014513   5.5984291
  79.1239178  43.1417041   6.6761561  81.6542112  33.8437734  13.4256389
  82.0091500  34.0709207  14.2850854  82.3014244  34.1756111  12.8033644
  87.3839849  36.9656170   4.1305718  87.2457748  37.1557766   3.2026907
  87.0276068  37.7275553   4.5873769  75.5481976  30.9514265  10.2102730
  76.1881355  30.8103024   9.5125693  74.7159506  30.6648778   9.8341332
  87.4109229  39.0332697   9.1416989  87.8445736  38.9407986   9.9900043
  88.1240810  39.0090197   8.5037005  76.3242279  40.2516695   6.3237722
  77.1182878  39.7567015   6.1220297  75.6133972  39.7234558   5.9605428
  81.1437124  42.6334791  10.6750090  81.1974146  43.2025727  11.4427806
  80.2751905  42.8036676  10.3104127  74.0235517  32.3352347  12.1574541
  74.6958571  32.1269709  11.5087190  73.1965304  32.1374433  11.7179773
  88.2724779  39.0756397  11.6749875  88.4660669  39.9802208  11.9209150
  88.1725397  38.6163816  12.5088460  79.9261089  28.9614288  14.1740202
  79.2789004  29.6604238  14.0804678  80.6962105  29.3950432  14.5416450
  83.3339887  39.2263140  17.2490755  83.1825394  38.9973692  16.3320839
  83.3244567  40.1833742  17.2622100  80.1025224  36.7995053  12.2337022
  81.0317284  36.9506213  12.0605989  79.6816254  36.8879074  11.3785668
  78.9013555  40.8245717  10.0035559  78.7624641  40.4564502  10.8761497
  78.1128152  41.3393357   9.8319517  79.4961707  45.9254814   1.3461096
  79.6713463  45.4542857   2.1606718  78.8094495  46.5520580   1.5742357
  80.4518771  40.2027320   7.3924397  80.1168603  40.1628090   8.2882047
  79.9522716  39.5372036   6.9194807  74.4263015  35.6094950  12.9176978
  74.2882812  34.8775189  13.5188517  75.3367938  35.5203850  12.6361166
  77.0545315  35.3214909  12.4060658  77.7644934  34.6808102  12.3647276
  77.0114623  35.5727804  13.3286839  85.0432094  42.2582263  15.3267237
  84.9844640  41.5741483  14.6597820  85.4451612  43.0001253  14.8747863
  75.7674249  32.3080127  14.2256297  75.2311606  31.8570866  14.8777894
  75.1790958  32.4426036  13.4826762  74.0622793  49.0744177   8.1200956
  74.3019391  49.7062701   8.7979975  73.2191989  48.7232217   8.4066315
  85.0449501  40.2221847  13.5581217  84.1576280  39.8847768  13.6807616
  85.6148052  39.4904878  13.7949982  71.5013370  31.4436135  11.3109292
  71.4171559  30.8361804  10.5759702  70.6796077  31.9345153  11.3118788
  78.5750655  44.8823299  10.5242460  78.5020826  45.6878270  11.0361764
  78.1328048  45.0815265   9.6990481  78.3640434  44.1195069   4.0345281
  77.5807956  44.6616749   4.1283506  79.0633179  44.6369049   4.4339523
  89.5266842  35.6330064   8.3197778  89.5156718  36.5154779   7.9491711
  88.6584221  35.2801615   8.1252315  81.0349338  44.7810133  12.6800619
  81.7477310  45.4157598  12.6076520  80.5439367  44.8773999  11.8640620
  82.7566865  38.6861386   4.2517910  81.8223144  38.8062848   4.0822615
  82.9343533  37.7833852   3.9877920  86.1439416  34.5278705   4.7867944
  86.6099869  35.3606697   4.7128247  86.5946917  34.0623687   5.4913203
  76.0861252  42.5304576  13.5006189  76.7870711  43.1641059  13.6535584
  75.6156367  42.8719308  12.7401829  84.2115647  40.8722526   1.7854096
  84.4875491  40.7579121   2.6947971  83.3420146  40.4740011   1.7466270
  84.1156079  26.8959292   8.8258846  83.2019159  27.1263519   8.9941053
  84.5449181  26.9797736   9.6772878  83.8862538  35.0849184  11.3258740
  83.2333988  35.3325091  10.6711193  84.2642917  34.2713322  10.9921217
  80.8469711  45.1208877   5.4286910  81.0292106  44.3030533   5.8914662
  81.6702697  45.3376569   4.9911800  81.1811877  44.0477062   2.6901959
  81.7099643  43.5369517   2.0772121  81.4440097  43.7319592   3.5547492
  79.9350111  35.8268995  17.8124777  79.2590748  35.7263124  18.4827152
  80.7577744  35.6708209  18.2760774  71.6828970  42.0640932  10.4337292
  72.2682406  41.3184619  10.5665196  71.4853808  42.3744888  11.3173956
  74.5367625  45.0992179   5.4499734  73.8678000  45.5838307   4.9663775
  74.3980495  45.3461399   6.3643113  78.6772893  47.1335922  12.0482393
  79.2291201  47.2967544  12.8131478  79.0179087  47.7240360  11.3762418
  73.6537387  29.4811072  12.6504278  73.7178713  30.3425903  12.2381675
  73.5904507  28.8685074  11.9176636  73.1289659  31.5534205  16.2977312
  73.7561698  31.1711282  16.9114836  72.2717578  31.3348407  16.6633004
  83.5283768  41.9597180  17.9031047  84.0723672  42.5727138  17.4086002
  82.9470613  42.5176758  18.4198060  81.8141281  45.0817898   9.0346075
  81.6892420  44.2807638   8.5257021  82.4720372  45.5764091   8.5460045
  83.8776189  42.8826918  10.6625625  82.9306525  42.7632269  10.5903952
  84.2258962  41.9949416  10.7451887  76.2375762  28.7721057  14.4863867
  76.7610164  29.0183354  15.2490176  76.0188096  29.6041092  14.0667004
  80.8822622  42.6779634   6.8629977  80.7347585  41.7496342   7.0437547
  81.7076116  42.6999725   6.3787053  84.4856744  43.5008193   7.9494850
  85.4103292  43.2951054   7.8119301  84.3172048  43.2524594   8.8584192
  77.4428308  29.7134752  12.1713538  77.1025128  28.9142565  12.5734217
  76.7367314  30.0136463  11.5990371  78.0944779  26.7984064  10.6240861
  78.9170849  26.3244543  10.5019751  78.3382843  27.5774548  11.1239547
  75.6183358  33.4903185   8.4332839  75.4727939  33.8043488   9.3257121
  75.1408562  34.1088085   7.8803738  79.3305872  30.9143073  10.5266856
  79.0723650  31.8360144  10.5251187  78.7990912  30.5173508  11.2167320
  84.2752060  44.0193860   3.3056942  84.4488938  43.4540283   2.5530794
  84.7680952  44.8194755   3.1236431  70.0929020  36.0308530  11.3720500
  69.5482488  36.8068337  11.5040775  70.9708370  36.3779334  11.2139622
  90.1291452  36.7830283   4.9247241  90.5722598  36.0337609   4.5266365
  89.2517962  36.7740420   4.5420973  85.2627233  43.3360625   0.4053840
  85.9578138  43.9567318   0.6241154  85.6050383  42.4855976   0.6806218
  70.8795042  35.1578426  14.2650657  70.1376778  35.3061061  14.8515288
  70.5587786  35.4186691  13.4017407  87.1618656  40.7860330   1.9341171
  87.6869980  41.1247603   1.2090491  87.0741009  39.8507346   1.7504305
  78.8238705  44.6994404  14.0631047  79.1325831  44.4543551  14.9353747
  79.6214187  44.9041042  13.5749917  78.8459317  46.8532314   6.2936424
  78.4064307  46.3608692   6.9869280  79.5967434  46.3105281   6.0528499
  71.3251656  43.0443855   6.2961052  72.1509676  42.7447626   5.9159695
  70.9745708  42.2751477   6.7450841  76.2933189  42.3970323   8.3658725
  75.6713198  41.7341028   8.0660953  76.9638056  42.4231455   7.6832373
  69.5260261  40.9630181   7.2549985  68.6892169  40.5352355   7.0733987
  69.4983906  41.1562624   8.1920777  76.3657716  30.8752111  17.9591231
  76.4145872  31.7514234  17.5769001  76.9080231  30.3329504  17.3862875
  86.8512562  41.4193234  17.2392369  86.0608106  41.4017373  16.6996868
  86.6145917  41.9581528  17.9941405  86.9710437  38.2685700  14.5525097
  87.0208442  38.1035708  15.4940620  86.8624361  37.4012959  14.1622978
  84.2614200  34.2516628  15.8684404  85.1624062  34.1123093  15.5768402
  84.3362174  34.4171083  16.8082581  78.5957005  31.6283483  14.7137590
  77.7260314  31.9217049  14.4420179  78.8316485  32.2123928  15.4344854
  88.4728634  40.6882642  14.7967119  88.1813442  41.0512622  15.6330580
  87.8600765  39.9749650  14.6180451  89.6724316  38.2535522   7.3169689
  90.5071208  38.6925326   7.4807249  89.8083445  37.7774175   6.4977935
  86.7215822  35.8115257  13.2647177  87.1969944  36.0042903  12.4566028
  85.7981388  35.8674442  13.0190560  81.2996039  27.8463100  12.2303011
  81.8177983  28.5824127  11.9049499  80.9451172  28.1527093  13.0649770
  85.4217491  32.6881017  11.4975482  86.3734914  32.7879114  11.5187706
  85.2520942  31.8959285  12.0073567  83.4431871  29.7736600  11.6834883
  82.8481803  30.0541613  10.9881372  83.1581567  30.2630501  12.4551624
  82.5739361  43.7259527   0.4437516  83.5070034  43.6605088   0.6470391
  82.4862574  44.5615794  -0.0147952  87.9005569  35.9087136  10.6117782
  87.8681889  34.9703137  10.7977466  88.5106193  35.9871173   9.8783607
  88.0500058  32.6998180  10.6576065  87.5339106  31.9156636  10.4705994
  88.9340006  32.3716896  10.8222585  93.7182119  36.9703143   9.7523819
  94.4485507  36.7088431  10.3131522  93.1089064  36.2331865   9.7925887
  91.7997416  35.1111006  10.3498270  91.0730580  34.9766971   9.7414761
  91.3844703  35.4187834  11.1554988  79.6227592  38.8300935  18.1145643
  80.5430602  39.0079534  18.3085689  79.5877175  37.8856981  17.9625342
  72.6189665  36.7401970  10.7568424  72.8375675  37.6719078  10.7756458
  73.0315439  36.3809944  11.5423228  77.4917530  32.3135176  20.1471173
  77.3914257  33.2629533  20.0783264  77.2739072  31.9853415  19.2747243
  68.7098017  37.6442441   9.0092039  68.0161489  37.2296393   8.4961994
  69.4571008  37.6862977   8.4125458  77.3548800  35.7432315  18.9636235
  76.8715882  36.5432675  19.1700124  77.4409739  35.7540260  18.0103679
  73.2822138  39.6336849  11.0004668  74.2365391  39.6020792  10.9334600
  73.0834661  39.1727473  11.8154894  73.8721520  38.2037965  13.5675466
  74.6914409  38.6982044  13.5910303  74.1458328  37.2869934  13.5393034
  86.9802652  30.6195239   6.6457761  87.7563042  31.1091691   6.9182378
  86.2550786  31.0453293   7.1029630  89.4175211  31.3322858   7.7031701
  90.0119702  31.0918594   6.9925010  89.4901795  30.6129989   8.3305238
  71.6372367  45.1756469   8.0174866  71.5026835  44.4156870   7.4512864
  71.2204429  45.8997369   7.5503655  83.6029140  36.1103254   3.1453712
  83.5464341  36.5671805   2.3061344  84.1557482  35.3493938   2.9676555
  87.4133946  31.8992986   3.9703831  87.1570880  31.4989621   4.8012039
  86.7886814  32.6136779   3.8453970  91.7246284  34.6389059   6.4775123
  91.1645842  34.7082248   7.2506685  91.1189787  34.4630043   5.7574619
  74.7941493  46.0725786   8.2293309  74.6773877  47.0171218   8.1271999
  73.9733939  45.7699347   8.6179108  84.6818027  40.7975922  -0.9250098
  85.5163631  40.3657120  -1.1072624  84.5202370  40.6257935   0.0026796
  69.1256434  32.5376099  14.2667663  69.7715298  32.0275053  14.7554888
  68.9173585  33.2744781  14.8411088  81.6509826  39.6056947  19.7659804
  82.5200986  39.7797599  19.4046439  81.1716578  40.4251364  19.6435533
  75.8196007  46.7254048  11.4449237  76.7223253  46.7577658  11.7615732
  75.5933377  45.7954499  11.4595573  77.5749609  45.4785034   8.1059316
  76.6245240  45.4786896   7.9923688  77.8782095  44.7317769   7.5895351
  73.4653925  29.6843716  18.3642677  74.3285387  29.3280521  18.5746002
  72.8919336  29.3457611  19.0518082  93.3102302  51.3145573   9.1705078
  93.9480712  51.1952320   8.4668418  93.1923145  52.2626417   9.2293031
  90.1192008  51.2673001   9.1066603  89.7810520  51.1514066   8.2187138
  90.9881777  50.8664166   9.0867609  85.9778824  53.1208477   5.0963494
  85.4143689  53.0298414   4.3279782  85.8631219  52.3008382   5.5765987
  90.6011791  52.4207853  15.0652809  90.5900432  52.0260651  14.1933312
  90.7632431  51.6873925  15.6586580  83.5243256  54.6159669   7.9347714
  84.3164548  54.2750493   7.5194014  83.7639906  54.7254644   8.8549868
  91.5578383  56.7879445   0.4077959  90.9066363  57.3733525   0.0211973
  92.3522746  57.3185640   0.4672996  85.4834010  53.8768582   0.8065093
  86.2564886  53.3297569   0.6677969  85.8359409  54.7412831   1.0179555
  87.3219053  55.2044964  14.0131993  87.0308919  56.1090595  13.8978659
  87.9576037  55.2461492  14.7276062  88.2475259  52.5821813  10.6033352
  88.8438832  52.3577835   9.8890315  88.3050231  51.8406558  11.2058800
  87.8200288  50.0361248  -1.5616457  88.0725809  49.5142769  -2.3232994
  86.8824847  49.8727394  -1.4589773  92.8643571  49.0397027   6.2458286
  93.6506660  48.6216450   5.8948703  93.1282275  49.9443119   6.4139935
  93.0353648  54.4769877   0.9446943  92.3999481  54.5504503   1.6567848
  92.7051054  55.0663476   0.2666022  98.2651998  48.9772260   7.1491265
  98.9977170  48.4071477   7.3829094  97.5091353  48.5893860   7.5897770
  87.5396577  51.9389354   0.6407918  87.4232835  51.2634258   1.3089002
  87.6498836  51.4521728  -0.1759929  89.8828117  51.3999501   4.3454607
  89.5186325  50.8730122   5.0567529  90.7395233  51.0097970   4.1721093
  95.7877418  42.6893834  11.6085874  95.4560743  43.5589245  11.3847089
  95.1923032  42.3730118  12.2879904  89.5233604  46.4289401  -0.6584044
  89.6908007  47.2969637  -0.2913573  89.3330774  46.5916683  -1.5822755
  92.2808938  54.8906380  11.0081786  91.9809661  55.7931419  10.8997593
  91.9359997  54.6238563  11.8602939  85.7321419  51.3420177   7.0418491
  84.8071916  51.2096391   7.2496182  85.9805832  52.1214396   7.5388433
  95.6806081  47.4088920   8.6879224  94.7722959  47.3404328   8.3937985
  95.6293677  47.8860865   9.5161049  89.5022825  48.8847058   0.3262623
  89.3822451  49.3304109   1.1648103  88.8075414  49.2332376  -0.2323839
  83.0930230  50.9853450   7.8762280  83.2222611  51.2387929   8.7901691
  82.4127681  51.5781158   7.5566935  87.2629717  61.6550700   3.9752754
  87.1853747  62.6058525   4.0541235  86.6591361  61.3096573   4.6327680
  89.7546947  48.8278566  16.6314121  88.9780281  49.3872486  16.6216985
  90.3937510  49.3135349  17.1528991  97.5467728  45.6105358  10.4657097
  96.9042108  45.9037892   9.8196892  97.0422656  45.4958279  11.2710294
  95.2007892  49.3568532   1.1542957  96.1125748  49.5895918   0.9790654
  94.6917539  49.9405576   0.5918035  88.0093320  51.6364019  16.1932088
  88.7508004  52.1749063  15.9166911  87.3030305  52.2630308  16.3503640
  93.4848659  53.7793159  14.7904249  93.8932015  53.3375570  14.0458882
  92.7625921  53.2045787  15.0438442  89.8379729  48.7165766  12.1637806
  90.6840924  49.1405180  12.3072455  89.7778367  48.0599391  12.8576369
  93.8077474  54.3394350   8.5456538  93.1786336  54.5040064   7.8432606
  93.4203136  54.7535960   9.3167502  97.6866706  55.2748788   5.9000902
  97.0017744  55.6547689   5.3497935  97.7710555  55.8844115   6.6332850
  92.9879175  46.3770135  13.8218980  92.7440106  47.1312195  13.2853256
  93.2639105  46.7555482  14.6566227  94.9417637  52.9208747  12.4996246
  95.1534533  53.5640507  11.8230627  94.8947386  52.0871064  12.0318176
  92.5443866  45.5326568   9.4032818  91.6828345  45.8307821   9.6949555
  92.5706301  45.7496967   8.4713850  89.3605436  54.0768758   5.8106623
  89.8243781  54.3556461   5.0211246  89.0962234  53.1752203   5.6279714
  86.2529517  53.6240240   8.7486387  86.8230874  54.0527508   8.1103871
  86.8437629  53.3422824   9.4470572  88.2974322  50.1991911   2.6196188
  88.9998365  50.6512954   3.0870115  87.9654950  49.5575729   3.2476082
  86.7454683  48.7903667  16.9947398  86.1153344  49.4719948  17.2282795
  86.6390771  48.6786749  16.0500536  82.0399656  48.4575463   7.9213322
  81.2498710  48.7132992   7.4453433  82.5310903  49.2723801   8.0265363
  96.0563465  55.7980702  10.6718603  96.8780909  55.3960890  10.3901284
  96.0525868  55.6948937  11.6234719  83.9914401  48.8220042   4.8796799
  83.1945564  48.9338737   5.3980294  83.7639993  49.1606695   4.0137689
  89.8220069  55.3464746  12.8279313  89.8864501  55.8085153  13.6637485
  89.1130993  54.7162111  12.9561623  80.3237359  48.7105954  10.3528313
  80.5745397  49.5952964  10.6185889  80.8596907  48.5310555   9.5803405
 104.1469458  52.1419451   7.0203574 103.3933167  51.5726849   6.8647579
 104.2817000  52.1082115   7.9674209  89.5368086  57.0132853   2.6958294
  89.4013761  57.8584389   3.1243141  90.0777899  57.2152131   1.9324227
  86.0235426  43.0924433  19.3572649  85.6302372  42.5390632  20.0320293
  86.8401566  43.4035012  19.7479166  82.9897484  54.5308291   3.2686219
  83.5022004  55.3251541   3.4191783  83.6420197  53.8334582   3.2019820
  84.7992368  57.6474047   5.3508972  84.9758997  58.5692012   5.1629956
  85.5949202  57.3332467   5.7803352  88.9403387  44.5082312  16.9492905
  89.6813100  45.1089465  16.8697368  89.1721310  43.7659950  16.3910948
  84.0844725  49.6938679  15.2271135  83.9698240  48.7923937  15.5278234
  83.2289243  49.9402376  14.8755952  91.1636563  57.6356420  16.8258636
  90.7200417  56.8492798  16.5079540  91.8253776  57.8235570  16.1602527
  85.9223684  59.1652221  11.3519314  86.4731109  59.0369285  10.5796308
  85.0835160  59.4647110  11.0014207  93.2617801  57.9159220  14.8540037
  93.2436276  58.7368101  14.3620306  94.1837721  57.7913295  15.0790178
  89.7190855  55.4303349  15.6963545  90.2519192  54.6691637  15.4662853
  89.1904936  55.1377001  16.4387700  92.8860550  40.5363415  11.2257187
  92.5424819  41.4265057  11.1496298  93.2539513  40.3465073  10.3626772
  80.9546401  52.8596946   4.0445789  81.7921623  53.2693954   3.8279497
  81.1324668  51.9196388   4.0145983  92.8510833  50.5272026  -0.2670378
  92.3357456  51.2976631  -0.0281990  92.5788141  49.8537162   0.3562684
  90.4357944  45.3721727   4.7914861  89.5799540  44.9828577   4.6120499
  90.8484895  45.4513688   3.9314646  91.9657090  42.9068070   9.1906420
  91.4621886  42.8698205   8.3774226  92.2587697  43.8160813   9.2503077
  88.2099976  42.9906800   8.1972602  89.0752973  42.7949609   7.8378492
  88.2777485  42.7617152   9.1241959  97.8245107  53.2804381   1.6682796
  97.0474550  52.9415540   1.2237958  98.5036588  53.2857004   0.9937761
  92.6397136  48.3999118   1.5589403  92.3347271  48.7145267   2.4099547
  93.5927578  48.4780538   1.6016736  91.0843568  54.5589342   3.2082357
  90.5564929  53.8242101   2.8955595  90.5831070  55.3364018   2.9622326
  96.0636414  52.7538362   8.3249404  95.4060088  53.4437623   8.4129532
  96.8676813  53.1434794   8.6683390  85.8162295  45.2209008   5.5688969
  86.3906047  44.9984189   4.8362162  86.4033278  45.2897702   6.3217570
  94.8741872  51.1082735   6.3753345  95.3873754  51.7412727   6.8775055
  95.5243096  50.5083930   6.0096705  86.1431882  47.2513469  -0.4115146
  85.3069195  47.5888155  -0.0905871  86.0036652  47.1162449  -1.3488009
  88.1184963  42.0950257   4.2964038  87.4649375  41.7799274   3.6720653
  88.0765437  41.4725997   5.0223861  89.2296168  52.3769552  -3.7882670
  88.3223230  52.1458805  -3.5891521  89.7267200  51.5807171  -3.6008688
  92.1364247  61.0867059  -0.8685983  91.4625945  61.3898756  -0.2601026
  92.5230069  61.8896139  -1.2180526  91.3522703  48.5832190   8.6211686
  90.4345265  48.8047137   8.4633374  91.7682847  48.6578501   7.7623393
  92.1357751  49.9823606   3.7514366  92.8829570  50.4945003   3.4421488
  92.4049341  49.6607659   4.6118760  90.4084401  52.4782147   0.7341321
  89.4995621  52.1941180   0.8313790  90.4379485  52.8981225  -0.1255373
  95.6403669  56.0888736   4.5032488  95.1865996  55.2479646   4.5597679
  95.0097635  56.7250135   4.8407268  94.5836588  47.0180722   5.7333156
  93.8459345  46.5058108   6.0643398  94.8363362  46.5781104   4.9216432
  94.0836608  57.9265233   5.4382306  94.3759582  58.4870290   4.7194672
  94.5935229  58.2193794   6.1935465  94.6848216  39.7956974   6.3274925
  94.9907092  38.9354338   6.0400840  95.4100820  40.3874594   6.1273919
  80.9772572  50.1987661   4.7156523  80.7796971  49.6057022   3.9907589
  80.4219236  49.8939871   5.4332462  88.9569295  50.0910767   6.8351116
  89.0117905  49.1384604   6.7593592  88.1460497  50.2470206   7.3192414
  90.1060489  54.0190890  -1.9270601  89.6679919  53.3026749  -2.3864964
  90.8470930  54.2467005  -2.4885509  86.8961655  48.7087827   4.5941495
  86.0829521  49.0081998   5.0006687  87.3920649  48.3143516   5.3115977
  89.0470233  58.7045584   6.5275759  89.0046412  58.9306430   5.5984291
  89.9632932  58.4708959   6.6761561  92.4935867  49.1729652  13.4256389
  92.8485255  49.4001125  14.2850854  93.1407998  49.5048028  12.8033644
  98.2233604  52.2948087   4.1305718  98.0851502  52.4849683   3.2026907
  97.8669823  53.0567470   4.5873769  86.3875730  46.2806183  10.2102730
  87.0275109  46.1394942   9.5125693  85.5553261  45.9940696   9.8341332
  98.2502983  54.3624614   9.1416989  98.6839490  54.2699904   9.9900043
  98.9634564  54.3382115   8.5037005  87.1636034  55.5808613   6.3237722
  87.9576632  55.0858933   6.1220297  86.4527726  55.0526476   5.9605428
  91.9830878  57.9626709  10.6750090  92.0367901  58.5317645  11.4427806
  91.1145660  58.1328594  10.3104127  83.4718797  49.7251695   2.3997475
  82.5416385  49.6636150   2.6167437  83.5676269  49.2027647   1.6034116
  83.3904346  46.2506508   4.9875717  83.6511164  47.1651841   4.8784877
  84.2121519  45.7830950   5.1372329  84.8629272  47.6644265  12.1574541
  85.5352325  47.4561627  11.5087190  84.0359058  47.4666351  11.7179773
  99.1118533  54.4048315  11.6749875  99.3054423  55.3094126  11.9209150
  99.0119151  53.9455734  12.5088460  90.7654844  44.2906206  14.1740202
  90.1182759  44.9896155  14.0804678  91.5355859  44.7242350  14.5416450
  94.1733642  54.5555058  17.2490755  94.0219148  54.3265610  16.3320839
  94.1638321  55.5125659  17.2622100  90.9418978  52.1286971  12.2337022
  91.8711038  52.2798130  12.0605989  90.5210008  52.2170991  11.3785668
  89.7407310  56.1537635  10.0035559  89.6018396  55.7856419  10.8761497
  88.9521906  56.6685274   9.8319517  90.3355462  61.2546731   1.3461096
  90.5107218  60.7834775   2.1606718  89.6488250  61.8812498   1.5742357
  91.2912525  55.5319238   7.3924397  90.9562358  55.4920008   8.2882047
  90.7916471  54.8663954   6.9194807  85.2656769  50.9386868  12.9176978
  85.1276567  50.2067107  13.5188517  86.1761692  50.8495768  12.6361166
  94.2271717  52.8775272  -2.3338543  93.6100887  52.1522100  -2.4305491
  93.7588205  53.6384632  -2.6771469  87.8939070  50.6506827  12.4060658
  88.6038688  50.0100019  12.3647276  87.8508378  50.9019722  13.3286839
  95.8825848  57.5874180  15.3267237  95.8238395  56.9033401  14.6597820
  96.2845367  58.3293170  14.8747863  86.6068004  47.6372045  14.2256297
  86.0705361  47.1862783  14.8777894  86.0184712  47.7717954  13.4826762
  84.9016547  64.4036094   8.1200956  85.1413145  65.0354618   8.7979975
  84.0585744  64.0524134   8.4066315  86.0170263  47.0960696  -3.2117239
  85.1399729  46.9749497  -3.5754992  86.4928016  46.3046775  -3.4638350
  95.8843256  55.5513764  13.5581217  94.9970034  55.2139686  13.6807616
  96.4541807  54.8196796  13.7949982  77.5372403  51.8837856   6.8824268
  78.2243443  51.5699586   6.2945283  77.3820531  52.7879221   6.6091520
  82.3407125  46.7728053  11.3109292  82.2565314  46.1653722  10.5759702
  81.5189831  47.2637071  11.3118788  89.4144409  60.2115217  10.5242460
  89.3414581  61.0170188  11.0361764  88.9721802  60.4107182   9.6990481
  89.2034189  59.4486987   4.0345281  88.4201711  59.9908667   4.1283506
  89.9026934  59.9660966   4.4339523  92.5130839  45.2581616   6.6779487
  93.0099538  44.5051578   6.3580557  91.7417820  45.2945933   6.1122696
 100.3660596  50.9621982   8.3197778 100.3550472  51.8446697   7.9491711
  99.4977976  50.6093533   8.1252315  91.8743093  60.1102051  12.6800619
  92.5871065  60.7449516  12.6076520  91.3833121  60.2065917  11.8640620
  93.5960619  54.0153303   4.2517910  92.6616898  54.1354766   4.0822615
  93.7737288  53.1125770   3.9877920  89.0965808  47.3998999   6.4051171
  88.7263595  46.8470040   7.0932077  89.5924900  46.7957133   5.8526172
  96.9833171  49.8570623   4.7867944  97.4493623  50.6898614   4.7128247
  97.4340671  49.3915604   5.4913203  86.9255006  57.8596494  13.5006189
  87.6264466  58.4932977  13.6535584  86.4550121  58.2011226  12.7401829
  95.0509402  56.2014444   1.7854096  95.3269246  56.0871039   2.6947971
  94.1813901  55.8031929   1.7466270  94.9549834  42.2251210   8.8258846
  94.0412913  42.4555436   8.9941053  95.3842935  42.3089654   9.6772878
  94.7256292  50.4141102  11.3258740  94.0727742  50.6617009  10.6711193
  95.1036672  49.6005240  10.9921217  91.6863466  60.4500795   5.4286910
  91.8685860  59.6322451   5.8914662  92.5096452  60.6668487   4.9911800
  92.0205631  59.3768980   2.6901959  92.5493398  58.8661435   2.0772121
  92.2833851  59.0611510   3.5547492  90.7743865  51.1560913  17.8124777
  90.0984502  51.0555042  18.4827152  91.5971499  51.0000126  18.2760774
  82.5222724  57.3932849  10.4337292  83.1076161  56.6476537  10.5665196
  82.3247563  57.7036806  11.3173956  85.3761379  60.4284097   5.4499734
  84.7071755  60.9130224   4.9663775  85.2374249  60.6753317   6.3643113
  77.1140379  49.9638449   9.1541735  77.1524478  49.4302040   9.9478853
  76.6080672  49.4373655   8.5352712  89.5166648  62.4627840  12.0482393
  90.0684956  62.6259462  12.8131478  89.8572841  63.0532278  11.3762418
  84.4931141  44.8102990  12.6504278  84.5572468  45.6717821  12.2381675
  84.4298261  44.1976992  11.9176636  83.9683414  46.8826122  16.2977312
  84.5955453  46.5003200  16.9114836  83.1111333  46.6640324  16.6633004
  94.3677522  57.2889098  17.9031047  94.9117426  57.9019056  17.4086002
  93.7864367  57.8468676  18.4198060  80.7448956  48.6902552   2.2295667
  81.0402398  47.7813230   2.1762720  79.8436992  48.6690291   1.9076669
  92.6535035  60.4109816   9.0346075  92.5286175  59.6099555   8.5257021
  93.3114126  60.9056009   8.5460045  84.2743203  46.7658548   8.2123215
  83.5529789  47.3794516   8.0730689  85.0636459  47.3016313   8.1339861
  94.7169944  58.2118836  10.6625625  93.7700279  58.0924187  10.5903952
  95.0652717  57.3241334  10.7451887  87.0769517  44.1012975  14.4863867
  87.6003919  44.3475271  15.2490176  86.8581850  44.9333009  14.0667004
  82.4736798  46.3716649   2.3534992  82.1449504  45.4914028   2.1710098
  82.8276169  46.3164318   3.2411381  91.7216377  58.0071552   6.8629977
  91.5741339  57.0788259   7.0437547  92.5469870  58.0291643   6.3787053
  85.5878621  46.6589619   2.7210469  85.9274694  47.1875540   1.9989078
  86.0350742  46.9970025   3.4969036  95.3250499  58.8300111   7.9494850
  96.2497046  58.6242972   7.8119301  95.1565802  58.5816512   8.8584192
  88.2822062  45.0426670  12.1713538  87.9418882  44.2434483  12.5734217
  87.5761068  45.3428381  11.5990371  88.9338534  42.1275982  10.6240861
  89.7564603  41.6536460  10.5019751  89.1776597  42.9066466  11.1239547
  87.5746768  45.1564241   0.9203762  88.2955131  45.5345493   0.4167479
  86.9512072  45.8753117   1.0238740  91.7177891  45.8609390   1.8562095
  91.9341506  46.7434027   1.5550923  91.2371958  45.4695603   1.1267737
  86.4577113  48.8195103   8.4332839  86.3121693  49.1335406   9.3257121
  85.9802316  49.4380003   7.8803738  88.3173495  45.8097651   8.4813729
  88.3035064  44.9138744   8.1446027  89.0345924  45.8168315   9.1152015
  90.1699626  46.2434991  10.5266856  89.9117404  47.1652062  10.5251187
  89.6384667  45.8465426  11.2167320  95.1145815  59.3485778   3.3056942
  95.2882693  58.7832201   2.5530794  95.6074706  60.1486673   3.1236431
  80.9322775  51.3600447  11.3720500  80.3876243  52.1360255  11.5040775
  81.8102125  51.7071252  11.2139622  87.7210391  44.6912031   3.7501299
  87.8426303  43.7628677   3.9492186  87.4312434  44.7050717   2.8379614
  90.5901582  42.3766942   6.8868019  90.6123279  42.4406275   5.9319998
  91.0069641  41.5371450   7.0808525 100.9685206  52.1122201   4.9247241
 101.4116352  51.3629526   4.5266365 100.0911716  52.1032337   4.5420973
  96.1020987  58.6652543   0.4053840  96.7971892  59.2859235   0.6241154
  96.4444138  57.8147894   0.6806218  81.7188797  50.4870343  14.2650657
  80.9770533  50.6352979  14.8515288  81.3981541  50.7478609  13.4017407
  98.0012411  56.1152248   1.9341171  98.5263735  56.4539521   1.2090491
  97.9134763  55.1799263   1.7504305  89.6632459  60.0286322  14.0631047
  89.9719586  59.7835468  14.9353747  90.4607941  60.2332960  13.5749917
  89.6853071  62.1824231   6.2936424  89.2458062  61.6900610   6.9869280
  90.4361188  61.6397199   6.0528499  82.1645410  58.3735772   6.2961052
  82.9903430  58.0739544   5.9159695  81.8139462  57.6043395   6.7450841
  87.1326943  57.7262240   8.3658725  86.5106953  57.0632945   8.0660953
  87.8031810  57.7523372   7.6832373  80.3654015  56.2922099   7.2549985
  79.5285924  55.8644273   7.0733987  80.3377661  56.4854542   8.1920777
  87.2051471  46.2044028  17.9591231  87.2539626  47.0806151  17.5769001
  87.7473985  45.6621421  17.3862875  97.6906317  56.7485152  17.2392369
  96.9001860  56.7309291  16.6996868  97.4539671  57.2873445  17.9941405
  97.8104192  53.5977618  14.5525097  97.8602197  53.4327626  15.4940620
  97.7018115  52.7304877  14.1622978  86.6940450  56.2766164   1.8417186
  86.8428571  56.9601628   1.1883859  87.5006894  56.2571254   2.3566642
  95.1007954  49.5808546  15.8684404  96.0017817  49.4415011  15.5768402
  95.1755929  49.7463001  16.8082581  89.4350759  46.9575401  14.7137590
  88.5654069  47.2508967  14.4420179  89.6710240  47.5415846  15.4344854
  99.3122389  56.0174560  14.7967119  99.0207197  56.3804540  15.6330580
  98.6994520  55.3041568  14.6180451 100.5118071  53.5827439   7.3169689
 101.3464962  54.0217243   7.4807249 100.6477200  53.1066093   6.4977935
  97.5609577  51.1407174  13.2647177  98.0363698  51.3334821  12.4566028
  96.6375142  51.1966360  13.0190560  84.4493083  52.3031341   2.8478255
  84.2039125  51.3993671   3.0458465  84.6188998  52.3048492   1.9057733
  92.1389793  43.1755018  12.2303011  92.6571737  43.9116045  11.9049499
  91.7844926  43.4819011  13.0649770  83.7188731  48.0359699   0.3464416
  83.0257976  48.1104054  -0.3095548  83.4740483  47.2720043   0.8685933
  92.3902387  39.5955300   7.7503907  92.6704141  38.9278489   8.3764334
  93.1752994  39.7884396   7.2378571  90.1935856  58.7714294  -0.6871067
  89.6209823  59.3904481  -1.1400595  90.7668650  59.3213656  -0.1531145
  96.2611246  48.0172934  11.4975482  97.2128669  48.1171032  11.5187706
  96.0914696  47.2251203  12.0073567  94.2825625  45.1028518  11.6834883
  93.6875557  45.3833530  10.9881372  93.9975322  45.5922418  12.4551624
  93.4133116  59.0551444   0.4437516  94.3463789  58.9897006   0.6470391
  93.3256329  59.8907711  -0.0147952  96.0421132  58.3717315  -2.5958537
  95.9634764  58.0377178  -1.7022779  96.8630799  58.8639083  -2.5967064
  98.7399324  51.2379054  10.6117782  98.7075644  50.2995055  10.7977466
  99.3499947  51.3163091   9.8783607  90.5782654  50.1075107  -3.3455014
  91.5241759  49.9781315  -3.2766596  90.1996899  49.3689769  -2.8685586
  98.8893812  48.0290097  10.6576065  98.3732861  47.2448554  10.4705994
  99.7733761  47.7008814  10.8222585  96.5504539  41.7731113   6.6171878
  96.3529360  41.4646201   7.5015210  97.1604245  42.4992752   6.7469808
 104.5575873  52.2995061   9.7523819 105.2879262  52.0380349  10.3131522
 103.9482819  51.5623783   9.7925887 102.6391171  50.4402923  10.3498270
 101.9124334  50.3058888   9.7414761 102.2238457  50.7479752  11.1554988
  90.4621347  54.1592853  18.1145643  91.3824356  54.3371452  18.3085689
  90.4270930  53.2148898  17.9625342  88.7625572  48.0325083  -3.4100129
  87.8557027  47.7358196  -3.3337415  89.0401553  47.7354901  -4.2765843
  79.6803512  49.3531447   7.0398918  79.3606296  48.4996755   6.7473292
  79.1336940  49.5680025   7.7956885  83.4583419  52.0693888  10.7568424
  83.6769429  53.0010996  10.7756458  83.8709193  51.7101862  11.5423228
  90.3787637  42.5761973   2.7444112  89.5688366  42.2309058   3.1199359
  91.0672054  42.2669517   3.3331724  92.3078186  41.6540020   4.3668409
  92.8609224  42.0735473   5.0258432  92.5448272  40.7275768   4.4091365
  88.3311285  47.6427094  20.1471173  88.2308012  48.5921450  20.0783264
  88.1132827  47.3145332  19.2747243  87.5324356  44.8912019  -3.2688150
  88.3943520  45.2166917  -3.0092332  87.7174700  44.1043514  -3.7815084
  79.5491772  52.9734358   9.0092039  78.8555243  52.5588311   8.4961994
  80.2964763  53.0154895   8.4125458  95.6856993  43.7640545   3.8747073
  95.1055662  44.4225349   3.4925126  95.4192925  42.9417890   3.4634491
  94.1360559  43.1645603   6.0768394  94.6360337  43.2762137   5.2682712
  94.7796167  42.8606656   6.7169202  88.1942555  51.0724232  18.9636235
  87.7109637  51.8724592  19.1700124  88.2803494  51.0832177  18.0103679
  81.4628514  52.9052612   6.8858054  81.4399203  53.0040299   5.9339937
  81.7729151  53.7517763   7.2075220  84.1215892  54.9628767  11.0004668
  85.0759146  54.9312709  10.9334600  83.9228416  54.5019391  11.8154894
  84.7115274  53.5329883  13.5675466  85.5308163  54.0273962  13.5910303
  84.9852082  52.6161851  13.5393034  94.4681871  45.9240635   2.9303422
  93.5807726  46.2090286   2.7123616  94.8835860  45.7634399   2.0830698
  97.8196407  45.9487156   6.6457761  98.5956797  46.4383609   6.9182378
  97.0944541  46.3745211   7.1029630 100.2568965  46.6614776   7.7031701
 100.8513456  46.4210512   6.9925010 100.3295549  45.9421906   8.3305238
  82.4766121  60.5048387   8.0174866  82.3420589  59.7448787   7.4512864
  82.0598183  61.2289286   7.5503655  93.6125084  55.6885310  -2.9748558
  94.3160934  55.8935313  -2.3590903  92.8887733  56.2562072  -2.7099475
  94.4422894  51.4395171   3.1453712  94.3858096  51.8963723   2.3061344
  94.9951237  50.6785856   2.9676555  98.2527700  47.2284903   3.9703831
  97.9964635  46.8281539   4.8012039  97.6280568  47.9428697   3.8453970
 102.5640038  49.9680976   6.4775123 102.0039596  50.0374166   7.2506685
 101.9583542  49.7921961   5.7574619  85.6335247  61.4017704   8.2293309
  85.5167631  62.3463136   8.1271999  84.8127693  61.0991265   8.6179108
  95.5211782  56.1267839  -0.9250098  96.3557385  55.6949038  -1.1072624
  95.3596124  55.9549853   0.0026796  95.1757674  52.6299953   0.4406241
  95.1206478  52.4644224  -0.5005315  94.5503729  53.3375986   0.5968431
  79.9650189  47.8668017  14.2667663  80.6109052  47.3566971  14.7554888
  79.7567340  48.6036699  14.8411088  92.4903581  54.9348864  19.7659804
  93.3594741  55.1089517  19.4046439  92.0110332  55.7543281  19.6435533
  88.4853799  42.1308062   0.0191559  88.4732469  43.0749902   0.1759830
  89.3777221  41.9478207  -0.2748979  86.6589761  62.0545965  11.4449237
  87.5617008  62.0869576  11.7615732  86.4327131  61.1246416  11.4595573
  88.4143363  60.8076952   8.1059316  87.4638994  60.8078814   7.9923688
  88.7175849  60.0609687   7.5895351  92.3005919  38.7250838   4.2737496
  91.5338314  38.1709325   4.4194178  92.7116624  38.7972707   5.1351648
  84.3047680  45.0135634  18.3642677  85.1679141  44.6572439  18.5746002
  83.7313090  44.6749529  19.0518082 104.1496057  66.6437490   9.1705078
 104.7874467  66.5244238   8.4668418 104.0316900  67.5918334   9.2293031
 100.9585763  66.5964919   9.1066603 100.6204274  66.4805983   8.2187138
 101.8275531  66.1956084   9.0867609  96.8172579  68.4500395   5.0963494
  96.2537444  68.3590332   4.3279782  96.7024974  67.6300299   5.5765987
 101.4405546  67.7499770  15.0652809 101.4294187  67.3552569  14.1933312
 101.6026185  67.0165843  15.6586580  94.3637011  69.9451587   7.9347714
  95.1558302  69.6042411   7.5194014  94.6033661  70.0546562   8.8549868
 102.3972137  72.1171363   0.4077959 101.7460117  72.7025443   0.0211973
 103.1916500  72.6477558   0.4672996  96.3227764  69.2060500   0.8065093
  97.0958640  68.6589487   0.6677969  96.6753163  70.0704749   1.0179555
  98.1612807  70.5336882  14.0131993  97.8702673  71.4382513  13.8978659
  98.7969791  70.5753410  14.7276062  99.0869014  67.9113731  10.6033352
  99.6832586  67.6869753   9.8890315  99.1443985  67.1698476  11.2058800
  98.6594042  65.3653166  -1.5616457  98.9119563  64.8434687  -2.3232994
  97.7218601  65.2019311  -1.4589773 103.7037325  64.3688944   6.2458286
 104.4900414  63.9508367   5.8948703 103.9676029  65.2735036   6.4139935
 103.8747402  69.8061795   0.9446943 103.2393235  69.8796421   1.6567848
 103.5444809  70.3955393   0.2666022 109.1045752  64.3064177   7.1491265
 109.8370924  63.7363394   7.3829094 108.3485108  63.9185778   7.5897770
  98.3790331  67.2681272   0.6407918  98.2626589  66.5926175   1.3089002
  98.4892591  66.7813646  -0.1759929 100.7221872  66.7291419   4.3454607
 100.3580079  66.2022040   5.0567529 101.5788988  66.3389888   4.1721093
 106.6271173  58.0185752  11.6085874 106.2954497  58.8881163  11.3847089
 106.0316786  57.7022036  12.2879904 100.3627359  61.7581319  -0.6584044
 100.5301761  62.6261555  -0.2913573 100.1724528  61.9208600  -1.5822755
 103.1202692  70.2198298  11.0081786 102.8203415  71.1223336  10.8997593
 102.7753752  69.9530481  11.8602939  96.5715174  66.6712094   7.0418491
  95.6465670  66.5388308   7.2496182  96.8199587  67.4506314   7.5388433
 106.5199836  62.7380838   8.6879224 105.6116713  62.6696246   8.3937985
 106.4687432  63.2152783   9.5161049 100.3416580  64.2138976   0.3262623
 100.2216205  64.6596027   1.1648103  99.6469168  64.5624294  -0.2323839
  93.9323985  66.3145368   7.8762280  94.0616366  66.5679847   8.7901691
  93.2521436  66.9073076   7.5566935  98.1023472  76.9842618   3.9752754
  98.0247502  77.9350443   4.0541235  97.4985116  76.6388490   4.6327680
 100.5940702  64.1570483  16.6314121  99.8174036  64.7164403  16.6216985
 101.2331265  64.6427266  17.1528991 108.3861482  60.9397276  10.4657097
 107.7435863  61.2329809   9.8196892 107.8816411  60.8250196  11.2710294
 106.0401646  64.6860449   1.1542957 106.9519502  64.9187836   0.9790654
 105.5311293  65.2697494   0.5918035  98.8487074  66.9655937  16.1932088
  99.5901758  67.5040981  15.9166911  98.1424059  67.5922225  16.3503640
 104.3242414  69.1085077  14.7904249 104.7325770  68.6667488  14.0458882
 103.6019675  68.5337705  15.0438442 100.6773484  64.0457684  12.1637806
 101.5234679  64.4697097  12.3072455 100.6172121  63.3891308  12.8576369
 104.6471228  69.6686268   8.5456538 104.0180091  69.8331982   7.8432606
 104.2596890  70.0827877   9.3167502 108.5260460  70.6040706   5.9000902
 107.8411498  70.9839607   5.3497935 108.6104310  71.2136032   6.6332850
 103.8272929  61.7062052  13.8218980 103.5833861  62.4604113  13.2853256
 104.1032860  62.0847400  14.6566227 105.7811392  68.2500665  12.4996246
 105.9928287  68.8932425  11.8230627 105.7341140  67.4162981  12.0318176
 103.3837621  60.8618485   9.4032818 102.5222100  61.1599739   9.6949555
 103.4100055  61.0788884   8.4713850 100.1999190  69.4060676   5.8106623
 100.6637536  69.6848379   5.0211246  99.9355988  68.5044120   5.6279714
  97.0923271  68.9532157   8.7486387  97.6624628  69.3819426   8.1103871
  97.6831383  68.6714742   9.4470572  99.1368076  65.5283828   2.6196188
  99.8392120  65.9804872   3.0870115  98.8048705  64.8867647   3.2476082
  97.5848438  64.1195585  16.9947398  96.9547098  64.8011866  17.2282795
  97.4784526  64.0078666  16.0500536  92.8793410  63.7867381   7.9213322
  92.0892464  64.0424909   7.4453433  93.3704658  64.6015719   8.0265363
 106.8957220  71.1272620  10.6718603 107.7174663  70.7252807  10.3901284
 106.8919623  71.0240854  11.6234719  94.8308156  64.1511960   4.8796799
  94.0339319  64.2630654   5.3980294  94.6033748  64.4898612   4.0137689
 100.6613823  70.6756663  12.8279313 100.7258256  71.1377071  13.6637485
  99.9524747  70.0454028  12.9561623  91.1631113  64.0397871  10.3528313
  91.4139152  64.9244881  10.6185889  91.6990662  63.8602473   9.5803405
 114.9863213  67.4711369   7.0203574 114.2326921  66.9018767   6.8647579
 115.1210754  67.4374033   7.9674209 100.3761841  72.3424771   2.6958294
 100.2407516  73.1876307   3.1243141 100.9171653  72.5444048   1.9324227
  96.8629180  58.4216351  19.3572649  96.4696126  57.8682549  20.0320293
  97.6795321  58.7326929  19.7479166  93.8291238  69.8600209   3.2686219
  94.3415759  70.6543459   3.4191783  94.4813951  69.1626499   3.2019820
  95.6386123  72.9765965   5.3508972  95.8152751  73.8983930   5.1629956
  96.4342956  72.6624384   5.7803352  99.7797141  59.8374230  16.9492905
 100.5206855  60.4381383  16.8697368 100.0115064  59.0951868  16.3910948
  94.9238479  65.0230597  15.2271135  94.8091995  64.1215854  15.5278234
  94.0682997  65.2694294  14.8755952 102.0030317  72.9648337  16.8258636
 101.5594171  72.1784716  16.5079540 102.6647531  73.1527488  16.1602527
  96.7617438  74.4944139  11.3519314  97.3124864  74.3661202  10.5796308
  95.9228914  74.7939028  11.0014207 104.1011555  73.2451137  14.8540037
 104.0830031  74.0660018  14.3620306 105.0231475  73.1205213  15.0790178
 100.5584609  70.7595267  15.6963545 101.0912946  69.9983555  15.4662853
 100.0298691  70.4668919  16.4387700 103.7254304  55.8655333  11.2257187
 103.3818574  56.7556974  11.1496298 104.0933267  55.6756990  10.3626772
  91.7940155  68.1888863   4.0445789  92.6315377  68.5985872   3.8279497
  91.9718423  67.2488305   4.0145983 103.6904587  65.8563944  -0.2670378
 103.1751211  66.6268548  -0.0281990 103.4181896  65.1829080   0.3562684
 101.2751698  60.7013645   4.7914861 100.4193295  60.3120495   4.6120499
 101.6878650  60.7805605   3.9314646 102.8050845  58.2359988   9.1906420
 102.3015640  58.1990123   8.3774226 103.0981452  59.1452731   9.2503077
  99.0493731  58.3198718   8.1972602  99.9146727  58.1241526   7.8378492
  99.1171240  58.0909069   9.1241959 108.6638861  68.6096298   1.6682796
 107.8868304  68.2707458   1.2237958 109.3430342  68.6148922   0.9937761
 103.4790890  63.7291036   1.5589403 103.1741026  64.0437185   2.4099547
 104.4321332  63.8072456   1.6016736 101.9237322  69.8881259   3.2082357
 101.3958684  69.1534019   2.8955595 101.4224825  70.6655936   2.9622326
 106.9030168  68.0830280   8.3249404 106.2453843  68.7729541   8.4129532
 107.7070567  68.4726712   8.6683390  96.6556050  60.5500926   5.5688969
  97.2299802  60.3276107   4.8362162  97.2427032  60.6189620   6.3217570
 105.7135627  66.4374652   6.3753345 106.2267509  67.0704644   6.8775055
 106.3636851  65.8375848   6.0096705  96.9825637  62.5805387  -0.4115146
  96.1462949  62.9180073  -0.0905871  96.8430407  62.4454366  -1.3488009
  98.9578717  57.4242174   4.2964038  98.3043130  57.1091192   3.6720653
  98.9159192  56.8017915   5.0223861 100.0689922  67.7061470  -3.7882670
  99.1616984  67.4750723  -3.5891521 100.5660954  66.9099089  -3.6008688
 102.9758001  76.4158977  -0.8685983 102.3019700  76.7190673  -0.2601026
 103.3623823  77.2188057  -1.2180526 102.1916458  63.9124108   8.6211686
 101.2739019  64.1339055   8.4633374 102.6076601  63.9870418   7.7623393
 102.9751506  65.3115524   3.7514366 103.7223325  65.8236921   3.4421488
 103.2443095  64.9899576   4.6118760 101.2478156  67.8074064   0.7341321
 100.3389375  67.5233097   0.8313790 101.2773240  68.2273143  -0.1255373
 106.4797423  71.4180654   4.5032488 106.0259750  70.5771564   4.5597679
 105.8491390  72.0542052   4.8407268 105.4230343  62.3472640   5.7333156
 104.6853100  61.8350026   6.0643398 105.6757116  61.9073022   4.9216432
 104.9230362  73.2557151   5.4382306 105.2153337  73.8162208   4.7194672
 105.4328983  73.5485712   6.1935465 105.5241970  55.1248892   6.3274925
 105.8300847  54.2646255   6.0400840 106.2494575  55.7166512   6.1273919
  91.8166326  65.5279579   4.7156523  91.6190726  64.9348939   3.9907589
  91.2612990  65.2231789   5.4332462  99.7963050  65.4202685   6.8351116
  99.8511660  64.4676521   6.7593592  98.9854252  65.5762124   7.3192414
 100.9454244  69.3482808  -1.9270601 100.5073674  68.6318667  -2.3864964
 101.6864684  69.5758923  -2.4885509  97.7355410  64.0379745   4.5941495
  96.9223275  64.3373915   5.0006687  98.2314404  63.6435434   5.3115977
  99.8863988  74.0337502   6.5275759  99.8440166  74.2598348   5.5984291
 100.8026686  73.8000876   6.6761561 103.3329621  64.5021569  13.4256389
 103.6879009  64.7293042  14.2850854 103.9801753  64.8339946  12.8033644
 109.0627358  67.6240005   4.1305718 108.9245257  67.8141601   3.2026907
 108.7063577  68.3859388   4.5873769  97.2269485  61.6098100  10.2102730
  97.8668864  61.4686859   9.5125693  96.3947015  61.3232614   9.8341332
 109.0896738  69.6916532   9.1416989 109.5233245  69.5991821   9.9900043
 109.8028319  69.6674033   8.5037005  98.0029788  70.9100531   6.3237722
  98.7970387  70.4150851   6.1220297  97.2921481  70.3818394   5.9605428
 102.8224633  73.2918626  10.6750090 102.8761655  73.8609563  11.4427806
 101.9539414  73.4620511  10.3104127  94.3112552  65.0543612   2.3997475
  93.3810140  64.9928068   2.6167437  94.4070024  64.5319565   1.6034116
  94.2298101  61.5798425   4.9875717  94.4904918  62.4943758   4.8784877
  95.0515273  61.1122868   5.1372329  95.7023026  62.9936182  12.1574541
  96.3746080  62.7853545  11.5087190  94.8752813  62.7958268  11.7179773
 109.9512288  69.7340233  11.6749875 110.1448178  70.6386043  11.9209150
 109.8512906  69.2747652  12.5088460 101.6048598  59.6198123  14.1740202
 100.9576513  60.3188073  14.0804678 102.3749614  60.0534267  14.5416450
 105.0127396  69.8846976  17.2490755 104.8612903  69.6557527  16.3320839
 105.0032076  70.8417577  17.2622100 101.7812733  67.4578888  12.2337022
 102.7104793  67.6090048  12.0605989 101.3603763  67.5462909  11.3785668
 100.5801064  71.4829553  10.0035559 100.4412150  71.1148337  10.8761497
  99.7915661  71.9977192   9.8319517 101.1749216  76.5838649   1.3461096
 101.3500972  76.1126692   2.1606718 100.4882004  77.2104415   1.5742357
 102.1306280  70.8611155   7.3924397 101.7956112  70.8211925   8.2882047
 101.6310225  70.1955871   6.9194807  96.1050524  66.2678785  12.9176978
  95.9670321  65.5359024  13.5188517  97.0155447  66.1787685  12.6361166
 105.0665471  68.2067190  -2.3338543 104.4494642  67.4814018  -2.4305491
 104.5981960  68.9676550  -2.6771469  98.7332824  65.9798745  12.4060658
  99.4432443  65.3391937  12.3647276  98.6902132  66.2311640  13.3286839
 106.7219603  72.9166098  15.3267237 106.6632149  72.2325318  14.6597820
 107.1239121  73.6585088  14.8747863  97.4461758  62.9663963  14.2256297
  96.9099115  62.5154701  14.8777894  96.8578467  63.1009871  13.4826762
  95.7410302  79.7328012   8.1200956  95.9806900  80.3646536   8.7979975
  94.8979498  79.3816052   8.4066315  96.8564017  62.4252614  -3.2117239
  95.9793483  62.3041415  -3.5754992  97.3321770  61.6338692  -3.4638350
 106.7237010  70.8805682  13.5581217 105.8363789  70.5431604  13.6807616
 107.2935561  70.1488713  13.7949982  88.3766157  67.2129774   6.8824268
  89.0637197  66.8991504   6.2945283  88.2214286  68.1171138   6.6091520
  93.1800879  62.1019970  11.3109292  93.0959068  61.4945640  10.5759702
  92.3583586  62.5928989  11.3118788 100.2538164  75.5407134  10.5242460
 100.1808335  76.3462106  11.0361764  99.8115557  75.7399100   9.6990481
 100.0427943  74.7778904   4.0345281  99.2595465  75.3200585   4.1283506
 100.7420688  75.2952884   4.4339523 103.3524593  60.5873534   6.6779487
 103.8493293  59.8343496   6.3580557 102.5811575  60.6237850   6.1122696
 111.2054351  66.2913899   8.3197778 111.1944227  67.1738615   7.9491711
 110.3371730  65.9385450   8.1252315 102.7136847  75.4393968  12.6800619
 103.4264819  76.0741433  12.6076520 102.2226876  75.5357834  11.8640620
 104.4354374  69.3445221   4.2517910 103.5010653  69.4646684   4.0822615
 104.6131042  68.4417688   3.9877920  99.9359562  62.7290917   6.4051171
  99.5657350  62.1761957   7.0932077 100.4318654  62.1249050   5.8526172
 107.8226925  65.1862540   4.7867944 108.2887378  66.0190532   4.7128247
 108.2734426  64.7207522   5.4913203  97.7648761  73.1888412  13.5006189
  98.4658220  73.8224895  13.6535584  97.2943876  73.5303143  12.7401829
 105.8903156  71.5306362   1.7854096 106.1663000  71.4162956   2.6947971
 105.0207655  71.1323846   1.7466270 105.7943588  57.5543127   8.8258846
 104.8806668  57.7847354   8.9941053 106.2236690  57.6381571   9.6772878
 105.5650047  65.7433019  11.3258740 104.9121497  65.9908927  10.6711193
 105.9430426  64.9297157  10.9921217 102.5257220  75.7792712   5.4286910
 102.7079615  74.9614368   5.8914662 103.3490206  75.9960405   4.9911800
 102.8599386  74.7060898   2.6901959 103.3887152  74.1953352   2.0772121
 103.1227606  74.3903428   3.5547492 101.6137620  66.4852830  17.8124777
 100.9378257  66.3846960  18.4827152 102.4365253  66.3292044  18.2760774
  93.3616479  72.7224767  10.4337292  93.9469915  71.9768455  10.5665196
  93.1641317  73.0328724  11.3173956  96.2155134  75.7576014   5.4499734
  95.5465509  76.2422142   4.9663775  96.0768004  76.0045235   6.3643113
  87.9534133  65.2930367   9.1541735  87.9918233  64.7593958   9.9478853
  87.4474426  64.7665573   8.5352712 100.3560402  77.7919758  12.0482393
 100.9078710  77.9551379  12.8131478 100.6966596  78.3824196  11.3762418
  95.3324896  60.1394908  12.6504278  95.3966222  61.0009738  12.2381675
  95.2692016  59.5268909  11.9176636  94.8077168  62.2118040  16.2977312
  95.4349207  61.8295117  16.9114836  93.9505087  61.9932242  16.6633004
 105.2071277  72.6181015  17.9031047 105.7511181  73.2310974  17.4086002
 104.6258122  73.1760594  18.4198060  91.5842711  64.0194469   2.2295667
  91.8796152  63.1105148   2.1762720  90.6830747  63.9982209   1.9076669
 103.4928790  75.7401733   9.0346075 103.3679929  74.9391473   8.5257021
 104.1507881  76.2347927   8.5460045  95.1136958  62.0950466   8.2123215
  94.3923544  62.7086434   8.0730689  95.9030214  62.6308231   8.1339861
 105.5563698  73.5410753  10.6625625 104.6094034  73.4216105  10.5903952
 105.9046471  72.6533251  10.7451887  97.9163271  59.4304892  14.4863867
  98.4397673  59.6767189  15.2490176  97.6975605  60.2624927  14.0667004
  93.3130553  61.7008567   2.3534992  92.9843259  60.8205946   2.1710098
  93.6669923  61.6456236   3.2411381 102.5610131  73.3363470   6.8629977
 102.4135094  72.4080177   7.0437547 103.3863625  73.3583560   6.3787053
  96.4272376  61.9881537   2.7210469  96.7668448  62.5167458   1.9989078
  96.8744496  62.3261943   3.4969036 106.1644253  74.1592028   7.9494850
 107.0890801  73.9534890   7.8119301 105.9959557  73.9108430   8.8584192
  99.1215817  60.3718587  12.1713538  98.7812637  59.5726400  12.5734217
  98.4154823  60.6720298  11.5990371  99.7732288  57.4567900  10.6240861
 100.5958358  56.9828378  10.5019751 100.0170352  58.2358384  11.1239547
  98.4140523  60.4856158   0.9203762  99.1348885  60.8637411   0.4167479
  97.7905827  61.2045035   1.0238740 102.5571646  61.1901307   1.8562095
 102.7735260  62.0725945   1.5550923 102.0765713  60.7987521   1.1267737
  97.2970867  64.1487020   8.4332839  97.1515448  64.4627324   9.3257121
  96.8196071  64.7671921   7.8803738  99.1567250  61.1389568   8.4813729
  99.1428819  60.2430662   8.1446027  99.8739678  61.1460232   9.1152015
 101.0093381  61.5726909  10.5266856 100.7511159  62.4943979  10.5251187
 100.4778421  61.1757343  11.2167320 105.9539569  74.6777696   3.3056942
 106.1276447  74.1124118   2.5530794 106.4468461  75.4778591   3.1236431
  91.7716529  66.6892365  11.3720500  91.2269997  67.4652173  11.5040775
  92.6495879  67.0363169  11.2139622  98.5604146  60.0203949   3.7501299
  98.6820057  59.0920595   3.9492186  98.2706188  60.0342635   2.8379614
 101.4295336  57.7058859   6.8868019 101.4517033  57.7698192   5.9319998
 101.8463395  56.8663368   7.0808525 111.8078961  67.4414119   4.9247241
 112.2510107  66.6921444   4.5266365 110.9305471  67.4324255   4.5420973
 106.9414742  73.9944460   0.4053840 107.6365647  74.6151153   0.6241154
 107.2837892  73.1439811   0.6806218  92.5582551  65.8162261  14.2650657
  91.8164287  65.9644897  14.8515288  92.2375295  66.0770527  13.4017407
 108.8406165  71.4444166   1.9341171 109.3657489  71.7831438   1.2090491
 108.7528518  70.5091181   1.7504305 100.5026214  75.3578239  14.0631047
 100.8113340  75.1127386  14.9353747 101.3001696  75.5624878  13.5749917
 100.5246826  77.5116149   6.2936424 100.0851816  77.0192528   6.9869280
 101.2754943  76.9689117   6.0528499  93.0039165  73.7027690   6.2961052
  93.8297185  73.4031462   5.9159695  92.6533217  72.9335312   6.7450841
  97.9720698  73.0554158   8.3658725  97.3500707  72.3924863   8.0660953
  98.6425565  73.0815290   7.6832373  91.2047770  71.6214016   7.2549985
  90.3679678  71.1936191   7.0733987  91.1771415  71.8146460   8.1920777
  98.0445225  61.5335946  17.9591231  98.0933381  62.4098069  17.5769001
  98.5867740  60.9913339  17.3862875 108.5300071  72.0777069  17.2392369
 107.7395615  72.0601208  16.6996868 108.2933426  72.6165363  17.9941405
 108.6497946  68.9269536  14.5525097 108.6995951  68.7619543  15.4940620
 108.5411870  68.0596795  14.1622978  97.5334205  71.6058081   1.8417186
  97.6822325  72.2893546   1.1883859  98.3400648  71.5863172   2.3566642
 105.9401709  64.9100464  15.8684404 106.8411571  64.7706929  15.5768402
 106.0149683  65.0754919  16.8082581 100.2744514  62.2867319  14.7137590
  99.4047823  62.5800885  14.4420179 100.5103994  62.8707764  15.4344854
 110.1516143  71.3466477  14.7967119 109.8600951  71.7096458  15.6330580
 109.5388274  70.6333486  14.6180451 111.3511825  68.9119357   7.3169689
 112.1858717  69.3509161   7.4807249 111.4870954  68.4358010   6.4977935
 108.4003331  66.4699092  13.2647177 108.8757453  66.6626738  12.4566028
 107.4768897  66.5258278  13.0190560  95.2886838  67.6323259   2.8478255
  95.0432880  66.7285589   3.0458465  95.4582752  67.6340410   1.9057733
 102.9783548  58.5046935  12.2303011 103.4965492  59.2407962  11.9049499
 102.6238681  58.8110929  13.0649770  94.5582485  63.3651617   0.3464416
  93.8651730  63.4395972  -0.3095548  94.3134237  62.6011960   0.8685933
 103.2296142  54.9247218   7.7503907 103.5097896  54.2570407   8.3764334
 104.0146749  55.1176314   7.2378571 101.0329610  74.1006212  -0.6871067
 100.4603577  74.7196399  -1.1400595 101.6062404  74.6505574  -0.1531145
 107.1005000  63.3464852  11.4975482 108.0522423  63.4462950  11.5187706
 106.9308451  62.5543121  12.0073567 105.1219380  60.4320435  11.6834883
 104.5269312  60.7125448  10.9881372 104.8369076  60.9214336  12.4551624
 104.2526870  74.3843362   0.4437516 105.1857543  74.3188924   0.6470391
 104.1650083  75.2199629  -0.0147952 109.5793078  66.5670972  10.6117782
 109.5469398  65.6286972  10.7977466 110.1893702  66.6455008   9.8783607
 101.4176409  65.4367025  -3.3455014 102.3635514  65.3073233  -3.2766596
 101.0390654  64.6981687  -2.8685586 109.7287567  63.3582015  10.6576065
 109.2126615  62.5740472  10.4705994 110.6127515  63.0300732  10.8222585
 107.3898293  57.1023031   6.6171878 107.1923115  56.7938119   7.5015210
 107.9997999  57.8284670   6.7469808 115.3969628  67.6286979   9.7523819
 116.1273016  67.3672267  10.3131522 114.7876573  66.8915700   9.7925887
 113.4784925  65.7694841  10.3498270 112.7518089  65.6350806   9.7414761
 113.0632212  66.0771670  11.1554988 101.3015101  69.4884771  18.1145643
 102.2218111  69.6663370  18.3085689 101.2664684  68.5440816  17.9625342
  99.6019326  63.3617001  -3.4100129  98.6950781  63.0650114  -3.3337415
  99.8795307  63.0646819  -4.2765843  90.5197266  64.6823364   7.0398918
  90.2000051  63.8288673   6.7473292  89.9730695  64.8971943   7.7956885
  94.2977174  67.3985805  10.7568424  94.5163184  68.3302913  10.7756458
  94.7102948  67.0393780  11.5423228 101.2181392  57.9053891   2.7444112
 100.4082120  57.5600976   3.1199359 101.9065809  57.5961434   3.3331724
 103.1471940  56.9831938   4.3668409 103.7002979  57.4027391   5.0258432
 103.3842026  56.0567686   4.4091365  99.1705039  62.9719011  20.1471173
  99.0701766  63.9213368  20.0783264  98.9526581  62.6437250  19.2747243
  98.3718111  60.2203936  -3.2688150  99.2337275  60.5458835  -3.0092332
  98.5568455  59.4335432  -3.7815084  90.3885526  68.3026276   9.0092039
  89.6948998  67.8880229   8.4961994  91.1358517  68.3446812   8.4125458
 106.5250747  59.0932463   3.8747073 105.9449416  59.7517267   3.4925126
 106.2586680  58.2709807   3.4634491 104.9754314  58.4937520   6.0768394
 105.4754092  58.6054055   5.2682712 105.6189921  58.1898573   6.7169202
  99.0336309  66.4016150  18.9636235  98.5503391  67.2016510  19.1700124
  99.1197248  66.4124095  18.0103679  92.3022269  68.2344530   6.8858054
  92.2792957  68.3332217   5.9339937  92.6122905  69.0809681   7.2075220
  94.9609647  70.2920685  11.0004668  95.9152900  70.2604627  10.9334600
  94.7622170  69.8311308  11.8154894  95.5509029  68.8621801  13.5675466
  96.3701918  69.3565879  13.5910303  95.8245837  67.9453769  13.5393034
 105.3075625  61.2532553   2.9303422 104.4201480  61.5382204   2.7123616
 105.7229614  61.0926316   2.0830698 108.6590161  61.2779074   6.6457761
 109.4350551  61.7675527   6.9182378 107.9338295  61.7037128   7.1029630
 111.0962720  61.9906693   7.7031701 111.6907211  61.7502429   6.9925010
 111.1689304  61.2713824   8.3305238  93.3159876  75.8340304   8.0174866
  93.1814344  75.0740705   7.4512864  92.8991938  76.5581204   7.5503655
 104.4518839  71.0177228  -2.9748558 105.1554689  71.2227230  -2.3590903
 103.7281487  71.5853990  -2.7099475 105.2816649  66.7687089   3.1453712
 105.2251850  67.2255640   2.3061344 105.8344991  66.0077774   2.9676555
 109.0921455  62.5576821   3.9703831 108.8358389  62.1573457   4.8012039
 108.4674323  63.2720615   3.8453970 113.4033793  65.2972894   6.4775123
 112.8433351  65.3666083   7.2506685 112.7977296  65.1213879   5.7574619
  96.4729001  76.7309621   8.2293309  96.3561386  77.6755054   8.1271999
  95.6521448  76.4283183   8.6179108 106.3605536  71.4559757  -0.9250098
 107.1951140  71.0240955  -1.1072624 106.1989879  71.2841771   0.0026796
 106.0151428  67.9591870   0.4406241 105.9600232  67.7936142  -0.5005315
 105.3897483  68.6667903   0.5968431  90.8043943  63.1959935  14.2667663
  91.4502807  62.6858889  14.7554888  90.5961094  63.9328616  14.8411088
 103.3297335  70.2640782  19.7659804 104.1988495  70.4381434  19.4046439
 102.8504087  71.0835199  19.6435533  99.3247554  57.4599979   0.0191559
  99.3126224  58.4041819   0.1759830 100.2170976  57.2770125  -0.2748979
  97.4983516  77.3837883  11.4449237  98.4010762  77.4161493  11.7615732
  97.2720886  76.4538334  11.4595573  99.2537118  76.1368870   8.1059316
  98.3032749  76.1370731   7.9923688  99.5569604  75.3901604   7.5895351
 103.1399673  54.0542756   4.2737496 102.3732069  53.5001243   4.4194178
 103.5510378  54.1264625   5.1351648  95.1441434  60.3427552  18.3642677
  96.0072896  59.9864357  18.5746002  94.5706845  60.0041447  19.0518082
 114.9889811  81.9729408   9.1705078 115.6268221  81.8536155   8.4668418
 114.8710654  82.9210252   9.2293031 111.7979517  81.9256836   9.1066603
 111.4598029  81.8097901   8.2187138 112.6669286  81.5248001   9.0867609
 107.6566333  83.7792313   5.0963494 107.0931198  83.6882250   4.3279782
 107.5418728  82.9592217   5.5765987 112.2799300  83.0791688  15.0652809
 112.2687941  82.6844486  14.1933312 112.4419940  82.3457761  15.6586580
 105.2030765  85.2743504   7.9347714 105.9952057  84.9334329   7.5194014
 105.4427415  85.3838479   8.8549868 109.0006562  85.8628800  14.0131993
 108.7096428  86.7674431  13.8978659 109.6363546  85.9045327  14.7276062
 109.9262768  83.2405648  10.6033352 110.5226341  83.0161671   9.8890315
 109.9837740  82.4990394  11.2058800 114.5431080  79.6980862   6.2458286
 115.3294169  79.2800285   5.8948703 114.8069784  80.6026954   6.4139935
 119.9439507  79.6356095   7.1491265 120.6764679  79.0655312   7.3829094
 119.1878862  79.2477696   7.5897770 111.5615626  82.0583337   4.3454607
 111.1973834  81.5313958   5.0567529 112.4182742  81.6681806   4.1721093
 117.4664927  73.3477669  11.6085874 117.1348252  74.2173080  11.3847089
 116.8710540  73.0313953  12.2879904 113.9596447  85.5490215  11.0081786
 113.6597170  86.4515254  10.8997593 113.6147506  85.2822398  11.8602939
 107.4108928  82.0004012   7.0418491 106.4859425  81.8680226   7.2496182
 107.6593341  82.7798231   7.5388433 117.3593590  78.0672755   8.6879224
 116.4510468  77.9988164   8.3937985 117.3081186  78.5444700   9.5161049
 104.7717739  81.6437286   7.8762280 104.9010120  81.8971765   8.7901691
 104.0915190  82.2364994   7.5566935 111.4334456  79.4862401  16.6314121
 110.6567790  80.0456321  16.6216985 112.0725019  79.9719184  17.1528991
 119.2255237  76.2689194  10.4657097 118.5829617  76.5621727   9.8196892
 118.7210165  76.1542114  11.2710294 109.6880829  82.2947854  16.1932088
 110.4295513  82.8332898  15.9166911 108.9817814  82.9214143  16.3503640
 115.1636168  84.4376995  14.7904249 115.5719524  83.9959405  14.0458882
 114.4413430  83.8629622  15.0438442 111.5167238  79.3749602  12.1637806
 112.3628433  79.7989015  12.3072455 111.4565876  78.7183226  12.8576369
 115.4864983  84.9978185   8.5456538 114.8573845  85.1623900   7.8432606
 115.0990645  85.4119795   9.3167502 114.6666684  77.0353970  13.8218980
 114.4227615  77.7896030  13.2853256 114.9426614  77.4139318  14.6566227
 116.6205146  83.5792582  12.4996246 116.8322042  84.2224342  11.8230627
 116.5734895  82.7454899  12.0318176 114.2231375  76.1910403   9.4032818
 113.3615854  76.4891657   9.6949555 114.2493810  76.4080802   8.4713850
 107.9317026  84.2824075   8.7486387 108.5018383  84.7111343   8.1103871
 108.5225138  84.0006660   9.4470572 109.9761831  80.8575746   2.6196188
 110.6785874  81.3096790   3.0870115 109.6442459  80.2159565   3.2476082
 108.4242192  79.4487503  16.9947398 107.7940853  80.1303783  17.2282795
 108.3178280  79.3370584  16.0500536 103.7187165  79.1159299   7.9213322
 102.9286219  79.3716827   7.4453433 104.2098412  79.9307636   8.0265363
 117.7350974  86.4564538  10.6718603 118.5568418  86.0544725  10.3901284
 117.7313377  86.3532772  11.6234719 105.6701910  79.4803878   4.8796799
 104.8733073  79.5922572   5.3980294 105.4427502  79.8190530   4.0137689
 111.5007578  86.0048581  12.8279313 111.5652010  86.4668988  13.6637485
 110.7918502  85.3745946  12.9561623 102.0024868  79.3689789  10.3528313
 102.2532906  80.2536799  10.6185889 102.5384416  79.1894391   9.5803405
 107.7022935  73.7508268  19.3572649 107.3089881  73.1974467  20.0320293
 108.5189075  74.0618847  19.7479166 104.6684993  85.1892127   3.2686219
 105.1809513  85.9835377   3.4191783 105.3207706  84.4918417   3.2019820
 110.6190896  75.1666147  16.9492905 111.3600609  75.7673301  16.8697368
 110.8508819  74.4243785  16.3910948 105.7632234  80.3522515  15.2271135
 105.6485749  79.4507772  15.5278234 104.9076752  80.5986211  14.8755952
 112.8424072  88.2940255  16.8258636 112.3987926  87.5076634  16.5079540
 113.5041285  88.4819406  16.1602527 107.6011193  89.8236057  11.3519314
 108.1518618  89.6953120  10.5796308 106.7622669  90.1230946  11.0014207
 114.9405310  88.5743055  14.8540037 114.9223785  89.3951936  14.3620306
 115.8625230  88.4497130  15.0790178 111.3978364  86.0887184  15.6963545
 111.9306701  85.3275473  15.4662853 110.8692445  85.7960836  16.4387700
 114.5648059  71.1947250  11.2257187 114.2212328  72.0848892  11.1496298
 114.9327022  71.0048908  10.3626772 102.6333910  83.5180781   4.0445789
 103.4709132  83.9277789   3.8279497 102.8112177  82.5780223   4.0145983
 112.1145453  76.0305562   4.7914861 111.2587049  75.6412413   4.6120499
 112.5272404  76.1097523   3.9314646 113.6444599  73.5651906   9.1906420
 113.1409395  73.5282041   8.3774226 113.9375206  74.4744648   9.2503077
 109.8887485  73.6490635   8.1972602 110.7540482  73.4533444   7.8378492
 109.9564994  73.4200987   9.1241959 117.7423923  83.4122197   8.3249404
 117.0847597  84.1021459   8.4129532 118.5464322  83.8018629   8.6683390
 107.4949804  75.8792843   5.5688969 108.0693556  75.6568025   4.8362162
 108.0820787  75.9481538   6.3217570 116.5529381  81.7666570   6.3753345
 117.0661263  82.3996562   6.8775055 117.2030605  81.1667766   6.0096705
 109.7972472  72.7534092   4.2964038 109.1436884  72.4383109   3.6720653
 109.7552946  72.1309833   5.0223861 113.0310212  79.2416026   8.6211686
 112.1132774  79.4630973   8.4633374 113.4470356  79.3162336   7.7623393
 116.2624097  77.6764558   5.7333156 115.5246854  77.1641944   6.0643398
 116.5150871  77.2364939   4.9216432 116.3635725  70.4540810   6.3274925
 116.6694601  69.5938173   6.0400840 117.0888329  71.0458430   6.1273919
 102.6560081  80.8571496   4.7156523 102.4584480  80.2640857   3.9907589
 102.1006745  80.5523706   5.4332462 110.6356804  80.7494603   6.8351116
 110.6905414  79.7968439   6.7593592 109.8248006  80.9054042   7.3192414
 108.5749164  79.3671662   4.5941495 107.7617030  79.6665833   5.0006687
 109.0708158  78.9727351   5.3115977 114.1723376  79.8313487  13.4256389
 114.5272764  80.0584960  14.2850854 114.8195507  80.1631864  12.8033644
 108.0663239  76.9390018  10.2102730 108.7062618  76.7978777   9.5125693
 107.2340770  76.6524531   9.8341332 108.8423543  86.2392448   6.3237722
 109.6364141  85.7442768   6.1220297 108.1315235  85.7110311   5.9605428
 113.6618387  88.6210544  10.6750090 113.7155410  89.1901480  11.4427806
 112.7933169  88.7912429  10.3104127 105.1506306  80.3835530   2.3997475
 104.2203894  80.3219986   2.6167437 105.2463778  79.8611483   1.6034116
 105.0691855  76.9090343   4.9875717 105.3298673  77.8235676   4.8784877
 105.8909028  76.4414785   5.1372329 106.5416781  78.3228100  12.1574541
 107.2139834  78.1145462  11.5087190 105.7146567  78.1250186  11.7179773
 120.7906042  85.0632150  11.6749875 120.9841932  85.9677961  11.9209150
 120.6906660  84.6039570  12.5088460 112.4442353  74.9490041  14.1740202
 111.7970268  75.6479991  14.0804678 113.2143368  75.3826185  14.5416450
 115.8521151  85.2138893  17.2490755 115.7006657  84.9849445  16.3320839
 115.8425830  86.1709495  17.2622100 112.6206487  82.7870806  12.2337022
 113.5498547  82.9381966  12.0605989 112.1997517  82.8754827  11.3785668
 111.4194819  86.8121470  10.0035559 111.2805905  86.4440255  10.8761497
 110.6309415  87.3269110   9.8319517 112.9700034  86.1903073   7.3924397
 112.6349867  86.1503843   8.2882047 112.4703980  85.5247789   6.9194807
 106.9444278  81.5970703  12.9176978 106.8064076  80.8650942  13.5188517
 107.8549201  81.5079603  12.6361166 109.5726579  81.3090662  12.4060658
 110.2826197  80.6683855  12.3647276 109.5295887  81.5603557  13.3286839
 117.5613357  88.2458016  15.3267237 117.5025904  87.5617236  14.6597820
 117.9632876  88.9877006  14.8747863 108.2855513  78.2955880  14.2256297
 107.7492870  77.8446619  14.8777894 107.6972221  78.4301789  13.4826762
 117.5630765  86.2097600  13.5581217 116.6757543  85.8723521  13.6807616
 118.1329316  85.4780631  13.7949982  99.2159912  82.5421691   6.8824268
  99.9030952  82.2283421   6.2945283  99.0608040  83.4463056   6.6091520
 104.0194634  77.4311888  11.3109292 103.9352823  76.8237558  10.5759702
 103.1977340  77.9220906  11.3118788 111.0931918  90.8699052  10.5242460
 111.0202089  91.6754024  11.0361764 110.6509311  91.0691018   9.6990481
 114.1918348  75.9165452   6.6779487 114.6887047  75.1635414   6.3580557
 113.4205329  75.9529768   6.1122696 113.5530602  90.7685886  12.6800619
 114.2658574  91.4033351  12.6076520 113.0620630  90.8649752  11.8640620
 110.7753317  78.0582834   6.4051171 110.4051104  77.5053875   7.0932077
 111.2712409  77.4540968   5.8526172 108.6042515  88.5180330  13.5006189
 109.3051975  89.1516812  13.6535584 108.1337630  88.8595061  12.7401829
 116.6337343  72.8835045   8.8258846 115.7200422  73.1139272   8.9941053
 117.0630444  72.9673489   9.6772878 116.4043801  81.0724937  11.3258740
 115.7515251  81.3200844  10.6711193 116.7824181  80.2589075  10.9921217
 112.4531374  81.8144748  17.8124777 111.7772011  81.7138877  18.4827152
 113.2759008  81.6583962  18.2760774 104.2010233  88.0516685  10.4337292
 104.7863670  87.3060372  10.5665196 104.0035072  88.3620641  11.3173956
  98.7927888  80.6222285   9.1541735  98.8311987  80.0885875   9.9478853
  98.2868181  80.0957490   8.5352712 111.1954157  93.1211675  12.0482393
 111.7472465  93.2843297  12.8131478 111.5360350  93.7116113  11.3762418
 106.1718650  75.4686825  12.6504278 106.2359977  76.3301656  12.2381675
 106.1085770  74.8560827  11.9176636 105.6470923  77.5409958  16.2977312
 106.2742962  77.1587035  16.9114836 104.7898842  77.3224160  16.6633004
 116.0465031  87.9472933  17.9031047 116.5904935  88.5602891  17.4086002
 115.4651876  88.5052511  18.4198060 102.4236465  79.3486387   2.2295667
 102.7189907  78.4397065   2.1762720 101.5224501  79.3274126   1.9076669
 105.9530712  77.4242383   8.2123215 105.2317298  78.0378351   8.0730689
 106.7423968  77.9600148   8.1339861 116.3957453  88.8702671  10.6625625
 115.4487788  88.7508022  10.5903952 116.7440226  87.9825169  10.7451887
 108.7557026  74.7596810  14.4863867 109.2791428  75.0059107  15.2490176
 108.5369359  75.5916845  14.0667004 104.1524307  77.0300485   2.3534992
 103.8237013  76.1497864   2.1710098 104.5063678  76.9748153   3.2411381
 107.2666130  77.3173454   2.7210469 107.6062203  77.8459376   1.9989078
 107.7138251  77.6553861   3.4969036 109.9609571  75.7010505  12.1713538
 109.6206391  74.9018318  12.5734217 109.2548577  76.0012216  11.5990371
 110.6126043  72.7859818  10.6240861 111.4352112  72.3120296  10.5019751
 110.8564106  73.5650301  11.1239547 109.2534277  75.8148076   0.9203762
 109.9742640  76.1929329   0.4167479 108.6299581  76.5336953   1.0238740
 108.1364622  79.4778938   8.4332839 107.9909202  79.7919241   9.3257121
 107.6589825  80.0963838   7.8803738 109.9961004  76.4681486   8.4813729
 109.9822573  75.5722579   8.1446027 110.7133433  76.4752150   9.1152015
 111.8487135  76.9018826  10.5266856 111.5904913  77.8235897  10.5251187
 111.3172176  76.5049261  11.2167320 102.6110284  82.0184283  11.3720500
 102.0663752  82.7944091  11.5040775 103.4889634  82.3655087  11.2139622
 109.3997900  75.3495866   3.7501299 109.5213812  74.4212513   3.9492186
 109.1099943  75.3634552   2.8379614 112.2689091  73.0350777   6.8868019
 112.2910788  73.0990110   5.9319998 112.6857150  72.1955286   7.0808525
 103.3976306  81.1454179  14.2650657 102.6558042  81.2936814  14.8515288
 103.0769050  81.4062444  13.4017407 111.3419968  90.6870157  14.0631047
 111.6507095  90.4419304  14.9353747 112.1395450  90.8916796  13.5749917
 103.8432919  89.0319608   6.2961052 104.6690939  88.7323379   5.9159695
 103.4926971  88.2627230   6.7450841 108.8114452  88.3846076   8.3658725
 108.1894462  87.7216781   8.0660953 109.4819319  88.4107208   7.6832373
 102.0441524  86.9505934   7.2549985 101.2073433  86.5228108   7.0733987
 102.0165170  87.1438377   8.1920777 108.8838980  76.8627864  17.9591231
 108.9327135  77.7389987  17.5769001 109.4261494  76.3205257  17.3862875
 119.3693826  87.4068987  17.2392369 118.5789369  87.3893126  16.6996868
 119.1327180  87.9457281  17.9941405 119.4891701  84.2561453  14.5525097
 119.5389706  84.0911461  15.4940620 119.3805624  83.3888712  14.1622978
 116.7795463  80.2392381  15.8684404 117.6805326  80.0998846  15.5768402
 116.8543438  80.4046836  16.8082581 111.1138268  77.6159236  14.7137590
 110.2441578  77.9092802  14.4420179 111.3497749  78.1999681  15.4344854
 120.9909898  86.6758395  14.7967119 120.6994706  87.0388375  15.6330580
 120.3782029  85.9625403  14.6180451 119.2397086  81.7991010  13.2647177
 119.7151207  81.9918656  12.4566028 118.3162651  81.8550195  13.0190560
 113.8177302  73.8338853  12.2303011 114.3359246  74.5699880  11.9049499
 113.4632435  74.1402846  13.0649770 105.3976240  78.6943534   0.3464416
 104.7045485  78.7687889  -0.3095548 105.1527992  77.9303878   0.8685933
 114.0689896  70.2539136   7.7503907 114.3491650  69.5862325   8.3764334
 114.8540503  70.4468231   7.2378571 117.9398755  78.6756770  11.4975482
 118.8916178  78.7754867  11.5187706 117.7702205  77.8835038  12.0073567
 115.9613134  75.7612353  11.6834883 115.3663066  76.0417366  10.9881372
 115.6762831  76.2506254  12.4551624 120.4186833  81.8962889  10.6117782
 120.3863153  80.9578890  10.7977466 121.0287456  81.9746926   9.8783607
 120.5681321  78.6873933  10.6576065 120.0520370  77.9032389  10.4705994
 121.4521270  78.3592649  10.8222585 118.2292048  72.4314948   6.6171878
 118.0316869  72.1230037   7.5015210 118.8391754  73.1576587   6.7469808
 124.3178680  81.0986759  10.3498270 123.5911843  80.9642724   9.7414761
 123.9025966  81.4063587  11.1554988 112.1408856  84.8176688  18.1145643
 113.0611865  84.9955287  18.3085689 112.1058439  83.8732734  17.9625342
 101.3591021  80.0115282   7.0398918 101.0393805  79.1580590   6.7473292
 100.8124449  80.2263860   7.7956885 105.1370928  82.7277723  10.7568424
 105.3556938  83.6594831  10.7756458 105.5496702  82.3685698  11.5423228
 112.0575146  73.2345808   2.7444112 111.2475875  72.8892893   3.1199359
 112.7459563  72.9253352   3.3331724 113.9865695  72.3123855   4.3668409
 114.5396733  72.7319309   5.0258432 114.2235781  71.3859603   4.4091365
 110.0098794  78.3010929  20.1471173 109.9095521  79.2505286  20.0783264
 109.7920336  77.9729168  19.2747243 101.2279281  83.6318194   9.0092039
 100.5342752  83.2172146   8.4961994 101.9752272  83.6738730   8.4125458
 117.3644502  74.4224380   3.8747073 116.7843171  75.0809184   3.4925126
 117.0980434  73.6001725   3.4634491 115.8148068  73.8229438   6.0768394
 116.3147846  73.9345973   5.2682712 116.4583676  73.5190491   6.7169202
 109.8730064  81.7308068  18.9636235 109.3897146  82.5308428  19.1700124
 109.9591003  81.7416013  18.0103679 103.1416023  83.5636447   6.8858054
 103.1186712  83.6624135   5.9339937 103.4516660  84.4101598   7.2075220
 105.8003401  85.6212602  11.0004668 106.7546655  85.5896545  10.9334600
 105.6015925  85.1603226  11.8154894 106.3902783  84.1913718  13.5675466
 107.2095672  84.6857797  13.5910303 106.6639591  83.2745687  13.5393034
 119.4983916  76.6070992   6.6457761 120.2744306  77.0967444   6.9182378
 118.7732050  77.0329046   7.1029630 121.9356474  77.3198611   7.7031701
 122.5300965  77.0794347   6.9925010 122.0083058  76.6005742   8.3305238
 104.1553630  91.1632222   8.0174866 104.0208098  90.4032623   7.4512864
 103.7385692  91.8873122   7.5503655 107.3122756  92.0601539   8.2293309
 107.1955140  93.0046971   8.1271999 106.4915202  91.7575100   8.6179108
 101.6437698  78.5251852  14.2667663 102.2896561  78.0150806  14.7554888
 101.4354849  79.2620534  14.8411088 114.1691090  85.5932700  19.7659804
 115.0382250  85.7673352  19.4046439 113.6897841  86.4127117  19.6435533
 110.1641308  72.7891897   0.0191559 110.1519978  73.7333737   0.1759830
 111.0564730  72.6062042  -0.2748979 108.3377270  92.7129801  11.4449237
 109.2404517  92.7453411  11.7615732 108.1114640  91.7830252  11.4595573
 113.9793428  69.3834674   4.2737496 113.2125823  68.8293160   4.4194178
 114.3904133  69.4556542   5.1351648 105.9835189  75.6719469  18.3642677
 106.8466650  75.3156274  18.5746002 105.4100599  75.3333364  19.0518082
 122.2728211  94.8154319  16.6314121 121.4961545  95.3748239  16.6216985
 122.9118774  95.3011102  17.1528991 119.2635947  94.7779420  16.9947398
 118.6334607  95.4595701  17.2282795 119.1572035  94.6662502  16.0500536
 118.5416689  89.0800186  19.3572649 118.1483635  88.5266385  20.0320293
 119.3582830  89.3910765  19.7479166 121.4584650  90.4958065  16.9492905
 122.1994364  91.0965218  16.8697368 121.6902573  89.7535703  16.3910948
 116.6025988  95.6814432  15.2271135 116.4879504  94.7799690  15.5278234
 115.7470506  95.9278129  14.8755952 123.2836107  90.2781959  14.1740202
 122.6364022  90.9771908  14.0804678 124.0537123  90.7118103  14.5416450
 119.1249267  93.6247798  14.2256297 118.5886624  93.1738536  14.8777894
 118.5365976  93.7593707  13.4826762 123.2925129  97.1436666  17.8124777
 122.6165766  97.0430795  18.4827152 124.1152762  96.9875879  18.2760774
 117.0112405  90.7978743  12.6504278 117.0753731  91.6593574  12.2381675
 116.9479525  90.1852745  11.9176636 116.4864677  92.8701875  16.2977312
 117.1136716  92.4878953  16.9114836 115.6292596  92.6516077  16.6633004
 119.5950780  90.0888728  14.4863867 120.1185182  90.3351024  15.2490176
 119.3763114  90.9208762  14.0667004 114.2370060  96.4746097  14.2650657
 113.4951796  96.6228732  14.8515288 113.9162804  96.7354362  13.4017407
 119.7232734  92.1919781  17.9591231 119.7720890  93.0681904  17.5769001
 120.2655249  91.6497175  17.3862875 121.9532023  92.9451154  14.7137590
 121.0835332  93.2384720  14.4420179 122.1891503  93.5291599  15.4344854
 120.8492548  93.6302847  20.1471173 120.7489275  94.5797204  20.0783264
 120.6314090  93.3021085  19.2747243 120.7123818  97.0599985  18.9636235
 120.2290900  97.8600346  19.1700124 120.7984757  97.0707930  18.0103679
 112.4831452  93.8543770  14.2667663 113.1290316  93.3442724  14.7554888
 112.2748603  94.5912452  14.8411088 116.8228943  91.0011387  18.3642677
 117.6860405  90.6448192  18.5746002 116.2494354  90.6625282  19.0518082
  91.1636564  34.6418542   3.5503942  90.7200418  33.8554921   3.2324847
  91.8253778  34.8297693   2.8847833  93.2617802  34.9221342   1.5785344
  93.2436277  35.7430223   1.0865613  94.1837722  34.7975417   1.8035485
  89.7190856  32.4365472   2.4208852  90.2519193  31.6753760   2.1908160
  89.1904937  32.1439124   3.1633007  94.1733643  31.5617180   3.9736062
  94.0219149  31.3327732   3.0566146  94.1638322  32.5187782   3.9867407
  95.8825850  34.5936303   2.0512544  95.8238396  33.9095523   1.3843127
  96.2845368  35.3355293   1.5993170  95.8843257  32.5575887   0.2826523
  94.9970036  32.2201809   0.4052922  96.4541808  31.8258918   0.5195289
  91.8743094  37.1164173  -0.5954075  92.5871066  37.7511638  -0.6678173
  91.3833122  37.2128039  -1.4114073  90.7743866  28.1623035   4.5370084
  90.0984503  28.0617165   5.2072459  91.5971500  28.0062249   5.0006081
  89.5166649  39.4689963  -1.2272301  90.0684957  39.6321584  -0.4623215
  89.8572843  40.0594401  -1.8992276  94.3677524  34.2951220   4.6276354
  94.9117428  34.9081178   4.1331309  93.7864368  34.8530799   5.1443367
  89.6632461  37.0348444   0.7876354  89.9719587  36.7897591   1.6599053
  90.4607943  37.2395083   0.2995224  97.6906318  33.7547274   3.9637675
  96.9001862  33.7371413   3.4242175  97.4539672  34.2935568   4.7186712
  97.8104193  30.6039741   1.2770404  97.8602198  30.4389748   2.2185927
  97.7018116  29.7367000   0.8868284  99.3122390  33.0236682   1.5212425
  99.0207198  33.3866663   2.3575886  98.6994521  32.3103690   1.3425757
  90.4621348  31.1654976   4.8390950  91.3824358  31.3433575   5.0330996
  90.4270931  30.2211021   4.6870649  92.4903582  31.9410987   6.4905110
  93.3594742  32.1151639   6.1291745  92.0110334  32.7605404   6.3680840
 100.9585764  43.6027041  -4.1688090 100.6204276  43.4868106  -5.0567555
 101.8275532  43.2018206  -4.1887084 101.4405547  44.7561893   1.7898115
 101.4294188  44.3614691   0.9178619 101.6026187  44.0227965   2.3831887
  94.3637012  46.9513709  -5.3406979  95.1558304  46.6104534  -5.7560680
  94.6033662  47.0608684  -4.4204826  98.1612808  47.5399005   0.7377299
  97.8702674  48.4444635   0.6223966  98.7969793  47.5815532   1.4521369
  99.0869015  44.9175853  -2.6721341  99.6832587  44.6931876  -3.3864378
  99.1443987  44.1760599  -2.0695893 103.1202693  47.2260420  -2.2672907
 102.8203416  48.1285459  -2.3757100 102.7753753  46.9592603  -1.4151754
  96.5715175  43.6774217  -6.2336203  95.6465671  43.5450431  -6.0258511
  96.8199588  44.4568436  -5.7366260  93.9323986  43.3207491  -5.3992414
  94.0616367  43.5741969  -4.4853002  93.2521437  43.9135199  -5.7187759
  98.1023473  53.9904740  -9.3001939  98.0247503  54.9412566  -9.2213459
  97.4985117  53.6450613  -8.6427013 100.5940703  41.1632606   3.3559427
  99.8174037  41.7226526   3.3462292 101.2331266  41.6489389   3.8774298
  98.8487075  43.9718059   2.9177394  99.5901760  44.5103103   2.6412218
  98.1424061  44.5984348   3.0748946 104.3242415  46.1147200   1.5149556
 104.7325771  45.6729610   0.7704188 103.6019676  45.5399827   1.7683749
 100.6773485  41.0519807  -1.1116887 101.5234680  41.4759220  -0.9682238
 100.6172123  40.3953431  -0.4178324 104.6471230  46.6748390  -4.7298155
 104.0180092  46.8394104  -5.4322087 104.2596892  47.0890000  -3.9587191
 103.8272930  38.7124175   0.5464287 103.5833862  39.4666235   0.0098562
 104.1032861  39.0909522   1.3811534 105.7811393  45.2562787  -0.7758448
 105.9928288  45.8994547  -1.4524067 105.7341141  44.4225104  -1.2436518
 100.1999191  46.4122798  -7.4648070 100.6637537  46.6910501  -8.2543448
  99.9355990  45.5106243  -7.6474979  97.0923273  45.9594280  -4.5268307
  97.6624630  46.3881548  -5.1650822  97.6831384  45.6776865  -3.8284121
  97.5848439  41.1257707   3.7192704  96.9547100  41.8073988   3.9528101
  97.4784527  41.0140789   2.7745843 106.8957221  48.1334743  -2.6036091
 107.7174665  47.7314930  -2.8853409 106.8919624  48.0302977  -1.6519975
 100.6613824  47.6818786  -0.4475380 100.7258257  48.1439193   0.3882792
  99.9524748  47.0516151  -0.3193070  91.1631114  41.0459994  -2.9226381
  91.4139153  41.9307004  -2.6568805  91.6990663  40.8664595  -3.6951289
  96.8629182  35.4278473   6.0817956  96.4696127  34.8744672   6.7565600
  97.6795322  35.7389052   6.4724473  95.6386124  49.9828088  -7.9245721
  95.8152753  50.9046052  -8.1124738  96.4342958  49.6686507  -7.4951342
  99.7797143  36.8436352   3.6738212 100.5206856  37.4443506   3.5942675
 100.0115066  36.1013990   3.1156255  94.9238481  42.0292720   1.9516442
  94.8091996  41.1277977   2.2523541  94.0682999  42.2756416   1.6001258
 102.0030318  49.9710460   3.5503942 101.5594173  49.1846839   3.2324847
 102.6647532  50.1589610   2.8847833  96.7617440  51.5006262  -1.9235379
  97.3124865  51.3723325  -2.6958385  95.9228916  51.8001151  -2.2740486
 104.1011557  50.2513260   1.5785344 104.0830032  51.0722141   1.0865613
 105.0231477  50.1267335   1.8035485 100.5584611  47.7657389   2.4208852
 101.0912948  47.0045678   2.1908160 100.0298692  47.4731041   3.1633007
  99.8863989  51.0399624  -6.7478934  99.8440168  51.2660471  -7.6770402
 100.8026688  50.8062999  -6.5993133 103.3329623  41.5083692   0.1501695
 103.6879010  41.7355165   1.0096161 103.9801754  41.8402069  -0.4721049
  97.2269486  38.6160223  -3.0651964  97.8668865  38.4748982  -3.7629000
  96.3947016  38.3294736  -3.4413362  98.0029790  47.9162653  -6.9516971
  98.7970388  47.4212973  -7.1534396  97.2921482  47.3880516  -7.3149266
 102.8224634  50.2980749  -2.6004604 102.8761656  50.8671685  -1.8326888
 101.9539416  50.4682634  -2.9650566  95.7023028  39.9998305  -1.1180152
  96.3746081  39.7915667  -1.7667503  94.8752814  39.8020391  -1.5574920
 101.6048600  36.6260246   0.8985509 100.9576515  37.3250196   0.8049985
 102.3749615  37.0596390   1.2661757 105.0127397  46.8909098   3.9736062
 104.8612904  46.6619650   3.0566146 105.0032077  47.8479700   3.9867407
 101.7812734  44.4641011  -1.0417672 102.7104794  44.6152170  -1.2148704
 101.3603764  44.5525032  -1.8969025 100.5801066  48.4891675  -3.2719134
 100.4412151  48.1210460  -2.3993196  99.7915662  49.0039315  -3.4435176
 101.1749218  53.5900772 -11.9293598 101.3500973  53.1188815 -11.1147975
 100.4882006  54.2166538 -11.7012337 102.1306281  47.8673278  -5.8830296
 101.7956113  47.8274048  -4.9872646 101.6310226  47.2017994  -6.3559886
  96.1050525  43.2740908  -0.3577715  95.9670323  42.5421147   0.2433824
  97.0155448  43.1849808  -0.6393527  98.7332825  42.9860867  -0.8694035
  99.4432444  42.3454060  -0.9107417  98.6902134  43.2373762   0.0532145
 106.7219604  49.9228221   2.0512544 106.6632150  49.2387441   1.3843127
 107.1239122  50.6647211   1.5993170  97.4461759  39.9726085   0.9501604
  96.9099116  39.5216824   1.6023200  96.8578468  40.1071994   0.2072068
  95.7410303  56.7390134  -5.1553737  95.9806901  57.3708659  -4.4774719
  94.8979499  56.3878175  -4.8688378 106.7237011  47.8867805   0.2826523
 105.8363790  47.5493726   0.4052922 107.2935562  47.1550836   0.5195289
  93.1800881  39.1082093  -1.9645402  93.0959069  38.5007762  -2.6994992
  92.3583587  39.5991111  -1.9635905 100.2538165  52.5469257  -2.7512233
 100.1808336  53.3524228  -2.2392929  99.8115558  52.7461223  -3.5764212
 100.0427944  51.7841027  -9.2409412  99.2595466  52.3262707  -9.1471187
 100.7420690  52.3015007  -8.8415171 102.7136848  52.4456091  -0.5954075
 103.4264821  53.0803556  -0.6678173 102.2226877  52.5419957  -1.4114073
  97.7648762  50.1950534   0.2251496  98.4658221  50.8287017   0.3780890
  97.2943877  50.5365266  -0.5352865 102.5257222  52.7854835  -7.8467783
 102.7079616  51.9676491  -7.3840031 103.3490208  53.0022527  -8.2842893
 101.6137621  43.4914953   4.5370084 100.9378258  43.3909082   5.2072459
 102.4365255  43.3354167   5.0006081  93.3616480  49.7286889  -2.8417401
  93.9469917  48.9830577  -2.7089497  93.1641318  50.0390846  -1.9580737
  96.2155135  52.7638137  -7.8254959  95.5465510  53.2484264  -8.3090919
  96.0768005  53.0107357  -6.9111580 100.3560404  54.7981880  -1.2272301
 100.9078712  54.9613502  -0.4623215 100.6966597  55.3886318  -1.8992276
  95.3324897  37.1457030  -0.6250416  95.3966223  38.0071861  -1.0373018
  95.2692017  36.5331032  -1.3578057  94.8077169  39.2180163   3.0222618
  95.4349208  38.8357240   3.6360143  93.9505088  38.9994365   3.3878311
 105.2071278  49.6243138   4.6276354 105.7511182  50.2373096   4.1331309
 104.6258123  50.1822716   5.1443367 103.4928791  52.7463856  -4.2408618
 103.3679930  51.9453596  -4.7497673 104.1507882  53.2410049  -4.7294648
 105.5563699  50.5472876  -2.6129068 104.6094035  50.4278227  -2.6850742
 105.9046472  49.6595374  -2.5302807  97.9163273  36.4367015   1.2109174
  98.4397675  36.6829311   1.9735483  97.6975606  37.2687050   0.7912311
 102.5610133  50.3425592  -6.4124716 102.4135095  49.4142300  -6.2317146
 103.3863626  50.3645683  -6.8967641 106.1644254  51.1654151  -5.3259843
 107.0890802  50.9597012  -5.4635392 105.9959558  50.9170552  -4.4170502
  99.1215818  37.3780710  -1.1041156  98.7812638  36.5788523  -0.7020476
  98.4154824  37.6782421  -1.6764323  97.2970868  41.1549143  -4.8421854
  97.1515449  41.4689446  -3.9497573  96.8196072  41.7734043  -5.3950956
 101.0093382  38.5789031  -2.7487837 100.7511160  39.5006102  -2.7503507
 100.4778422  38.1819466  -2.0587373  91.7716531  43.6954487  -1.9034193
  91.2269999  44.4714295  -1.7713919  92.6495880  44.0425292  -2.0615072
  92.5582552  42.8224384   0.9895964  91.8164288  42.9707019   1.5760594
  92.2375297  43.0832649   0.1262713 100.5026215  52.3640362   0.7876354
 100.8113341  52.1189509   1.6599053 101.3001697  52.5687000   0.2995224
 100.5246827  54.5178272  -6.9818270 100.0851817  54.0254650  -6.2885413
 101.2754944  53.9751239  -7.2226194  93.0039166  50.7089812  -6.9793642
  93.8297186  50.4093584  -7.3594998  92.6533218  49.9397435  -6.5303853
  97.9720699  50.0616281  -4.9095968  97.3500709  49.3986986  -5.2093740
  98.6425566  50.0877413  -5.5922320  91.2047771  48.6276139  -6.0204708
  90.3679679  48.1998313  -6.2020707  91.1771417  48.8208582  -5.0833917
  98.0445227  38.5398069   4.6836538  98.0933382  39.4160192   4.3014308
  98.5867741  37.9975462   4.1108181 108.5300072  49.0839192   3.9637675
 107.7395616  49.0663331   3.4242175 108.2933427  49.6227486   4.7186712
 108.6497947  45.9331658   1.2770404 108.6995952  45.7681666   2.2185927
 108.5411871  45.0658917   0.8868284 105.9401710  41.9162586   2.5929710
 106.8411573  41.7769051   2.3013708 106.0149684  42.0817041   3.5327888
 100.2744515  39.2929441   1.4382897  99.4047825  39.5863007   1.1665485
 100.5103996  39.8769886   2.1590160 110.1516144  48.3528600   1.5212425
 109.8600953  48.7158580   2.3575886 109.5388276  47.6395608   1.3425757
 101.3015103  46.4946893   4.8390950 102.2218112  46.6725492   5.0330996
 101.2664686  45.5502939   4.6870649  94.2977175  44.4047928  -2.5186269
  94.5163185  45.3365036  -2.4998236  94.7102949  44.0455902  -1.7331465
  99.1705041  39.9781134   6.8716480  99.0701767  40.9275491   6.8028571
  98.9526583  39.6499373   5.9992550  90.3885528  45.3088399  -4.2662654
  89.6948999  44.8942351  -4.7792700  91.1358519  45.3508935  -4.8629235
  99.0336311  43.4078273   5.6881541  98.5503392  44.2078633   5.8945430
  99.1197250  43.4186217   4.7348985  94.9609648  47.2982807  -2.2750025
  95.9152902  47.2666750  -2.3420093  94.7622172  46.8373431  -1.4599799
  95.5509030  45.8683923   0.2920773  96.3701919  46.3628002   0.3155610
  95.8245838  44.9515892   0.2638340  93.3159877  52.8402427  -5.2579827
  93.1814345  52.0802828  -5.8241829  92.8991939  53.5643327  -5.7251038
  96.4729003  53.7371744  -5.0461384  96.3561387  54.6817176  -5.1482694
  95.6521449  53.4345305  -4.6575585  90.8043944  40.2022057   0.9912970
  91.4502808  39.6921011   1.4800195  90.5961096  40.9390739   1.5656395
 103.3297337  47.2702905   6.4905110 104.1988496  47.4443557   6.1291745
 102.8504088  48.0897322   6.3680840  97.4983517  54.3900006  -1.8305456
  98.4010764  54.4223616  -1.5138961  97.2720887  53.4600457  -1.8159120
  99.2537119  53.1430992  -5.1695377  98.3032750  53.1432854  -5.2831005
  99.5569605  52.3963727  -5.6859343  95.1441435  37.3489674   5.0887984
  96.0072897  36.9926479   5.2991309  94.5706846  37.0103569   5.7763388
 111.7979519  58.9318959  -4.1688090 111.4598030  58.8160023  -5.0567555
 112.6669287  58.5310124  -4.1887084 107.6566334  60.7854435  -8.1791199
 107.0931200  60.6944372  -8.9474912 107.5418729  59.9654340  -7.6988707
 112.2799302  60.0853811   1.7898115 112.2687942  59.6906609   0.9178619
 112.4419941  59.3519883   2.3831887 105.2030766  62.2805627  -5.3406979
 105.9952058  61.9396451  -5.7560680 105.4427416  62.3900602  -4.4204826
 109.0006563  62.8690922   0.7377299 108.7096429  63.7736553   0.6223966
 109.6363547  62.9107450   1.4521369 109.9262770  60.2467771  -2.6721341
 110.5226342  60.0223793  -3.3864378 109.9837741  59.5052516  -2.0695893
 113.9596448  62.5552338  -2.2672907 113.6597171  63.4577377  -2.3757100
 113.6147507  62.2884521  -1.4151754 107.4108929  59.0066135  -6.2336203
 106.4859426  58.8742349  -6.0258511 107.6593343  59.7860354  -5.7366260
 104.7717740  58.6499408  -5.3992414 104.9010122  58.9033887  -4.4853002
 104.0915192  59.2427116  -5.7187759 111.4334457  56.4924524   3.3559427
 110.6567792  57.0518444   3.3462292 112.0725021  56.9781307   3.8774298
 109.6880830  59.3009977   2.9177394 110.4295514  59.8395021   2.6412218
 108.9817815  59.9276266   3.0748946 115.1636169  61.4439117   1.5149556
 115.5719525  61.0021528   0.7704188 114.4413431  60.8691745   1.7683749
 111.5167239  56.3811724  -1.1116887 112.3628435  56.8051138  -0.9682238
 111.4565877  55.7245349  -0.4178324 115.4864984  62.0040308  -4.7298155
 114.8573846  62.1686022  -5.4322087 115.0990646  62.4181918  -3.9587191
 114.6666685  54.0416093   0.5464287 114.4227617  54.7958153   0.0098562
 114.9426615  54.4201440   1.3811534 116.6205148  60.5854705  -0.7758448
 116.8322043  61.2286465  -1.4524067 116.5734896  59.7517021  -1.2436518
 107.9317027  61.2886198  -4.5268307 108.5018384  61.7173466  -5.1650822
 108.5225139  61.0068782  -3.8284121 108.4242194  56.4549625   3.7192704
 107.7940854  57.1365906   3.9528101 108.3178281  56.3432707   2.7745843
 103.7187166  56.1221421  -5.3541371 102.9286220  56.3778950  -5.8301261
 104.2098413  56.9369759  -5.2489331 117.7350976  63.4626660  -2.6036091
 118.5568419  63.0606848  -2.8853409 117.7313378  63.3594895  -1.6519975
 105.6701911  56.4866000  -8.3957895 104.8733075  56.5984695  -7.8774399
 105.4427504  56.8252653  -9.2617004 111.5007579  63.0110704  -0.4475380
 111.5652011  63.4731111   0.3882792 110.7918503  62.3808069  -0.3193070
 102.0024869  56.3751912  -2.9226381 102.2532907  57.2598922  -2.6568805
 102.5384417  56.1956513  -3.6951289 107.7022936  50.7570391   6.0817956
 107.3089882  50.2036590   6.7565600 108.5189077  51.0680969   6.4724473
 104.6684994  62.1954249 -10.0068475 105.1809515  62.9897499  -9.8562910
 105.3207707  61.4980540 -10.0734873 110.6190897  52.1728270   3.6738212
 111.3600611  52.7735423   3.5942675 110.8508820  51.4305908   3.1156255
 105.7632235  57.3584637   1.9516442 105.6485750  56.4569895   2.2523541
 104.9076753  57.6048334   1.6001258 112.8424073  65.3002378   3.5503942
 112.3987927  64.5138756   3.2324847 113.5041287  65.4881528   2.8847833
 107.6011194  66.8298179  -1.9235379 108.1518619  66.7015243  -2.6958385
 106.7622670  67.1293068  -2.2740486 114.9405311  65.5805178   1.5785344
 114.9223786  66.4014059   1.0865613 115.8625231  65.4559253   1.8035485
 111.3978365  63.0949307   2.4208852 111.9306702  62.3337595   2.1908160
 110.8692446  62.8022959   3.1633007 102.6333911  60.5242903  -9.2308904
 103.4709133  60.9339912  -9.4475196 102.8112178  59.5842346  -9.2608710
 102.6560082  57.8633619  -8.5598171 102.4584482  57.2702979  -9.2847104
 102.1006746  57.5585829  -7.8422232 114.1723377  56.8375609   0.1501695
 114.5272765  57.0647083   1.0096161 114.8195508  57.1693986  -0.4721049
 108.0663240  53.9452141  -3.0651964 108.7062620  53.8040900  -3.7629000
 107.2340771  53.6586654  -3.4413362 108.8423544  63.2454571  -6.9516971
 109.6364143  62.7504891  -7.1534396 108.1315237  62.7172434  -7.3149266
 113.6618389  65.6272666  -2.6004604 113.7155411  66.1963603  -1.8326888
 112.7933170  65.7974552  -2.9650566 105.0691857  53.9152466  -8.2878977
 105.3298674  54.8297799  -8.3969816 105.8909029  53.4476908  -8.1382364
 106.5416782  55.3290223  -1.1180152 107.2139835  55.1207585  -1.7667503
 105.7146569  55.1312309  -1.5574920 112.4442354  51.9552164   0.8985509
 111.7970269  52.6542113   0.8049985 113.2143369  52.3888308   1.2661757
 115.8521152  62.2201016   3.9736062 115.7006658  61.9911567   3.0566146
 115.8425831  63.1771617   3.9867407 112.6206488  59.7932929  -1.0417672
 113.5498548  59.9444088  -1.2148704 112.1997518  59.8816949  -1.8969025
 111.4194820  63.8183593  -3.2719134 111.2805906  63.4502377  -2.3993196
 110.6309416  64.3331232  -3.4435176 112.9700035  63.1965196  -5.8830296
 112.6349868  63.1565966  -4.9872646 112.4703981  62.5309912  -6.3559886
 106.9444279  58.6032826  -0.3577715 106.8064077  57.8713064   0.2433824
 107.8549203  58.5141726  -0.6393527 109.5726580  58.3152785  -0.8694035
 110.2826198  57.6745977  -0.9107417 109.5295888  58.5665680   0.0532145
 117.5613359  65.2520138   2.0512544 117.5025905  64.5679358   1.3843127
 117.9632877  65.9939128   1.5993170 108.2855514  55.3018003   0.9501604
 107.7492871  54.8508741   1.6023200 107.6972222  55.4363912   0.2072068
 117.5630766  63.2159722   0.2826523 116.6757545  62.8785644   0.4052922
 118.1329317  62.4842753   0.5195289  99.2159913  59.5483814  -6.3930425
  99.9030953  59.2345544  -6.9809410  99.0608042  60.4525179  -6.6663174
 104.0194635  54.4374011  -1.9645402 103.9352824  53.8299680  -2.6994992
 103.1977342  54.9283029  -1.9635905 111.0931919  67.8761175  -2.7512233
 111.0202091  68.6816146  -2.2392929 110.6509312  68.0753140  -3.5764212
 113.5530603  67.7748009  -0.5954075 114.2658575  68.4095473  -0.6678173
 113.0620631  67.8711875  -1.4114073 108.6042516  65.5242452   0.2251496
 109.3051976  66.1578935   0.3780890 108.1337631  65.8657184  -0.5352865
 112.4531375  58.8206871   4.5370084 111.7772012  58.7201000   5.2072459
 113.2759009  58.6646084   5.0006081 104.2010234  65.0578807  -2.8417401
 104.7863671  64.3122495  -2.7089497 104.0035073  65.3682764  -1.9580737
  98.7927889  57.6284407  -4.1212958  98.8311989  57.0947998  -3.3275840
  98.2868182  57.1019613  -4.7401981 111.1954158  70.1273798  -1.2272301
 111.7472466  70.2905420  -0.4623215 111.5360352  70.7178236  -1.8992276
 106.1718651  52.4748948  -0.6250416 106.2359978  53.3363779  -1.0373018
 106.1085772  51.8622950  -1.3578057 105.6470924  54.5472080   3.0222618
 106.2742963  54.1649158   3.6360143 104.7898843  54.3286282   3.3878311
 116.0465033  64.9535056   4.6276354 116.5904936  65.5665014   4.1331309
 115.4651877  65.5114634   5.1443367 102.4236467  56.3548510 -11.0459027
 102.7189908  55.4459188 -11.0991973 101.5224502  56.3336249 -11.3678024
 105.9530714  54.4304506  -5.0631478 105.2317299  55.0440474  -5.2024005
 106.7423969  54.9662271  -5.1414832 116.3957454  65.8764794  -2.6129068
 115.4487789  65.7570145  -2.6850742 116.7440227  64.9887292  -2.5302807
 108.7557027  51.7658933   1.2109174 109.2791429  52.0121229   1.9735483
 108.5369360  52.5978967   0.7912311 109.9609572  52.7072628  -1.1041156
 109.6206393  51.9080441  -0.7020476 109.2548579  53.0074339  -1.6764323
 108.1364623  56.4841061  -4.8421854 107.9909204  56.7981364  -3.9497573
 107.6589826  57.1025961  -5.3950956 111.8487136  53.9080949  -2.7487837
 111.5904914  54.8298020  -2.7503507 111.3172177  53.5111383  -2.0587373
 102.6110285  59.0246405  -1.9034193 102.0663753  59.8006213  -1.7713919
 103.4889635  59.3717210  -2.0615072 103.3976307  58.1516301   0.9895964
 102.6558043  58.2998937   1.5760594 103.0769051  58.4124567   0.1262713
 111.3419970  67.6932280   0.7876354 111.6507096  67.4481426   1.6599053
 112.1395452  67.8978918   0.2995224 103.8432921  66.0381730  -6.9793642
 104.6690940  65.7385502  -7.3594998 103.4926973  65.2689353  -6.5303853
 108.8114454  65.3908198  -4.9095968 108.1894463  64.7278903  -5.2093740
 109.4819321  65.4169330  -5.5922320 102.0441526  63.9568057  -6.0204708
 101.2073434  63.5290231  -6.2020707 102.0165171  64.1500500  -5.0833917
 108.8838981  53.8689986   4.6836538 108.9327137  54.7452109   4.3014308
 109.4261495  53.3267379   4.1108181 119.3693827  64.4131110   3.9637675
 118.5789371  64.3955248   3.4242175 119.1327181  64.9519403   4.7186712
 119.4891702  61.2623576   1.2770404 119.5389707  61.0973583   2.2185927
 119.3805625  60.3950835   0.8868284 116.7795464  57.2454504   2.5929710
 117.6805327  57.1060969   2.3013708 116.8543439  57.4108959   3.5327888
 111.1138270  54.6221359   1.4382897 110.2441579  54.9154925   1.1665485
 111.3497750  55.2061804   2.1590160 120.9909899  63.6820518   1.5212425
 120.6994707  64.0450498   2.3575886 120.3782030  62.9687526   1.3425757
 112.1408857  61.8238811   4.8390950 113.0611867  62.0017410   5.0330996
 112.1058440  60.8794856   4.6870649 101.3591022  57.0177405  -6.2355776
 101.0393807  56.1642713  -6.5281402 100.8124450  57.2325983  -5.4797809
 105.1370930  59.7339846  -2.5186269 105.3556940  60.6656954  -2.4998236
 105.5496704  59.3747820  -1.7331465 110.0098795  55.3073051   6.8716480
 109.9095522  56.2567408   6.8028571 109.7920337  54.9791290   5.9992550
 101.2279282  60.6380316  -4.2662654 100.5342754  60.2234269  -4.7792700
 101.9752273  60.6800853  -4.8629235 109.8730065  58.7370190   5.6881541
 109.3897147  59.5370550   5.8945430 109.9591004  58.7478135   4.7348985
 103.1416025  60.5698570  -6.3896639 103.1186713  60.6686257  -7.3414756
 103.4516661  61.4163721  -6.0679473 105.8003403  62.6274725  -2.2750025
 106.7546656  62.5958667  -2.3420093 105.6015926  62.1665349  -1.4599799
 106.3902785  61.1975841   0.2920773 107.2095674  61.6919920   0.3155610
 106.6639592  60.2807809   0.2638340 104.1553631  68.1694345  -5.2579827
 104.0208099  67.4094745  -5.8241829 103.7385694  68.8935244  -5.7251038
 107.3122757  69.0663662  -5.0461384 107.1955141  70.0109094  -5.1482694
 106.4915204  68.7637223  -4.6575585 101.6437699  55.5313975   0.9912970
 102.2896563  55.0212929   1.4800195 101.4354850  56.2682657   1.5656395
 114.1691091  62.5994822   6.4905110 115.0382251  62.7735475   6.1291745
 113.6897843  63.4189239   6.3680840 108.3377271  69.7191923  -1.8305456
 109.2404518  69.7515534  -1.5138961 108.1114641  68.7892374  -1.8159120
 105.9835190  52.6781592   5.0887984 106.8466652  52.3218397   5.2991309
 105.4100601  52.3395487   5.7763388 122.2728212  71.8216441   3.3559427
 121.4961546  72.3810361   3.3462292 122.9118775  72.3073224   3.8774298
 119.2635948  71.7841543   3.7192704 118.6334609  72.4657824   3.9528101
 119.1572036  71.6724624   2.7745843 118.5416691  66.0862309   6.0817956
 118.1483636  65.5328507   6.7565600 119.3582831  66.3972887   6.4724473
 121.4584652  67.5020188   3.6738212 122.1994365  68.1027341   3.5942675
 121.6902575  66.7597826   3.1156255 116.6025990  72.6876555   1.9516442
 116.4879505  71.7861812   2.2523541 115.7470507  72.9340252   1.6001258
 123.2836109  67.2844081   0.8985509 122.6364024  67.9834031   0.8049985
 124.0537124  67.7180225   1.2661757 119.1249268  70.6309921   0.9501604
 118.5886625  70.1800659   1.6023200 118.5365977  70.7655829   0.2072068
 123.2925130  74.1498788   4.5370084 122.6165767  74.0492918   5.2072459
 124.1152764  73.9938002   5.0006081 117.0112406  67.8040866  -0.6250416
 117.0753732  68.6655696  -1.0373018 116.9479526  67.1914867  -1.3578057
 116.4864678  69.8763998   3.0222618 117.1136717  69.4941075   3.6360143
 115.6292597  69.6578200   3.3878311 119.5950782  67.0950850   1.2109174
 120.1185184  67.3413147   1.9735483 119.3763115  67.9270885   0.7912311
 114.2370061  73.4808219   0.9895964 113.4951797  73.6290854   1.5760594
 113.9162806  73.7416485   0.1262713 119.7232736  69.1981904   4.6836538
 119.7720891  70.0744027   4.3014308 120.2655250  68.6559297   4.1108181
 121.9532024  69.9513276   1.4382897 121.0835334  70.2446843   1.1665485
 122.1891504  70.5353721   2.1590160 120.8492550  70.6364969   6.8716480
 120.7489276  71.5859326   6.8028571 120.6314092  70.3083208   5.9992550
 120.7123820  74.0662108   5.6881541 120.2290901  74.8662468   5.8945430
 120.7984759  74.0770053   4.7348985 112.4831453  70.8605893   0.9912970
 113.1290317  70.3504847   1.4800195 112.2748605  71.5974574   1.5656395
 116.8228944  68.0073510   5.0887984 117.6860406  67.6510315   5.2991309
 116.2494355  67.6687404   5.7763388   6.5925659 121.1233087  99.9486425
   5.8389367 120.5540485  99.7930429   6.7273200 121.0895751 100.8957059
   0.6959184 123.3438250 102.0699840   1.1295691 123.2513539 102.9182894
   1.4090765 123.3195751 101.4319856   1.5574734 123.3861951 104.6032725
   1.7510624 124.2907761 104.8492000   1.4575352 122.9269370 105.4371310
   2.8116797 119.9435617 101.2480629   2.8006673 120.8260333 100.8774562
   1.9434176 119.5907168 101.0535166   3.4141407 121.0935837  97.8530092
   3.8572553 120.3443162  97.4549215   2.5367917 121.0845973  97.4703824
   0.4468611 125.0965884  94.8624021   0.9719935 125.4353157  94.1373341
   0.3590964 124.1612899  94.6787156   2.9574272 122.5641075 100.2452539
   3.7921163 123.0030879 100.4090100   3.0933400 122.0879728  99.4260785
   1.1855524 120.2192690 103.5400632   1.1531844 119.2808690 103.7260316
   1.7956148 120.2976726 102.8066457   1.3350013 117.0103733 103.5858916
   0.8189061 116.2262190 103.3988844   2.2189961 116.6822450 103.7505435
   7.0032074 121.2808697 102.6806669   7.7335463 121.0193985 103.2414372
   6.3939020 120.5437419 102.7208737   5.0847371 119.4216559 103.2781120
   4.3580535 119.2872524 102.6697612   4.6694658 119.7293388 104.0837838
   2.7025166 115.6428411 100.6314552   3.2969657 115.4024147  99.9207860
   2.7751750 114.9235542 101.2588088   5.0096239 118.9494612  99.4057973
   4.4495797 119.0187802 100.1789535   4.4039742 118.7735597  98.6857469
   9.0727373 126.9999387 104.5368724   8.7410698 127.8694798 104.3129939
   8.4772987 126.6835671 105.2162754   6.1710505 124.8468969 104.1540038
   5.8274775 125.7370610 104.0779148   6.5389468 124.6570626 103.2909623
   5.2507046 127.2173624 102.1189271   4.7471841 127.1803759 101.3057076
   5.5437652 128.1266366 102.1785928   1.4034918 126.4055810  97.2246889
   0.7499331 126.0904827  96.6003504   1.3615392 125.7831551  97.9506712
   7.9698171 124.1062528  99.2557775   8.2757048 123.2459891  98.9683690
   8.6950776 124.6980148  99.0556769   8.2399789 126.5356763 101.7541696
   7.3262869 126.7660990 101.9223903   8.6692890 126.6195207 102.6055729
   2.2188489 126.4381536 103.5523711   3.0414558 125.9642014 103.4302601
   2.4626553 127.2172019 104.0522397   3.8751537 126.6872495  99.8150869
   3.8973234 126.7511828  98.8602849   4.2919596 125.8477004 100.0091375
   5.4239749 127.4860571 105.1585861   5.9421692 128.2221598 104.8332350
   5.0694881 127.7924565 105.9932620   5.6752343 123.9060854 100.6786758
   5.9554096 123.2384043 101.3047184   6.4602950 124.0989949 100.1661421
   9.8354494 126.0836666  99.5454728   9.6379315 125.7751755 100.4298060
  10.4454200 126.8098305  99.6752658   3.6637593 126.8867527  95.6726963
   2.8538321 126.5414611  96.0482209   4.3522009 126.5775070  96.2614574
   5.5928141 125.9645573  97.2951260   6.1459179 126.3841027  97.9541283
   5.8298227 125.0381321  97.3374216   8.9706948 128.0746098  96.8029924
   8.3905617 128.7330903  96.4207976   8.7042881 127.2523443  96.3917341
   7.4210514 127.4751156  99.0051244   7.9210293 127.5867691  98.1965563
   8.0646122 127.1712209  99.6452053  13.5418921 130.9720329 100.6314552
  14.1363412 130.7316065  99.9207860  13.6145504 130.2527460 101.2588088
   5.5855874 123.0356392  97.2020347   4.8188270 122.4814878  97.3477029
   5.9966579 123.1078260  98.0634498   6.5925660  98.1295209  86.6731731
   5.8389369  97.5602607  86.5175736   6.7273202  98.0957874  87.6202366
   0.6959186 100.3500373  88.7945146   1.1295692 100.2575662  89.6428200
   1.4090766 100.3257873  88.1565162   1.5574735 100.3924073  91.3278032
   1.7510625 101.2969884  91.5737307   1.4575353  99.9331493  92.1616617
   2.8116798  96.9497740  87.9725935   2.8006674  97.8322455  87.6019869
   1.9434178  96.5969291  87.7780473   3.4141408  98.0997959  84.5775398
   3.8572554  97.3505285  84.1794522   2.5367918  98.0908096  84.1949130
   0.4468613 102.1028006  81.5869328   0.9719937 102.4415279  80.8618648
   0.3590965 101.1675022  81.4032462   1.7578591 102.0050318  94.4495276
   1.4663399 102.3680299  95.2858737   1.1450722 101.2917326  94.2708608
   2.9574273  99.5703198  86.9697846   3.7921164 100.0093002  87.1335406
   3.0933402  99.0941851  86.1506092   1.1855526  97.2254812  90.2645939
   1.1531846  96.2870813  90.4505623   1.7956149  97.3038849  89.5311764
   1.3350014  94.0165856  90.3104222   0.8189063  93.2324312  90.1234151
   2.2189963  93.6884572  90.4750742   7.0032075  98.2870819  89.4051976
   7.7335464  98.0256107  89.9659679   6.3939021  97.5499541  89.4454044
   5.0847373  96.4278682  90.0026427   4.3580536  96.2934647  89.3942919
   4.6694659  96.7355510  90.8083145   2.7025167  92.6490534  87.3559859
   3.2969658  92.4086270  86.6453167   2.7751751  91.9297665  87.9833395
   5.0096240  95.9556735  86.1303280   4.4495798  96.0249924  86.9034842
   4.4039744  95.7797719  85.4102776   6.5952259 112.6313249  88.8233235
   7.2330669 112.5119996  88.1196576   6.4773102 113.5794093  88.8821188
   3.4041965 112.5840677  88.7594760   3.0660476 112.4681742  87.8715295
   4.2731733 112.1831842  88.7395766   3.8861748 113.7375529  94.7180966
   3.8750389 113.3428327  93.8461469   4.0482387 113.0041601  95.3114737
   4.8428339 118.1047121  80.0606116   4.1916319 118.6901201  79.6740130
   5.6372702 118.6353316  80.1201153   1.5325216 113.8989489  90.2561509
   2.1288788 113.6745511  89.5418472   1.5900187 113.1574234  90.8586957
   6.1493527 110.3564703  85.8986444   6.9356616 109.9384126  85.5476861
   6.4132231 111.2610795  86.0668092   6.3203605 115.7937553  80.5975100
   5.6849438 115.8672179  81.3096005   5.9901011 116.3831152  79.9194180
  11.5501954 110.2939936  86.8019422  12.2827126 109.7239153  87.0357252
  10.7941310 109.9061536  87.2425928   0.8246533 113.2557030  80.2936075
   0.7082791 112.5801934  80.9617160   0.9348793 112.7689404  79.4768228
   3.1678074 112.7167177  83.9982764   2.8036281 112.1897798  84.7095686
   4.0245190 112.3265646  83.8249250   9.0727375 104.0061510  91.2614031
   8.7410699 104.8756921  91.0375246   8.4772988 103.6897794  91.9408061
   2.8083561 107.7457077  78.9944113   2.9757963 108.6137313  79.3614584
   2.6180730 107.9084359  78.0705402   5.5658894 116.2074056  90.6609943
   5.2659617 117.1099095  90.5525751   5.2209954 115.9406239  91.5131096
   8.9656038 108.7256596  88.3407381   8.0572915 108.6572005  88.0466142
   8.9143634 109.2028541  89.1689206   2.7872782 110.2014735  79.9790780
   2.6672407 110.6471785  80.8176260   2.0925370 110.5500052  79.4204318
   3.0396904 110.1446242  96.2842278   2.2630238 110.7040162  96.2745143
   3.6787467 110.6303025  96.8057148  10.8317684 106.9273034  90.1185255
  10.1892065 107.2205568  89.4725049  10.3272613 106.8125955  90.9238451
   8.4857848 110.6736208  80.8071114   9.3975704 110.9063594  80.6318811
   7.9767495 111.2573252  80.2446192   1.2943276 112.9531695  95.8460245
   2.0357960 113.4916739  95.5695069   0.5880262 113.5797984  96.0031797
   6.7698616 115.0960836  94.4432406   7.1781972 114.6543246  93.6987039
   6.0475877 114.5213463  94.6966599   3.1229686 110.0333442  91.8165963
   3.9690881 110.4572856  91.9600612   3.0628323 109.3767067  92.5104526
   7.0927430 115.6562026  88.1984695   6.4636293 115.8207740  87.4960763
   6.7053092 116.0703636  88.9695659  10.9716662 116.5916464  85.5529059
  10.2867700 116.9715365  85.0026092  11.0560512 117.2011791  86.2861007
   6.2729131 107.6937811  93.4747137   6.0290063 108.4479871  92.9381413
   6.5489062 108.0723158  94.3094384   8.2267594 114.2376423  92.1524403
   8.4384489 114.8808183  91.4758784   8.1797342 113.4038740  91.6846333
   5.8293823 106.8494244  89.0560975   4.9678302 107.1475497  89.3477712
   5.8556257 107.0664643  88.1242007   2.6455392 115.3936434  85.4634780
   3.1093738 115.6724137  84.6739403   2.3812190 114.4919879  85.2807871
   1.5824278 111.5159587  82.2724346   2.2848322 111.9680630  82.7398272
   1.2504907 110.8743405  82.9004239   9.3413422 117.1148378  90.3246760
  10.1630866 116.7128566  90.0429442   9.3375825 117.0116613  91.2762876
   3.1070025 116.6632422  92.4807470   3.1714458 117.1252829  93.3165642
   2.3980949 116.0329787  92.6089780  17.4319415 113.4587127  86.6731731
  16.6783123 112.8894525  86.5175736  17.5666956 113.4249791  87.6202366
   2.8218043 118.3300529  82.3486451   2.6863718 119.1752065  82.7771299
   3.3627855 118.5319807  81.5852385   2.2253344 105.8249988  96.6021063
   2.9663057 106.4257141  96.5225525   2.4571266 105.0827626  96.0439105
   4.4486519 118.9524096  96.4786793   4.0050373 118.1660474  96.1607697
   5.1103733 119.1403246  95.8130684   6.5467757 119.2326896  94.5068194
   6.5286233 120.0535777  94.0148463   7.4687677 119.1080971  94.7318335
   3.0040812 116.7471025  95.3491702   3.5369148 115.9859313  95.1191010
   2.4754893 116.4544677  96.0915857   6.1710506 101.8531091  90.8785344
   5.8274776 102.7432733  90.8024455   6.5389469 101.6632749  90.0154929
   6.1360789 111.8439702  79.3857779   5.6207413 112.6144307  79.6246167
   5.8638098 111.1704838  80.0090841   3.7207900 106.6889403  84.4443018
   2.8649497 106.2996253  84.2648656   4.1334852 106.7681364  83.5842803
   5.2507047 104.2235746  88.8434577   4.7471842 104.1865881  88.0302383
   5.5437654 105.1328489  88.9031234   1.4949933 104.3074476  87.8500759
   2.3602930 104.1117285  87.4906649   1.5627442 104.0784828  88.7770116
  11.1095063 114.5972057  81.3210953  10.3324506 114.2583216  80.8766115
  11.7886544 114.6024680  80.6465918   5.9247092 109.7166794  81.2117561
   5.6197228 110.0312943  82.0627704   6.8777534 109.7948214  81.2544894
   4.3693524 115.8757018  82.8610515   3.8414886 115.1409777  82.5483752
   3.8681027 116.6531694  82.6150483   9.3486370 114.0706038  87.9777561
   8.6910045 114.7605300  88.0657689  10.1526769 114.4602470  88.3211547
   8.1591829 112.4250411  86.0281503   8.6723711 113.0580403  86.5303212
   8.8093053 111.8251606  85.6624863   1.4034920 103.4117933  83.9492195
   0.7499332 103.0966950  83.3248810   1.3615394 102.7893673  84.6752018
   2.5146124 113.6937228  75.8645488   1.6073186 113.4626481  76.0636637
   3.0117156 112.8974847  76.0519469   5.4214203 122.4034735  78.7842174
   4.7475902 122.7066432  79.3927132   5.8080025 123.2063815  78.4347631
   4.6372660 109.8999866  88.2739843   3.7195221 110.1214813  88.1161531
   5.0532804 109.9746177  87.4151550   5.4207708 111.2991282  83.4042523
   6.1679527 111.8112679  83.0949645   5.6899297 110.9775335  84.2646917
   3.6934358 113.7949823  80.3869478   2.7845577 113.5108856  80.4841947
   3.7229442 114.2148901  79.5272784   8.9253625 117.4056412  84.1560645
   8.4715952 116.5647322  84.2125836   8.2947592 118.0417811  84.4935425
   7.8686545 108.3348398  85.3861313   7.1309302 107.8225784  85.7171555
   8.1213318 107.8948780  84.5744590   7.3686564 119.2432909  85.0910463
   7.6609539 119.8037966  84.3722829   7.8785185 119.5361470  85.8463622
   7.9698172 101.1124650  85.9803082   8.2757049 100.2522014  85.6928997
   8.6950777 101.7042270  85.7802076   2.2419252 111.4078443  86.4879273
   2.2967862 110.4552280  86.4121750   1.4310454 111.5637882  86.9720571
   3.3910446 115.3358566  77.7257556   2.9529876 114.6194425  77.2663194
   4.1320886 115.5634681  77.1642648   2.3320190 120.0213260  86.1803917
   2.2896368 120.2474106  85.2512449   3.2482889 119.7876635  86.3289718
   5.7785823 110.4897328  93.0784546   6.1335211 110.7168801  93.9379011
   6.4257955 110.8215704  92.4561801  11.5083560 113.6115763  83.7833875
  11.3701459 113.8017359  82.8555064  11.1519779 114.3735146  84.2401926
  11.5352940 115.6792290  88.7945146  11.9689447 115.5867580  89.6428200
  12.2484521 115.6549791  88.1565162   5.2680835 119.2794385  90.3278247
   5.3217857 119.8485321  91.0955963   4.3995616 119.4496270  89.9632284
  12.3968490 115.7215991  91.3278032  12.5904380 116.6261802  91.5737307
  12.2969108 115.2623410  92.1616617   4.0504800 105.6073882  93.8268359
   3.4032715 106.3063831  93.7332835   4.8205816 106.0410026  94.1944607
   7.4583598 115.8722734  96.9018912   7.3069105 115.6433286  95.9848996
   7.4488278 116.8293335  96.9150257   4.2268935 113.4454647  91.8865179
   5.1560995 113.5965806  91.7134146   3.8059965 113.5338667  91.0313825
   3.0257266 117.4705311  89.6563716   2.8868352 117.1024095  90.5289654
   2.2371863 117.9852950  89.4847674   3.6205418 122.5714407  80.9989253
   3.7957174 122.1002451  81.8134876   2.9338206 123.1980174  81.2270514
   4.5762482 116.8486914  87.0452554   4.2412314 116.8087684  87.9410204
   4.0766427 116.1831630  86.5722964   7.5121673 114.1942948  77.3189614
   6.8950844 113.4689776  77.2222666   7.0438162 114.9552308  76.9756688
   1.1789026 111.9674503  92.0588815   1.8888645 111.3267695  92.0175433
   1.1358334 112.2187398  92.9814996   9.1675805 118.9041856  94.9795394
   9.1088351 118.2201077  94.3125977   9.5695323 119.6460846  94.5276020
   9.1693212 116.8681440  93.2109374   8.2819991 116.5307362  93.3335773
   9.7391763 116.1364472  93.4478139   2.6994366 121.5282893  90.1770617
   2.6264537 122.3337864  90.6889922   2.2571759 121.7274859  89.3518638
   2.4884145 120.7654663  83.6873439   1.7051667 121.3076343  83.7811663
   3.1876890 121.2828642  84.0867680   5.7980795 106.5749292  86.3307644
   6.2949495 105.8219255  86.0108714   5.0267777 106.6113609  85.7650853
  13.6510553 112.2789658  87.9725935  13.6400429 113.1614373  87.6019869
  12.7827932 111.9261209  87.7780473   5.1593049 121.4269727  92.3328776
   5.8721021 122.0617192  92.2604677   4.6683078 121.5233593  91.5168778
   6.8810576 115.3320979  83.9046067   5.9466855 115.4522442  83.7350772
   7.0587244 114.4293446  83.6406077   2.3815764 108.7166675  86.0579329
   2.0113552 108.1637716  86.7460234   2.8774857 108.1124809  85.5054329
  10.2683127 111.1738299  84.4396102  10.7343580 112.0066290  84.3656404
  10.7190628 110.7083280  85.1441360   8.3359358 117.5182120  81.4382254
   8.6119202 117.4038715  82.3476128   7.4663857 117.1199605  81.3994427
   8.2399790 103.5418886  88.4787003   7.3262870 103.7723113  88.6469210
   8.6692892 103.6257330  89.3301035   8.0106249 111.7308778  90.9786897
   7.3577699 111.9784685  90.3239350   8.3886628 110.9172916  90.6449374
   4.9713422 121.7668471  85.0815067   5.1535817 120.9490127  85.5442819
   5.7946408 121.9836163  84.6439957   5.3055588 120.6936656  82.3430116
   5.8343354 120.1829111  81.7300278   5.5683808 120.3779186  83.2075649
   4.0593822 112.4728589  97.4652934   3.3834459 112.3722718  98.1355309
   4.8821455 112.3167802  97.9288931   2.8016604 123.7795516  91.7010550
   3.3534913 123.9427138  92.4659635   3.1422798 124.3699954  91.0290575
   7.6527479 118.6056774  97.5559204   8.1967383 119.2186732  97.0614159
   7.0714324 119.1636352  98.0726217   5.9384992 121.7277492  88.6874232
   5.8136131 120.9267232  88.1785178   6.5964083 122.2223685  88.1988202
   8.0019900 119.5286512  90.3153782   7.0550236 119.4091863  90.2432109
   8.3502673 118.6409010  90.3980044   5.0066333 119.3239228  86.5158134
   4.8591296 118.3955935  86.6965704   5.8319827 119.3459319  86.0315210
   8.6100455 120.1467787  87.6023007   9.5347003 119.9410648  87.4647458
   8.4415759 119.8984188  88.5112349   1.5672019 106.3594346  91.8241695
   1.2268839 105.5602159  92.2262375   0.8611025 106.6596057  91.2518528
   2.2188490 103.4443658  90.2769018   3.0414560 102.9704136  90.1547908
   2.4626554 104.2234142  90.7767704   5.0027848 107.1777066  81.5090252
   5.2191462 108.0601704  81.2079080   4.5221915 106.7863279  80.7795894
   1.6023452 107.1265327  88.1341886   1.5885021 106.2306420  87.7974184
   2.3195880 107.1335991  88.7680172   3.4549583 107.5602667  90.1795013
   3.1967361 108.4819738  90.1779344   2.9234623 107.1633102  90.8695477
   8.3995772 120.6653454  82.9585099   8.5732649 120.0999877  82.2058951
   8.8924663 121.4654349  82.7764589   1.0060348 106.0079707  83.4029456
   1.1276259 105.0796353  83.6020343   0.7162390 106.0218393  82.4907771
   3.8751538 103.6934618  86.5396176   3.8973235 103.7573951  85.5848155
   4.2919597 102.8539126  86.7336682  14.2535163 113.4289877  84.5775398
  14.6966309 112.6797202  84.1794522  13.3761673 113.4200013  84.1949130
   9.3870944 119.9820219  80.0581997  10.0821849 120.6026911  80.2769312
   9.7294094 119.1315570  80.3334375  11.2862367 117.4319924  81.5869328
  11.8113691 117.7707197  80.8618648  11.1984720 116.4966939  81.4032462
   2.9482416 121.3453998  93.7159204   3.2569542 121.1003145  94.5881904
   3.7457898 121.5500636  93.2278075   2.9703028 123.4991907  85.9464581
   2.5308018 123.0068286  86.6397438   3.7211145 122.9564875  85.7056656
   0.4901428 107.5211704  97.6119389   0.5389583 108.3973827  97.2297158
   1.0323942 106.9789098  97.0391032  10.9756273 118.0652828  96.8920526
  10.1851817 118.0476967  96.3525025  10.7389628 118.6041121  97.6469562
  11.0954148 114.9145294  94.2053254  11.1452153 114.7495302  95.1468777
  10.9868072 114.0472553  93.8151135   8.3857911 110.8976222  95.5212561
   9.2867773 110.7582687  95.2296559   8.4605885 111.0630677  96.4610738
   2.7200716 108.2743077  94.3665747   1.8504025 108.5676643  94.0948336
   2.9560196 108.8583522  95.0873011  12.5972345 117.3342236  94.4495276
  12.3057153 117.6972216  95.2858737  11.9844476 116.6209244  94.2708608
  13.7968027 114.8995115  86.9697846  14.6314919 115.3384919  87.1335406
  13.9327156 114.4233769  86.1506092  10.8459533 112.4574850  92.9175334
  11.3213655 112.6502497  92.1094185   9.9225099 112.5134036  92.6718717
   5.4239750 104.4922694  91.8831168   5.9421694 105.2283721  91.5577656
   5.0694883 104.7986687  92.7177927   5.6752344 100.9122976  87.4032064
   5.9554098 100.2446165  88.0292491   6.4602951 101.1052072  86.8906728
   3.4785812 120.0881970  78.9657091   2.9059780 120.7072157  78.5127562
   4.0518606 120.6381332  79.4997012   9.5461202 109.3340610  91.1503639
  10.4978625 109.4338708  91.1715863   9.3764653 108.5418879  91.6601724
   7.5675582 106.4196194  91.3363040   6.9725514 106.7001206  90.6409529
   7.2825278 106.9090094  92.1079781   6.6983072 120.3719120  80.0965673
   7.6313745 120.3064682  80.2998548   6.6106285 121.2075387  79.6380205
   9.3271089 119.6884991  77.0569620   9.2484720 119.3544854  77.9505378
  10.1480756 120.1806759  77.0561093  12.0249280 112.5546730  90.2645939
  11.9925600 111.6162731  90.4505623  12.6349904 112.6330767  89.5311764
   3.8632611 111.4242783  76.3073143   4.8091716 111.2948991  76.3761561
   3.4846856 110.6857445  76.7842571  12.1743769 109.3457773  90.3104222
  11.6582817 108.5616230  90.1234151  13.0583717 109.0176490  90.4750742
   9.8354495 103.0898789  86.2700035   9.6379317 102.7813877  87.1543367
  10.4454201 103.8160428  86.3997965  17.8425830 113.6162737  89.4051976
  18.5729218 113.3548025  89.9659679  17.2332775 112.8791459  89.4454044
  15.9241127 111.7570599  90.0026427  15.1974291 111.6226564  89.3942919
  15.5088414 112.0647428  90.8083145   3.7471303 115.4760529  97.7673800
   4.6674313 115.6539128  97.9613846   3.7120887 114.5316574  97.6153499
   2.0475528 109.3492759  76.2428028   1.1406983 109.0525872  76.3190742
   2.3251509 109.0522577  75.3762314   3.6637594 103.8929649  82.3972270
   2.8538322 103.5476734  82.7727516   4.3522011 103.5837193  82.9859881
   5.5928142 102.9707696  84.0196566   6.1459181 103.3903149  84.6786589
   5.8298228 102.0443444  84.0619522   1.6161241 108.9594770  99.7999330
   1.5157968 109.9089127  99.7311421   1.3982783 108.6313008  98.9275400
   0.8174313 106.2079695  76.3840007   1.6793477 106.5334593  76.6435825
   1.0024657 105.4211191  75.8713073   8.9706949 105.0808221  83.5275230
   8.3905618 105.7393025  83.1453283   8.7042882 104.2585566  83.1162648
   7.4210516 104.4813279  85.7296551   7.9210294 104.5929813  84.9210870
   8.0646123 104.1774332  86.3697359   1.4792511 112.3891908  98.6164392
   0.9959593 113.1892269  98.8228281   1.5653450 112.3999853  97.6631836
   7.7531827 107.2408311  82.5831579   6.8657682 107.5257962  82.3651773
   8.1685816 107.0802075  81.7358856  11.1046363 107.2654832  86.2985918
  11.8806753 107.7551285  86.5710535  10.3794498 107.6912887  86.7557787
  13.5418922 107.9782452  87.3559859  14.1363413 107.7378188  86.6453167
  13.6145506 107.2589582  87.9833395   6.8975041 117.0052986  76.6779599
   7.6010891 117.2102989  77.2937254   6.1737689 117.5729748  76.9428682
   7.7272851 112.7562847  82.7981869   7.6708052 113.2131399  81.9589501
   8.2801193 111.9953532  82.6204712  11.5377657 108.5452579  83.6231988
  11.2814591 108.1449215  84.4540196  10.9130525 109.2596373  83.4982127
  15.8489995 111.2848653  86.1303280  15.2889553 111.3541842  86.9034842
  15.2433498 111.1089637  85.4102776   8.8061738 117.4435515  78.7278059
   9.6407342 117.0116714  78.5455534   8.6446081 117.2717529  79.6554953
   8.4607630 113.9467629  80.0934398   8.4056434 113.7811900  79.1522842
   7.8353686 114.6543662  80.2496588   5.7753537 116.2516540  99.4187961
   6.6444697 116.4257193  99.0574596   5.2960289 117.0710957  99.2963690
   1.7703756 103.4475738  79.6719716   1.7582426 104.3917578  79.8287987
   2.6627178 103.2645883  79.3779178   1.6993320 122.1244628  87.7587473
   0.7488951 122.1246490  87.6451845   2.0025806 121.3777363  87.2423508
   5.5855875 100.0418514  83.9265653   4.8188271  99.4877001  84.0722336
   5.9966580 100.1140383  84.7879805  17.4346013 127.9605166  88.8233235
  18.0724423 127.8411914  88.1196576  17.3166856 128.9086010  88.8821188
  14.2435719 127.9132595  88.7594760  13.9054231 127.7973659  87.8715295
  15.1125488 127.5123760  88.7395766  10.1022535 129.7668071  84.7491651
   9.5387400 129.6758008  83.9807939   9.9874930 128.9467975  85.2294144
  14.7255502 129.0667446  94.7180966  14.7144143 128.6720245  93.8461469
  14.8876142 128.3333519  95.3114737  12.3718970 129.2281407  90.2561509
  12.9682543 129.0037429  89.5418472  12.4293942 128.4866152  90.8586957
  11.9443999 126.6820842  78.0911700  12.1969520 126.1602363  77.3295163
  11.0068558 126.5186987  78.1938384  16.9887282 125.6856620  85.8986444
  17.7750371 125.2676043  85.5476861  17.2525986 126.5902712  86.0668092
  17.1597359 131.1229471  80.5975100  16.5243192 131.1964097  81.3096005
  16.8294765 131.7123069  79.9194180  22.3895709 125.6231853  86.8019422
  23.1220881 125.0531070  87.0357252  21.6335064 125.2353454  87.2425928
  11.6640288 128.5848948  80.2936075  11.5476546 127.9093851  80.9617160
  11.7742547 128.0981322  79.4768228  14.0071829 128.0459095  83.9982764
  13.6430036 127.5189716  84.7095686  14.8638944 127.6557564  83.8249250
  19.9121129 119.3353428  91.2614031  19.5804454 120.2048839  91.0375246
  19.3166743 119.0189712  91.9408061  13.6477315 123.0748995  78.9944113
  13.8151718 123.9429231  79.3614584  13.4574485 123.2376276  78.0705402
   9.8565130 127.9879770  86.6946648   8.9315627 127.8555985  86.9024340
  10.1049543 128.7673990  87.1916590  19.8049792 124.0548514  88.3407381
  18.8966670 123.9863922  88.0466142  19.7537388 124.5320459  89.1689206
  13.6266536 125.5306652  79.9790780  13.5066162 125.9763703  80.8176260
  12.9319125 125.8791970  79.4204318   7.2173941 127.6313044  87.5290437
   7.3466322 127.8847523  88.4429849   6.5371393 128.2240752  87.2095092
  13.8790658 125.4738159  96.2842278  13.1023992 126.0332080  96.2745143
  14.5181221 125.9594942  96.8057148  21.6711439 122.2564952  90.1185255
  21.0285819 122.5497485  89.4725049  21.1666367 122.1417873  90.9238451
  19.3251603 126.0028125  80.8071114  20.2369459 126.2355512  80.6318811
  18.8161250 126.5865170  80.2446192  12.1337031 128.2823613  95.8460245
  12.8751715 128.8208657  95.5695069  11.4274016 128.9089901  96.0031797
  17.6092370 130.4252753  94.4432406  18.0175726 129.9835164  93.6987039
  16.8869632 129.8505381  94.6966599  13.9623440 125.3625360  91.8165963
  14.8084635 125.7864774  91.9600612  13.9022078 124.7058984  92.5104526
  17.9321185 130.9853944  88.1984695  17.3030047 131.1499658  87.4960763
  17.5446847 131.3995553  88.9695659  21.8110417 131.9208382  85.5529059
  21.1261455 132.3007283  85.0026092  21.8954266 132.5303708  86.2861007
  17.1122886 123.0229728  93.4747137  16.8683817 123.7771789  92.9381413
  17.3882816 123.4015076  94.3094384  19.0661348 129.5668341  92.1524403
  19.2778244 130.2100101  91.4758784  19.0191097 128.7330657  91.6846333
  16.6687577 122.1786161  89.0560975  15.8072056 122.4767415  89.3477712
  16.6950012 122.3956560  88.1242007  13.4849147 130.7228352  85.4634780
  13.9487492 131.0016055  84.6739403  13.2205945 129.8211796  85.2807871
  12.4218033 126.8451504  82.2724346  13.1242076 127.2972548  82.7398272
  12.0898661 126.2035323  82.9004239  10.8698394 125.4363261  96.6475555
  10.2397055 126.1179542  96.8810952  10.7634482 125.3246343  95.7028693
   6.1643367 125.1035057  87.5741479   5.3742421 125.3592585  87.0981590
   6.6554614 125.9183395  87.6793520  20.1807176 132.4440296  90.3246760
  21.0024620 132.0420483  90.0429442  20.1769579 132.3408530  91.2762876
   8.1158112 125.4679636  84.5324956   7.3189275 125.5798330  85.0508451
   7.8883704 125.8066288  83.6665846   4.4481070 125.3565547  90.0056470
   4.6989108 126.2412557  90.2714046   4.9840618 125.1770149  89.2331562
  28.2713169 128.7879045  86.6731731  27.5176878 128.2186443  86.5175736
  28.4060711 128.7541709  87.6202366  10.1479137 119.7384027  99.0100806
   9.7546083 119.1850225  99.6848450  10.9645277 120.0494605  99.4007324
  13.0647098 121.1541906  96.6021063  13.8056811 121.7549059  96.5225525
  13.2965021 120.4119544  96.0439105   8.2088436 126.3398273  94.8799292
   8.0941951 125.4383530  95.1806391   7.3532954 126.5861970  94.5284109
  17.0104261 117.1823009  90.8785344  16.6668530 118.0724650  90.8024455
  17.3783224 116.9924666  90.0154929  16.9754544 127.1731620  79.3857779
  16.4601167 127.9436225  79.6246167  16.7031852 126.4996756  80.0090841
  14.5601655 122.0181321  84.4443018  13.7043251 121.6288171  84.2648656
  14.9728606 122.0973281  83.5842803  16.0900801 119.5527664  88.8434577
  15.5865597 119.5157799  88.0302383  16.3831408 120.4620407  88.9031234
  12.3343687 119.6366394  87.8500759  13.1996684 119.4409202  87.4906649
  12.4021196 119.4076745  88.7770116  21.9488818 129.9263975  81.3210953
  21.1718261 129.5875134  80.8766115  22.6280299 129.9316598  80.6465918
  16.7640847 125.0458712  81.2117561  16.4590982 125.3604861  82.0627704
  17.7171289 125.1240132  81.2544894  20.1880125 129.3997956  87.9777561
  19.5303799 130.0897217  88.0657689  20.9920524 129.7894388  88.3211547
   9.9406006 121.8668602  85.2217126  10.5149758 121.6443783  84.4890319
  10.5276989 121.9357296  85.9745727  18.9985584 127.7542328  86.0281503
  19.5117465 128.3872320  86.5303212  19.6486807 127.1543524  85.6624863
  10.2675593 123.8973063  79.2413011   9.4312906 124.2347749  79.5622286
  10.1280363 123.7622042  78.3040148  12.2428674 118.7409850  83.9492195
  11.5893086 118.4258868  83.3248810  12.2009148 118.1185591  84.6752018
  13.3539879 129.0229146  75.8645488  12.4466941 128.7918399  76.0636637
  13.8510911 128.2266765  76.0519469  15.4766414 125.2291784  88.2739843
  14.5588976 125.4506731  88.1161531  15.8926558 125.3038094  87.4151550
  16.2601462 126.6283200  83.4042523  17.0073281 127.1404597  83.0949645
  16.5293052 126.3067252  84.2646917  14.5328112 129.1241740  80.3869478
  13.6239332 128.8400773  80.4841947  14.5623196 129.5440819  79.5272784
  18.7080299 123.6640316  85.3861313  17.9703056 123.1517702  85.7171555
  18.9607073 123.2240698  84.5744590  18.8091927 116.4416568  85.9803082
  19.1150803 115.5813931  85.6928997  19.5344531 117.0334188  85.7802076
   5.1016283 126.8447255  84.3684680   4.9040683 126.2516615  83.6435746
   4.5462947 126.5399465  85.0860619  13.0813006 126.7370361  86.4879273
  13.1361616 125.7844197  86.4121750  12.2704208 126.8929800  86.9720571
  14.2304200 130.6650484  77.7257556  13.7923630 129.9486343  77.2663194
  14.9714641 130.8926599  77.1642648  11.0205366 125.3547421  84.2469652
  10.2073232 125.6541591  84.6534844  11.5164360 124.9603110  84.9644134
  16.6179578 125.8189245  93.0784546  16.9728966 126.0460718  93.9379011
  17.2651709 126.1507622  92.4561801  22.3477315 128.9407681  83.7833875
  22.2095213 129.1309277  82.8555064  21.9913534 129.7027064  84.2401926
  10.5119441 122.9265776  89.8630887  11.1518820 122.7854535  89.1653850
   9.6796972 122.6400290  89.4869489  22.3746695 131.0084208  88.7945146
  22.8083201 130.9159497  89.6428200  23.0878275 130.9841709  88.1565162
   7.5962508 126.3711288  82.0525632   6.6660097 126.3095744  82.2695594
   7.6919980 125.8487241  81.2562273   7.5148057 122.8966101  84.6403874
   7.7754875 123.8111435  84.5313034   8.3365230 122.4290544  84.7900486
   8.9872983 124.3103858  91.8102698   9.6596036 124.1021221  91.1615347
   8.1602769 124.1125944  91.3707930  23.2362244 131.0507909  91.3278032
  23.4298134 131.9553719  91.5737307  23.1362862 130.5915328  92.1616617
  14.8898555 120.9365799  93.8268359  14.2426470 121.6355749  93.7332835
  15.6599570 121.3701943  94.1944607  18.2977353 131.2014652  96.9018912
  18.1462859 130.9725203  95.9848996  18.2882032 132.1585253  96.9150257
  15.0662689 128.7746564  91.8865179  15.9954749 128.9257724  91.7134146
  14.6453719 128.8630585  91.0313825   9.3900480 127.5846461  92.5705135
   9.2520278 126.8526700  93.1716674  10.3005404 127.4955362  92.2889323
  18.3515428 129.5234866  77.3189614  17.7344598 128.7981694  77.2222666
  17.8831916 130.2844226  76.9756688  12.0182781 127.2966421  92.0588815
  12.7282399 126.6559613  92.0175433  11.9752089 127.5479316  92.9814996
  10.7311715 124.2831639  93.8784454  10.1949072 123.8322377  94.5306051
  10.1428423 124.4177547  93.1354919  10.1413974 123.7420290  76.4410918
   9.2643440 123.6209091  76.0773165  10.6171727 122.9506368  76.1889807
  20.0086967 132.1973358  93.2109374  19.1213745 131.8599280  93.3335773
  20.5785518 131.4656389  93.4478139   6.4650836 123.4187646  90.9637449
   6.3809025 122.8113316  90.2287859   5.6433542 123.9096665  90.9646945
  16.6374550 121.9041210  86.3307644  17.1343249 121.1511172  86.0108714
  15.8661531 121.9405527  85.7650853  24.4904307 127.6081575  87.9725935
  24.4794183 128.4906291  87.6019869  23.6221687 127.2553126  87.7780473
  17.7204330 130.6612897  83.9046067  16.7860609 130.7814360  83.7350772
  17.8980999 129.7585364  83.6406077  13.2209519 124.0458593  86.0579329
  12.8507306 123.4929633  86.7460234  13.7168611 123.4416726  85.5054329
  21.1076882 126.5030216  84.4396102  21.5737334 127.3358208  84.3656404
  21.5584382 126.0375198  85.1441360  19.1753113 132.8474038  81.4382254
  19.4512957 132.7330632  82.3476128  18.3057612 132.4491523  81.3994427
  19.0793545 118.8710803  88.4787003  18.1656624 119.1015030  88.6469210
  19.5086646 118.9549247  89.3301035  18.8500003 127.0600695  90.9786897
  18.1971453 127.3076603  90.3239350  19.2280383 126.2464834  90.6449374
  14.8987576 127.8020506  97.4652934  14.2228213 127.7014636  98.1355309
  15.7215210 127.6459720  97.9288931   1.2384090 126.6098043  88.8069892
   1.2768189 126.0761634  89.6007010   0.7324383 126.0833249  88.1880870
   8.6174852 121.4562584  92.3032435   8.6816179 122.3177415  91.8909832
   8.5541972 120.8436585  91.5704793   8.0927125 123.5285716  95.9505469
   8.7199164 123.1462793  96.5642993   7.2355044 123.3099918  96.3161161
   4.8692667 125.3362145  81.8823824   5.1646109 124.4272824  81.8290877
   3.9680703 125.3149885  81.5604826   8.3986914 123.4118142  87.8651372
   7.6773500 124.0254110  87.7258846   9.1880170 123.9475907  87.7868018
  11.2013228 120.7472568  94.1392024  11.7247630 120.9934865  94.9018333
  10.9825561 121.5792603  93.7195161   6.5980509 123.0176243  82.0063149
   6.2693215 122.1373622  81.8238255   6.9519880 122.9623912  82.8939538
   9.7122332 123.3049213  82.3738627  10.0518405 123.8335134  81.6517235
  10.1594453 123.6429619  83.1497193  12.4065773 121.6886263  91.8241695
  12.0662593 120.8894077  92.2262375  11.7004779 121.9887974  91.2518528
  13.0582245 118.7735576  90.2769018  13.8808314 118.2996054  90.1547908
  13.3020308 119.5526060  90.7767704  11.6990479 121.8023834  80.5731919
  12.4198842 122.1805087  80.0695636  11.0755783 122.5212711  80.6766897
  15.8421602 122.5068983  81.5090252  16.0585217 123.3893621  81.2079080
  15.3615669 122.1155197  80.7795894  10.5820824 125.4654697  88.0860996
  10.4365404 125.7795000  88.9785278  10.1046027 126.0839597  87.5331895
  12.4417207 122.4557245  88.1341886  12.4278775 121.5598338  87.7974184
  13.1589635 122.4627908  88.7680172  14.2943337 122.8894585  90.1795013
  14.0361115 123.8111655  90.1779344  13.7628378 122.4925019  90.8695477
  11.8454102 121.3371625  83.4029456  11.9670014 120.4088271  83.6020343
  11.5556145 121.3510311  82.4907771  14.7145293 119.0226535  86.5396176
  14.7366990 119.0865868  85.5848155  15.1313352 118.1831044  86.7336682
  25.0928917 128.7581795  84.5775398  25.5360063 128.0089120  84.1794522
  24.2155427 128.7491931  84.1949130   5.8432508 127.1329937  93.9178814
   5.1014244 127.2812573  94.5043445   5.5225252 127.3938203  93.0545564
  22.1256122 132.7611842  81.5869328  22.6507446 133.0999115  80.8618648
  22.0378474 131.8258857  81.4032462  11.3295182 122.8503622  97.6119389
  11.3783337 123.7265745  97.2297158  11.8717696 122.3081015  97.0391032
  21.8150028 133.3944745  96.8920526  21.0245571 133.3768884  96.3525025
  21.5783382 133.9333039  97.6469562  21.9347903 130.2437212  94.2053254
  21.9845908 130.0787219  95.1468777  21.8261826 129.3764471  93.8151135
  19.2251665 126.2268140  95.5212561  20.1261528 126.0874605  95.2296559
  19.2999640 126.3922595  96.4610738  13.5594470 123.6034995  94.3665747
  12.6897780 123.8968561  94.0948336  13.7953951 124.1875440  95.0873011
  23.4366100 132.6634153  94.4495276  23.1450908 133.0264134  95.2858737
  22.8238231 131.9501162  94.2708608  24.6361782 130.2287033  86.9697846
  25.4708673 130.6676837  87.1335406  24.7720911 129.7525686  86.1506092
  21.6853288 127.7866768  92.9175334  22.1607409 127.9794414  92.1094185
  20.7618853 127.8425954  92.6718717   8.5736794 128.9490935  82.5006412
   8.3282836 128.0453265  82.6986622   8.7432709 128.9508086  81.5585890
  16.2633504 119.8214611  91.8831168  16.7815448 120.5575638  91.5577656
  15.9088637 120.1278605  92.7177927   7.8432442 124.6819293  79.9992573
   7.1501687 124.7563648  79.3432609   7.5984194 123.9179636  80.5214090
  16.5146098 116.2414894  87.4032064  16.7947852 115.5738083  88.0292491
  17.2996705 116.4343990  86.8906728  20.3854957 124.6632528  91.1503639
  21.3372380 124.7630626  91.1715863  20.2158407 123.8710797  91.6601724
  18.4069336 121.7488111  91.3363040  17.8119268 122.0293124  90.6409529
  18.1219033 122.2382012  92.1079781  22.8643035 127.8838648  90.2645939
  22.8319355 126.9454648  90.4505623  23.4743658 127.9622684  89.5311764
  14.7026365 126.7534701  76.3073143  15.6485470 126.6240909  76.3761561
  14.3240610 126.0149363  76.7842571  23.0137523 124.6749691  90.3104222
  22.4976572 123.8908148  90.1234151  23.8977472 124.3468408  90.4750742
  20.6748250 118.4190707  86.2700035  20.4773071 118.1105795  87.1543367
  21.2847956 119.1452346  86.3997965  28.6819584 128.9454655  89.4051976
  29.4122973 128.6839943  89.9659679  28.0726530 128.2083376  89.4454044
  26.7634882 127.0862517  90.0026427  26.0368045 126.9518482  89.3942919
  26.3482168 127.3939346  90.8083145  14.5865058 130.8052447  97.7673800
  15.5068067 130.9831046  97.9613846  14.5514641 129.8608492  97.6153499
  12.8869283 124.6784677  76.2428028  11.9800738 124.3817790  76.3190742
  13.1645264 124.3814495  75.3762314   3.8047223 125.9991040  86.6927075
   3.4850007 125.1456349  86.4001449   3.2580651 126.2139619  87.4485042
  14.5031348 119.2221567  82.3972270  13.6932077 118.8768652  82.7727516
  15.1915765 118.9129111  82.9859881  16.4321897 118.2999614  84.0196566
  16.9852935 118.7195067  84.6786589  16.6691983 117.3735362  84.0619522
  12.4554996 124.2886687  99.7999330  12.3551723 125.2381044  99.7311421
  12.2376538 123.9604926  98.9275400  11.6568067 121.5371612  76.3840007
  12.5187231 121.8626511  76.6435825  11.8418411 120.7503108  75.8713073
  19.8100704 120.4100139  83.5275230  19.2299373 121.0684943  83.1453283
  19.5436636 119.5877483  83.1162648  18.2604270 119.8105196  85.7296551
  18.7604048 119.9221731  84.9210870  18.9039878 119.5066249  86.3697359
  12.3186266 127.7183826  98.6164392  11.8353348 128.5184186  98.8228281
  12.4047205 127.7291771  97.6631836  18.5925582 122.5700229  82.5831579
  17.7051437 122.8549880  82.3651773  19.0079571 122.4093993  81.7358856
  21.9440118 122.5946750  86.2985918  22.7200508 123.0843203  86.5710535
  21.2188252 123.0204804  86.7557787  24.3812676 123.3074369  87.3559859
  24.9757167 123.0670105  86.6453167  24.4539260 122.5881500  87.9833395
  18.5666605 128.0854765  82.7981869  18.5101807 128.5423316  81.9589501
  19.1194948 127.3245450  82.6204712  22.3771411 123.8744497  83.6231988
  22.1208346 123.4741133  84.4540196  21.7524279 124.5888291  83.4982127
  26.6883749 126.6140570  86.1303280  26.1283307 126.6833759  86.9034842
  26.0827253 126.4381555  85.4102776  19.6455493 132.7727433  78.7278059
  20.4801097 132.3408631  78.5455534  19.4839835 132.6009447  79.6554953
  19.3001385 129.2759546  80.0934398  19.2450189 129.1103818  79.1522842
  18.6747440 129.9835579  80.2496588   4.0893900 124.5127611  93.9195820
   4.7352763 124.0026565  94.4083045   3.8811051 125.2496292  94.4939245
  12.6097510 118.7767655  79.6719716  12.5976180 119.7209495  79.8287987
  13.5020932 118.5937801  79.3779178  16.4249630 115.3710432  83.9265653
  15.6582025 114.8168919  84.0722336  16.8360335 115.4432301  84.7879805
   8.4291391 121.6595228  98.0170834   9.2922852 121.3032033  98.2274159
   7.8556801 121.3209123  98.7046239  30.7514884 134.6645345  91.2614031
  30.4198208 135.5340756  91.0375246  30.1560497 134.3481629  91.9408061
  27.8498015 132.5114926  90.8785344  27.5062285 133.4016568  90.8024455
  28.2176978 132.3216584  90.0154929  26.9294556 134.8819582  88.8434577
  26.4259351 134.8449717  88.0302383  27.2225163 135.7912324  88.9031234
  23.0822429 134.0701768  83.9492195  22.4286841 133.7550785  83.3248810
  23.0402903 133.4477509  84.6752018  29.6485681 131.7708486  85.9803082
  29.9544558 130.9105849  85.6928997  30.3738286 132.3626106  85.7802076
  29.9187299 134.2002721  88.4787003  29.0050379 134.4306948  88.6469210
  30.3480401 134.2841165  89.3301035  23.8975999 134.1027494  90.2769018
  24.7202069 133.6287972  90.1547908  24.1414063 134.8817977  90.7767704
  25.5539047 134.3518453  86.5396176  25.5760744 134.4157786  85.5848155
  25.9707106 133.5122962  86.7336682  27.1027259 135.1506529  91.8831168
  27.6209203 135.8867556  91.5577656  26.7482392 135.4570522  92.7177927
  27.3539853 131.5706812  87.4032064  27.6341607 130.9030001  88.0292491
  28.1390460 131.7635907  86.8906728  31.5142004 133.7482624  86.2700035
  31.3166826 133.4397713  87.1543367  32.1241710 134.4744263  86.3997965
  25.3425103 134.5513484  82.3972270  24.5325831 134.2060569  82.7727516
  26.0309520 134.2421028  82.9859881  27.2715651 133.6291531  84.0196566
  27.8246690 134.0486985  84.6786589  27.5085737 132.7027279  84.0619522
  30.6494458 135.7392056  83.5275230  30.0693127 136.3976860  83.1453283
  30.3830391 134.9169401  83.1162648  29.0998025 135.1397114  85.7296551
  29.5997803 135.2513649  84.9210870  29.7433632 134.8358167  86.3697359
  35.2206431 138.6366287  87.3559859  35.8150922 138.3962023  86.6453167
  35.2933015 137.9173418  87.9833395  27.2643384 130.7002350  83.9265653
  26.4975780 130.1460836  84.0722336  27.6754089 130.7724218  84.7879805
   6.5925662  75.1357332  73.3977038   5.8389370  74.5664730  73.2421042
   6.7273203  75.1019996  74.3447673   0.6959187  77.3562495  75.5190453
   1.1295693  77.2637784  76.3673507   1.4090767  77.3319996  74.8810469
   1.5574736  77.3986196  78.0523338   1.7510626  78.3032007  78.2982613
   1.4575355  76.9393615  78.8861923   2.8116799  73.9559863  74.6971242
   2.8006676  74.8384578  74.3265175   1.9434179  73.6031413  74.5025779
   3.4141409  75.1060082  71.3020705   3.8572555  74.3567407  70.9039828
   2.5367920  75.0970218  70.9194437   0.4468614  79.1090129  68.3114634
   0.9719938  79.4477402  67.5863954   0.3590966  78.1737144  68.1277769
   1.7578592  79.0112441  81.1740582   1.4663400  79.3742421  82.0104043
   1.1450723  78.2979449  80.9953914   2.9574274  76.5765320  73.6943153
   3.7921166  77.0155124  73.8580713   3.0933403  76.1003974  72.8751398
   1.1855527  74.2316935  76.9891246   1.1531847  73.2932936  77.1750929
   1.7956150  74.3100972  76.2557070   1.3350015  71.0227978  77.0349529
   0.8189064  70.2386435  76.8479458   2.2189964  70.6946695  77.1996048
   7.0032077  75.2932942  76.1297282   7.7335465  75.0318230  76.6904986
   6.3939022  74.5561664  76.1699350   5.0847374  73.4340804  76.7271734
   4.3580537  73.2996769  76.1188225   4.6694661  73.7417633  77.5328452
   2.7025169  69.6552657  74.0805165   3.2969660  69.4148393  73.3698473
   2.7751752  68.9359787  74.7078701   5.0096241  72.9618857  72.8548586
   4.4495799  73.0312047  73.6280148   4.4039745  72.7859842  72.1348083
   6.5952260  89.6375371  75.5478542   7.2330670  89.5182119  74.8441882
   6.4773103  90.5856215  75.6066494   3.4041966  89.5902799  75.4840067
   3.0660478  89.4743864  74.5960602   4.2731734  89.1893965  75.4641073
   3.8861749  90.7437651  81.4426272   3.8750390  90.3490449  80.5706776
   4.0482389  90.0103724  82.0360044   4.8428341  95.1109244  66.7851423
   4.1916320  95.6963324  66.3985436   5.6372703  95.6415438  66.8446460
   1.5325217  90.9051612  76.9806816   2.1288789  90.6807634  76.2663779
   1.5900189  90.1636357  77.5832264   6.1493528  87.3626825  72.6231750
   6.9356618  86.9446248  72.2722167   6.4132233  88.2672917  72.7913399
   6.3203606  92.7999676  67.3220407   5.6849439  92.8734302  68.0341312
   5.9901012  93.3893274  66.6439486  11.5501956  87.3002058  73.5264729
  12.2827128  86.7301275  73.7602558  10.7941311  86.9123659  73.9671234
   0.8246534  90.2619153  67.0181382   0.7082792  89.5864056  67.6862466
   0.9348794  89.7751527  66.2013535   3.1678075  89.7229300  70.7228071
   2.8036283  89.1959921  71.4340993   4.0245191  89.3327769  70.5494557
   9.0727376  81.0123633  77.9859337   8.7410701  81.8819043  77.7620552
   8.4772989  80.6959917  78.6653368   2.8083562  84.7519200  65.7189420
   2.9757965  85.6199436  66.0859891   2.6180731  84.9146481  64.7950709
   5.5658895  93.2136179  77.3855250   5.2659619  94.1161217  77.2771057
   5.2209955  92.9468362  78.2376403   8.9656039  85.7318719  75.0652687
   8.0572917  85.6634127  74.7711448   8.9143635  86.2090664  75.8934513
   2.7872783  87.2076857  66.7036086   2.6672408  87.6533908  67.5421567
   2.0925372  87.5562175  66.1449625   3.0396905  87.1508364  83.0087585
   2.2630239  87.7102284  82.9990449   3.6787468  87.6365147  83.5302455
  10.8317686  83.9335157  76.8430561  10.1892066  84.2267690  76.1970356
  10.3272614  83.8188077  77.6483758   8.4857849  87.6798330  67.5316420
   9.3975705  87.9125717  67.3564118   7.9767496  88.2635374  66.9691499
   1.2943277  89.9593818  82.5705552   2.0357962  90.4978862  82.2940375
   0.5880263  90.5860106  82.7277103   6.7698617  92.1022958  81.1677713
   7.1781973  91.6605369  80.4232345   6.0475878  91.5275586  81.4211906
   3.1229687  87.0395565  78.5411270   3.9690882  87.4634978  78.6845919
   3.0628325  86.3829189  79.2349833   7.0927432  92.6624149  74.9230002
   6.4636294  92.8269863  74.2206070   6.7053094  93.0765758  75.6940966
  10.9716664  93.5978587  72.2774366  10.2867702  93.9777488  71.7271399
  11.0560513  94.2073913  73.0106313   6.2729132  84.6999933  80.1992444
   6.0290064  85.4541994  79.6626719   6.5489063  85.0785281  81.0339691
   8.2267595  91.2438546  78.8769709   8.4384490  91.8870306  78.2004090
   8.1797343  90.4100862  78.4091639   5.8293824  83.8556366  75.7806281
   4.9678303  84.1537620  76.0723019   5.8556259  84.0726765  74.8487314
   2.6455393  92.3998557  72.1880087   3.1093739  92.6786260  71.3984710
   2.3812192  91.4982001  72.0053178   1.5824280  88.5221709  68.9969652
   2.2848323  88.9742753  69.4643579   1.2504908  87.8805528  69.6249545
   9.3413423  94.1210501  77.0492067  10.1630867  93.7190688  76.7674748
   9.3375826  94.0178735  78.0008182   3.1070026  93.6694544  79.2052777
   3.1714459  94.1314952  80.0410949   2.3980950  93.0391909  79.3335087
  17.4319416  90.4649250  73.3977038  16.6783124  89.8956648  73.2421042
  17.5666957  90.4311914  74.3447673   2.8218044  95.3362652  69.0731757
   2.6863719  96.1814188  69.5016605   3.3627857  95.5381929  68.3097691
   2.2253345  82.8312111  83.3266369   2.9663058  83.4319264  83.2470832
   2.4571268  82.0889749  82.7684412   4.4486521  95.9586218  83.2032099
   4.0050375  95.1722597  82.8853004   5.1103734  96.1465369  82.5375990
   6.5467759  96.2389018  81.2313501   6.5286234  97.0597899  80.7393770
   7.4687679  96.1143093  81.4563642   3.0040813  93.7533148  82.0737009
   3.5369150  92.9921436  81.8436317   2.4754894  93.4606800  82.8161164
   6.1710508  78.8593214  77.6030651   5.8274777  79.7494855  77.5269761
   6.5389470  78.6694871  76.7400236   6.1360790  88.8501825  66.1103086
   5.6207414  89.6206429  66.3491473   5.8638099  88.1766961  66.7336147
   3.7207901  83.6951526  71.1688324   2.8649498  83.3058376  70.9893963
   4.1334853  83.7743486  70.3088110   5.2507048  81.2297869  75.5679884
   4.7471844  81.1928004  74.7547689   5.5437655  82.1390612  75.6276541
   1.4949934  81.3136599  74.5746066   2.3602931  81.1179407  74.2151955
   1.5627443  81.0846950  75.5015423  11.1095065  91.6034179  68.0456259
  10.3324507  91.2645339  67.6011422  11.7886546  91.6086803  67.3711225
   5.9247094  86.7228917  67.9362867   5.6197229  87.0375066  68.7873010
   6.8777536  86.8010337  67.9790200   4.3693525  92.8819140  69.5855821
   3.8414887  92.1471900  69.2729059   3.8681028  93.6593817  69.3395789
   9.3486371  91.0768161  74.7022867   8.6910046  91.7667422  74.7902996
  10.1526771  91.4664593  75.0456854   8.1591830  89.4312533  72.7526809
   8.6723712  90.0642525  73.2548519   8.8093054  88.8313729  72.3870169
   1.4034921  80.4180055  70.6737502   0.7499333  80.1029073  70.0494117
   1.3615395  79.7955796  71.3997325   2.5146126  90.6999350  62.5890794
   1.6073187  90.4688604  62.7881943   3.0117158  89.9036970  62.7764776
   5.4214205  99.4096858  65.5087480   4.7475903  99.7128554  66.1172438
   5.8080026 100.2125938  65.1592937   4.6372661  86.9061989  74.9985150
   3.7195223  87.1276936  74.8406838   5.0532805  86.9808299  74.1396857
   5.4207709  88.3053405  70.1287830   6.1679528  88.8174802  69.8194952
   5.6899298  87.9837457  70.9892224   3.6934359  90.8011945  67.1114784
   2.7845578  90.5170978  67.2087254   3.7229443  91.2211024  66.2518091
   8.9253626  94.4118535  70.8805952   8.4715954  93.5709445  70.9371142
   8.2947593  95.0479933  71.2180732   7.8686546  85.3410521  72.1106619
   7.1309303  84.8287907  72.4416862   8.1213320  84.9010902  71.2989896
   7.3686566  96.2495032  71.8155770   7.6609540  96.8100089  71.0968136
   7.8785186  96.5423593  72.5708929   7.9698173  78.1186773  72.7048389
   8.2757050  77.2584136  72.4174304   8.6950778  78.7104393  72.5047382
   2.2419253  88.4140566  73.2124580   2.2967863  87.4614402  73.1367056
   1.4310455  88.5700005  73.6965878   3.3910447  92.3420689  64.4502863
   2.9529877  91.6256548  63.9908500   4.1320888  92.5696804  63.8887954
   2.3320191  97.0275383  72.9049223   2.2896370  97.2536229  71.9757755
   3.2482890  96.7938757  73.0535024   5.7785825  87.4959450  79.8029852
   6.1335212  87.7230923  80.6624318   6.4257956  87.8277827  79.1807108
  11.5083562  90.6177886  70.5079181  11.3701460  90.8079482  69.5800371
  11.1519780  91.3797269  70.9647233  11.5352941  92.6854413  75.5190453
  11.9689448  92.5929702  76.3673507  12.2484522  92.6611914  74.8810469
   5.2680836  96.2856507  77.0523554   5.3217858  96.8547443  77.8201269
   4.3995618  96.4558392  76.6877591  12.3968491  92.7278114  78.0523338
  12.5904381  93.6323924  78.2982613  12.2969109  92.2685533  78.8861923
   4.0504802  82.6136004  80.5513666   3.4032717  83.3125954  80.4578142
   4.8205817  83.0472148  80.9189914   7.4583600  92.8784856  83.6264219
   7.3069106  92.6495408  82.7094303   7.4488279  93.8355458  83.6395564
   4.2268936  90.4516769  78.6110485   5.1560996  90.6027929  78.4379453
   3.8059966  90.5400790  77.7559132   3.0257268  94.4767434  76.3809023
   2.8868353  94.1086218  77.2534961   2.2371864  94.9915073  76.2092981
   3.6205420  99.5776530  67.7234560   3.7957175  99.1064573  68.5380182
   2.9338208 100.2042296  67.9515820   4.5762483  93.8549036  73.7697861
   4.2412315  93.8149806  74.6655511   4.0766429  93.1893752  73.2968271
   7.5121674  91.2005071  64.0434920   6.8950845  90.4751899  63.9467973
   7.0438163  91.9614431  63.7001995   1.1789027  88.9736626  78.7834122
   1.8888646  88.3329818  78.7420740   1.1358336  89.2249521  79.7060302
   9.1675806  95.9103979  81.7040701   9.1088352  95.2263199  81.0371284
   9.5695325  96.6522969  81.2521327   9.1693213  93.8743563  79.9354680
   8.2819992  93.5369485  80.0581079   9.7391764  93.1426594  80.1723446
   2.6994367  98.5345015  76.9015924   2.6264538  99.3399987  77.4135228
   2.2571760  98.7336981  76.0763945   2.4884146  97.7716785  70.4118745
   1.7051668  98.3138466  70.5056970   3.1876892  98.2890765  70.8112986
   5.7980797  83.5811415  73.0552951   6.2949496  82.8281377  72.7354021
   5.0267778  83.6175731  72.4896160  13.6510554  89.2851780  74.6971242
  13.6400430  90.1676496  74.3265175  12.7827933  88.9323331  74.5025779
   5.1593050  98.4331849  79.0574082   5.8721023  99.0679314  78.9849984
   4.6683079  98.5295715  78.2414084   6.8810577  92.3383102  70.6291374
   5.9466856  92.4584564  70.4596078   7.0587246  91.4355569  70.3651384
   2.3815765  85.7228798  72.7824635   2.0113553  85.1699838  73.4705541
   2.8774858  85.1186931  72.2299635  10.2683129  88.1800421  71.1641408
  10.7343581  89.0128413  71.0901711  10.7190629  87.7145403  71.8686667
   8.3359360  94.5244243  68.1627560   8.6119204  94.4100837  69.0721434
   7.4663858  94.1261727  68.1239733   8.2399791  80.5481008  75.2032309
   7.3262871  80.7785235  75.3714516   8.6692893  80.6319452  76.0546342
   8.0106250  88.7370900  77.7032204   7.3577700  88.9846808  77.0484656
   8.3886630  87.9235038  77.3694681   4.9713424  98.7730593  71.8060374
   5.1535818  97.9552249  72.2688126   5.7946410  98.9898286  71.3685264
   5.3055589  97.6998779  69.0675422   5.8343356  97.1891233  68.4545584
   5.5683809  97.3841309  69.9320955   4.0593823  89.4790711  84.1898241
   3.3834460  89.3784841  84.8600616   4.8821457  89.3229925  84.6534238
   2.8016606 100.7857639  78.4255857   3.3534914 100.9489260  79.1904942
   3.1422799 101.3762077  77.7535881   7.6527480  95.6118896  84.2804511
   8.1967384  96.2248855  83.7859466   7.0714325  96.1698475  84.7971524
   5.9384993  98.7339614  75.4119539   5.8136132  97.9329354  74.9030484
   6.5964084  99.2285808  74.9233509   8.0019901  96.5348634  77.0399089
   7.0550237  96.4153986  76.9677416   8.3502675  95.6471132  77.1225350
   5.0066335  96.3301351  73.2403441   4.8591297  95.4018058  73.4211011
   5.8319828  96.3521441  72.7560516   8.6100457  97.1529909  74.3268314
   9.5347004  96.9472771  74.1892765   8.4415760  96.9046310  75.2357655
   1.5672020  83.3656468  78.5487001   1.2268840  82.5664281  78.9507681
   0.8611026  83.6658179  77.9763834   2.2188492  80.4505781  77.0014324
   3.0414561  79.9766259  76.8793215   2.4626555  81.2296265  77.5013011
   5.0027849  84.1839188  68.2335558   5.2191463  85.0663826  67.9324386
   4.5221916  83.7925402  67.5041200   1.6023453  84.1327449  74.8587192
   1.5885022  83.2368543  74.5219490   2.3195881  84.1398113  75.4925478
   3.4549584  84.5664790  76.9040320   3.1967362  85.4881860  76.9024650
   2.9234624  84.1695224  77.5940784   8.3995773  97.6715577  69.6830405
   8.5732650  97.1061999  68.9304258   8.8924664  98.4716472  69.5009895
   1.0060349  83.0141830  70.1274763   1.1276260  82.0858476  70.3265650
   0.7162392  83.0280516  69.2153078   3.8751540  80.6996740  73.2641482
   3.8973236  80.7636073  72.3093462   4.2919599  79.8601249  73.4581989
  14.2535164  90.4352000  71.3020705  14.6966310  89.6859325  70.9039828
  13.3761674  90.4262136  70.9194437   9.3870945  96.9882341  66.7827304
  10.0821850  97.6089034  67.0014618   9.7294095  96.1377692  67.0579681
  11.2862368  94.4382047  68.3114634  11.8113692  94.7769319  67.5863954
  11.1984721  93.5029062  68.1277769   2.9482417  98.3516120  80.4404511
   3.2569544  98.1065267  81.3127211   3.7457899  98.5562759  79.9523381
   2.9703029 100.5054030  72.6709887   2.5308019 100.0130409  73.3642744
   3.7211146  99.9626998  72.4301963   0.4901429  84.5273827  84.3364695
   0.5389584  85.4035950  83.9542465   1.0323943  83.9851220  83.7636338
  10.9756274  95.0714950  83.6165832  10.1851818  95.0539089  83.0770332
  10.7389629  95.6103244  84.3714869  11.0954149  91.9207417  80.9298561
  11.1452154  91.7557424  81.8714084  10.9868073  91.0534676  80.5396442
   8.3857912  87.9038345  82.2457868   9.2867775  87.7644810  81.9541865
   8.4605886  88.0692800  83.1856045   2.7200717  85.2805199  81.0911054
   1.8504027  85.5738766  80.8193642   2.9560198  85.8645644  81.8118317
  12.5972346  94.3404358  81.1740582  12.3057155  94.7034339  82.0104043
  11.9844478  93.6271367  80.9953914  13.7968029  91.9057238  73.6943153
  14.6314920  92.3447042  73.8580713  13.9327157  91.4295891  72.8751398
  10.8459535  89.4636973  79.6420640  11.3213656  89.6564619  78.8339492
   9.9225100  89.5196159  79.3964024   5.4239751  81.4984816  78.6076474
   5.9421695  82.2345843  78.2822963   5.0694884  81.8048810  79.4423233
   5.6752345  77.9185099  74.1277371   5.9554099  77.2508288  74.7537797
   6.4602952  78.1114195  73.6152035   3.4785814  97.0944093  65.6902397
   2.9059781  97.7134280  65.2372869   4.0518607  97.6443455  66.2242319
   9.5461204  86.3402733  77.8748946  10.4978626  86.4400831  77.8961170
   9.3764654  85.5481001  78.3847030   7.5675583  83.4258316  78.0608347
   6.9725515  83.7063329  77.3654835   7.2825280  83.9152217  78.8325088
   6.6983073  97.3781243  66.8210979   7.6313747  97.3126805  67.0243855
   6.6106286  98.2137510  66.3625512   9.3271090  96.6947113  63.7814927
   9.2484722  96.3606977  64.6750685  10.1480757  97.1868881  63.7806399
  12.0249281  89.5608853  76.9891246  11.9925601  88.6224853  77.1750929
  12.6349905  89.6392889  76.2557070   3.8632612  88.4304906  63.0318450
   4.8091717  88.3011114  63.1006868   3.4846857  87.6919568  63.5087878
  12.1743770  86.3519896  77.0349529  11.6582818  85.5678353  76.8479458
  13.0583718  86.0238613  77.1996048   9.8354497  80.0960912  72.9945341
   9.6379318  79.7876000  73.8788673  10.4454202  80.8222551  73.1243271
  17.8425831  90.6224859  76.1297282  18.5729220  90.3610148  76.6904986
  17.2332777  89.8853581  76.1699350  15.9241128  88.7632722  76.7271734
  15.1974292  88.6288687  76.1188225  15.5088415  89.0709551  77.5328452
   3.7471305  92.4822652  84.4919107   4.6674314  92.6601251  84.6859153
   3.7120888  91.5378697  84.3398806   2.0475529  86.3554882  62.9673335
   1.1406985  86.0587995  63.0436048   2.3251510  86.0584700  62.1007621
   3.6637595  80.8991772  69.1217576   2.8538323  80.5538857  69.4972822
   4.3522012  80.5899315  69.7105188   5.5928143  79.9769819  70.7441873
   6.1459182  80.3965272  71.4031896   5.8298230  79.0505567  70.7864829
   1.6161243  85.9656892  86.5244637   1.5157969  86.9151249  86.4556728
   1.3982785  85.6375131  85.6520707   0.8174314  83.2141817  63.1085314
   1.6793478  83.5396716  63.3681131   1.0024658  82.4273313  62.5958380
   8.9706950  82.0870344  70.2520537   8.3905620  82.7455148  69.8698589
   8.7042883  81.2647688  69.8407955   7.4210517  81.4875401  72.4541857
   7.9210295  81.5991936  71.6456176   8.0646125  81.1836454  73.0942666
   1.4792513  89.3954031  85.3409698   0.9959594  90.1954391  85.5473587
   1.5653452  89.4061976  84.3877142   7.7531828  84.2470434  69.3076885
   6.8657683  84.5320085  69.0897080   8.1685818  84.0864197  68.4604162
  11.1046365  84.2716955  73.0231225  11.8806755  84.7613407  73.2955841
  10.3794499  84.6975009  73.4803094  13.5418923  84.9844574  74.0805165
  14.1363414  84.7440310  73.3698473  13.6145507  84.2651705  74.7078701
   6.8975042  94.0115109  63.4024905   7.6010892  94.2165111  64.0182561
   6.1737691  94.5791871  63.6673989   7.7272852  89.7624970  69.5227175
   7.6708054  90.2193521  68.6834808   8.2801195  89.0015655  69.3450018
  11.5377658  85.5514702  70.3477295  11.2814592  85.1511338  71.1785503
  10.9130526  86.2658496  70.2227434  15.8489996  88.2910775  72.8548586
  15.2889554  88.3603964  73.6280148  15.2433499  88.1151760  72.1348083
   8.8061739  94.4497638  65.4523365   9.6407343  94.0178836  65.2700840
   8.6446082  94.2779652  66.3800260   8.4607632  90.9529751  66.8179705
   8.4056435  90.7874023  65.8768149   7.8353687  91.6605784  66.9741894
   5.7753539  93.2578663  86.1433267   6.6444698  93.4319315  85.7819902
   5.2960290  94.0773080  86.0208997   1.7703757  80.4537860  66.3965023
   1.7582427  81.3979700  66.5533294   2.6627179  80.2708006  66.1024484
   1.6993321  99.1306751  74.4832780   0.7488952  99.1308612  74.3697152
   2.0025807  98.3839485  73.9668814   5.5855876  77.0480637  70.6510960
   4.8188272  76.4939124  70.7967642   5.9966581  77.1202506  71.5125111
  17.4346014 104.9667289  75.5478542  18.0724424 104.8474036  74.8441882
  17.3166857 105.9148133  75.6066494  14.2435721 104.9194717  75.4840067
  13.9054232 104.8035782  74.5960602  15.1125489 104.5185882  75.4641073
  10.1022536 106.7730194  71.4736958   9.5387402 106.6820130  70.7053245
   9.9874931 105.9530098  71.9539450  14.7255504 106.0729569  81.4426272
  14.7144144 105.6782367  80.5706776  14.8876143 105.3395641  82.0360044
   7.6486968 108.2681385  74.3121178   8.4408260 107.9272210  73.8967478
   7.8883619 108.3776360  75.2323332  15.6822095 110.4401161  66.7851423
  15.0310075 111.0255242  66.3985436  16.4766458 110.9707356  66.8446460
   9.6077722 107.5290298  67.1838557  10.3808598 106.9819285  67.0451433
   9.9603121 108.3934548  67.3953018  11.4462765 108.8566681  80.3905456
  11.1552631 109.7612312  80.2752123  12.0819749 108.8983208  81.1049526
  12.3718972 106.2343529  76.9806816  12.9682544 106.0099552  76.2663779
  12.4293943 105.4928275  77.5832264  11.9444000 103.6882965  64.8157007
  12.1969521 103.1664486  64.0540470  11.0068559 103.5249110  64.9183691
  16.9887283 102.6918743  72.6231750  17.7750372 102.2738166  72.2722167
  17.2525987 103.5964835  72.7913399  17.1597360 108.1291593  67.3220407
  16.5243193 108.2026220  68.0341312  16.8294767 108.7185192  66.6439486
  22.3895710 102.6293976  73.5264729  23.1220882 102.0593193  73.7602558
  21.6335066 102.2415577  73.9671234  11.6640289 105.5911070  67.0181382
  11.5476547 104.9155974  67.6862466  11.7742549 105.1043444  66.2013535
  14.0071830 105.0521218  70.7228071  13.6430037 104.5251839  71.4340993
  14.8638946 104.6619687  70.5494557  19.9121130  96.3415550  77.9859337
  19.5804455  97.2110961  77.7620552  19.3166744  96.0251834  78.6653368
  13.6477317 100.0811117  65.7189420  13.8151719 100.9491354  66.0859891
  13.4574486 100.2438399  64.7950709  16.4052650 108.5428096  77.3855250
  16.1053373 109.4453135  77.2771057  16.0603709 108.2760279  78.2376403
   9.8565131 104.9941893  73.4191954   8.9315628 104.8618107  73.6269646
  10.1049545 105.7736112  73.9161897  19.8049794 101.0610636  75.0652687
  18.8966671 100.9926045  74.7711448  19.7537390 101.5382581  75.8934513
  13.6266538 102.5368775  66.7036086  13.5066163 102.9825826  67.5421567
  12.9319126 102.8854092  66.1449625   7.2173942 104.6375167  74.2535743
   7.3466324 104.8909646  75.1675155   6.5371394 105.2302875  73.9340399
  11.3873430 115.3072417  70.3526218  11.3097459 116.2580242  70.4314698
  10.7835073 114.9618289  71.0101144  13.8790659 102.4800282  83.0087585
  13.1023994 103.0394202  82.9990449  14.5181223 102.9657065  83.5302455
  21.6711440  99.2627075  76.8430561  21.0285820  99.5559608  76.1970356
  21.1666369  99.1479995  77.6483758  19.3251604 103.0090248  67.5316420
  20.2369460 103.2417635  67.3564118  18.8161251 103.5927292  66.9691499
  12.1337032 105.2885735  82.5705552  12.8751716 105.8270779  82.2940375
  11.4274017 105.9152024  82.7277103  17.6092371 107.4314876  81.1677713
  18.0175727 106.9897286  80.4232345  16.8869633 106.8567503  81.4211906
  13.9623441 102.3687483  78.5411270  14.8084637 102.7926896  78.6845919
  13.9022079 101.7121107  79.2349833  17.9321186 107.9916066  74.9230002
  17.3030049 108.1561781  74.2206070  17.5446848 108.4057676  75.6940966
  21.8110418 108.9270504  72.2774366  21.1261456 109.3069406  71.7271399
  21.8954267 109.5365831  73.0106313  17.1122887 100.0291851  80.1992444
  16.8683819 100.7833911  79.6626719  17.3882817 100.4077199  81.0339691
  19.0661350 106.5730463  78.8769709  19.2778245 107.2162223  78.2004090
  19.0191098 105.7392780  78.4091639  16.6687579  99.1848284  75.7806281
  15.8072058  99.4829538  76.0723019  16.6950013  99.4018683  74.8487314
  13.4849148 107.7290475  72.1880087  13.9487494 108.0078177  71.3984710
  13.2205946 106.8273919  72.0053178  10.3773229 107.2761956  75.1259850
  10.9474586 107.7049224  74.4877335  10.9681341 106.9944541  75.8244036
  12.4218034 103.8513627  68.9969652  13.1242077 104.3034671  69.4643579
  12.0898663 103.2097446  69.6249545  10.8698396 102.4425383  83.3720862
  10.2397056 103.1241664  83.6056258  10.7634483 102.3308465  82.4274000
   6.1643368 102.1097180  74.2986786   5.3742422 102.3654708  73.8226896
   6.6554615 102.9245517  74.4038826  20.1807178 109.4502419  77.0492067
  21.0024621 109.0482606  76.7674748  20.1769580 109.3470653  78.0008182
   8.1158113 102.4741759  71.2570262   7.3189277 102.5860453  71.7753758
   7.8883706 102.8128411  70.3911153  13.9463781 108.9986462  79.2052777
  14.0108214 109.4606869  80.0410949  13.2374705 108.3683827  79.3335087
   4.4481071 102.3627670  76.7301777   4.6989109 103.2474680  76.9959352
   4.9840619 102.1832272  75.9576868  28.2713171 105.7941167  73.3977038
  27.5176879 105.2248565  73.2421042  28.4060712 105.7603832  74.3447673
  13.6611799 110.6654569  69.0731757  13.5257473 111.5106105  69.5016605
  14.2021611 110.8673847  68.3097691  10.1479138  96.7446149  85.7346113
   9.7546084  96.1912348  86.4093757  10.9645279  97.0556728  86.1252630
   7.1141196 108.1830008  69.6459682   7.6265717 108.9773258  69.7965247
   7.7663909 107.4856298  69.5793284   8.9236081 111.2995764  71.7282436
   9.1002709 112.2213729  71.5403420   9.7192914 110.9854183  72.1576815
  13.0647099  98.1604028  83.3266369  13.8056813  98.7611182  83.2470832
  13.2965022  97.4181666  82.7684412   8.2088437 103.3460396  81.6044599
   8.0941952 102.4445653  81.9051698   7.3532955 103.5924092  81.2529415
  15.2880275 111.2878136  83.2032099  14.8444129 110.5014515  82.8853004
  15.9497489 111.4757287  82.5375990  10.0467396 112.8173938  77.7292778
  10.5974821 112.6891001  76.9569772   9.2078872 113.1168827  77.3787671
  17.3861513 111.5680936  81.2313501  17.3679988 112.3889817  80.7393770
  18.3081433 111.4435011  81.4563642  13.8434567 109.0825065  82.0737009
  14.3762904 108.3213354  81.8436317  13.3148648 108.7898717  82.8161164
  17.0104262  94.1885131  77.6030651  16.6668532  95.0786773  77.5269761
  17.3783225  93.9986789  76.7400236   5.0790113 106.5118662  70.4219253
   5.9165335 106.9215670  70.2052961   5.2568381 105.5718104  70.3919447
  16.9754545 104.1793742  66.1103086  16.4601168 104.9498347  66.3491473
  16.7031853 103.5058879  66.7336147  14.5601656  99.0243443  71.1688324
  13.7043252  98.6350294  70.9893963  14.9728608  99.1035404  70.3088110
  16.0900803  96.5589787  75.5679884  15.5865598  96.5219922  74.7547689
  16.3831409  97.4682529  75.6276541  12.3343688  96.6428516  74.5746066
  13.1996685  96.4471325  74.2151955  12.4021197  96.4138868  75.5015423
  21.9488819 106.9326097  68.0456259  21.1718262 106.5937257  67.6011422
  22.6280300 106.9378720  67.3711225  16.7640848 102.0520835  67.9362867
  16.4590984 102.3666984  68.7873010  17.7171290 102.1302254  67.9790200
  15.2087280 108.2111058  69.5855821  14.6808642 107.4763817  69.2729059
  14.7074783 108.9885734  69.3395789  20.1880126 106.4060078  74.7022867
  19.5303800 107.0959340  74.7902996  20.9920525 106.7956510  75.0456854
   9.9406008  98.8730724  71.9462433  10.5149759  98.6505906  71.2135626
  10.5276990  98.9419419  72.6991034  18.9985585 104.7604451  72.7526809
  19.5117467 105.3934443  73.2548519  19.6486809 104.1605647  72.3870169
  10.2675595 100.9035185  65.9658318   9.4312907 101.2409872  66.2867593
  10.1280364 100.7684165  65.0285455  12.2428675  95.7471973  70.6737502
  11.5893088  95.4320990  70.0494117  12.2009149  95.1247714  71.3997325
  13.3539880 106.0291268  62.5890794  12.4466942 105.7980522  62.7881943
  13.8510912 105.2328887  62.7764776  16.2607959 114.7388775  65.5087480
  15.5869658 115.0420472  66.1172438  16.6473781 115.5417856  65.1592937
  15.4766416 102.2353907  74.9985150  14.5588977 102.4568854  74.8406838
  15.8926559 102.3100217  74.1396857  16.2601463 103.6345322  70.1287830
  17.0073282 104.1466720  69.8194952  16.5293053 103.3129375  70.9892224
  14.5328114 106.1303863  67.1114784  13.6239333 105.8462896  67.2087254
  14.5623197 106.5502942  66.2518091  19.7647381 109.7410453  70.8805952
  19.3109708 108.9001362  70.9371142  19.1341348 110.3771851  71.2180732
  18.7080301 100.6702439  72.1106619  17.9703057 100.1579825  72.4416862
  18.9607074 100.2302820  71.2989896  18.2080320 111.5786949  71.8155770
  18.5003295 112.1392006  71.0968136  18.7178941 111.8715510  72.5708929
  18.8091928  93.4478691  72.7048389  19.1150805  92.5876054  72.4174304
  19.5344533  94.0396311  72.5047382   5.1016284 103.8509377  71.0929986
   4.9040684 103.2578738  70.3681053   4.5462948 103.5461587  71.8105925
  13.0813008 103.7432484  73.2124580  13.1361617 102.7906320  73.1367056
  12.2704210 103.8991923  73.6965878  14.2304201 107.6712607  64.4502863
  13.7923631 106.9548466  63.9908500  14.9714642 107.8988722  63.8887954
  11.0205368 102.3609543  70.9714958  10.2073233 102.6603714  71.3780151
  11.5164362 101.9665232  71.6889441  13.1713945 112.3567300  72.9049223
  13.1290124 112.5828147  71.9757755  14.0876644 112.1230675  73.0535024
  16.6179579 102.8251368  79.8029852  16.9728967 103.0522841  80.6624318
  17.2651710 103.1569745  79.1807108  22.3477316 105.9469804  70.5079181
  22.2095215 106.1371400  69.5800371  21.9913535 106.7089187  70.9647233
  10.5119442  99.9327899  76.5876193  11.1518822  99.7916658  75.8899157
   9.6796973  99.6462412  76.2114795  22.3746696 108.0146331  75.5190453
  22.8083202 107.9221620  76.3673507  23.0878276 107.9903831  74.8810469
  11.2879746 109.2330329  72.7011186  12.0820345 108.7380649  72.4993761
  10.5771439 108.7048192  72.3378891  16.1074591 111.6148425  77.0523554
  16.1611613 112.1839361  77.8201269  15.2389372 111.7850310  76.6877591
   7.5962510 103.3773411  68.7770939   6.6660098 103.3157867  68.9940901
   7.6919982 102.8549364  67.9807580   7.5148059  99.9028224  71.3649180
   7.7754876 100.8173557  71.2558341   8.3365231  99.4352666  71.5145793
   8.9872984 101.3165981  78.5348005   9.6596037 101.1083343  77.8860654
   8.1602771 101.1188067  78.0953237  23.2362245 108.0570031  78.0523338
  23.4298135 108.9615842  78.2982613  23.1362863 107.5977450  78.8861923
  14.8898556  97.9427922  80.5513666  14.2426471  98.6417872  80.4578142
  15.6599571  98.3764066  80.9189914  18.2977354 108.2076774  83.6264219
  18.1462860 107.9787326  82.7094303  18.2882033 109.1647376  83.6395564
  15.0662690 105.7808687  78.6110485  15.9954750 105.9319846  78.4379453
  14.6453720 105.8692708  77.7559132  13.8651022 109.8059351  76.3809023
  13.7262108 109.4378136  77.2534961  13.0765618 110.3206991  76.2092981
  14.4599174 114.9068448  67.7234560  14.6350930 114.4356491  68.5380182
  13.7731962 115.5334214  67.9515820  15.4156237 109.1840954  73.7697861
  15.0806070 109.1441724  74.6655511  14.9160183 108.5185670  73.2968271
   9.3900481 104.5908584  79.2950442   9.2520279 103.8588823  79.8961981
  10.3005405 104.5017484  79.0134630  18.3515429 106.5296988  64.0434920
  17.7344600 105.8043817  63.9467973  17.8831917 107.2906349  63.7001995
  12.0182782 104.3028543  78.7834122  12.7282400 103.6621736  78.7420740
  11.9752090 104.5541438  79.7060302  20.0069561 111.2395897  81.7040701
  19.9482107 110.5555117  81.0371284  20.4089079 111.9814887  81.2521327
  10.7311716 101.2893761  80.6029761  10.1949073 100.8384500  81.2551357
  10.1428424 101.4239670  79.8600225   9.0260259 118.0557811  74.4974420
   9.2656858 118.6876335  75.1753438   8.1829456 117.7045851  74.7839779
  10.1413975 100.7482413  63.1656225   9.2643441 100.6271213  62.8018471
  10.6171728  99.9568491  62.9135113  20.0086968 109.2035481  79.9354680
  19.1213747 108.8661402  80.0581079  20.5785519 108.4718512  80.1723446
   1.6616115 105.5359572  73.2597732   2.3487155 105.2221302  72.6718747
   1.5064244 106.4400937  72.9864983   6.4650837 100.4249769  77.6882756
   6.3809026  99.8175438  76.9533165   5.6433544 100.9158787  77.6892252
  13.5388121 113.8636933  76.9015924  13.4658293 114.6691904  77.4135228
  13.0965514 114.0628899  76.0763945  13.3277901 113.1008703  70.4118745
  12.5445423 113.6430383  70.5056970  14.0270646 113.6182683  70.8112986
  16.6374551  98.9103332  73.0552951  17.1343251  98.1573295  72.7354021
  15.8661533  98.9467649  72.4896160  24.4904308 104.6143698  74.6971242
  24.4794185 105.4968413  74.3265175  23.6221688 104.2615249  74.5025779
  15.9986805 113.7623767  79.0574082  16.7114777 114.3971232  78.9849984
  15.5076833 113.8587633  78.2414084  17.7204332 107.6675020  70.6291374
  16.7860610 107.7876482  70.4596078  17.8981000 106.7647486  70.3651384
  13.2209520 101.0520715  72.7824635  12.8507307 100.4991756  73.4705541
  13.7168612 100.4478849  72.2299635  21.1076883 103.5092339  71.1641408
  21.5737335 104.3420331  71.0901711  21.5584384 103.0437321  71.8686667
  11.0498718 111.5118210  79.8779653  11.7508178 112.1454693  80.0309047
  10.5793833 111.8532942  79.1175292  19.1753114 109.8536160  68.1627560
  19.4512958 109.7392755  69.0721434  18.3057613 109.4553645  68.1239733
  19.0793546  95.8772926  75.2032309  18.1656626  96.1077153  75.3714516
  19.5086647  95.9611370  76.0546342  18.8500004 104.0662818  77.7032204
  18.1971455 104.3138725  77.0484656  19.2280384 103.2526956  77.3694681
  15.8107178 114.1022511  71.8060374  15.9929573 113.2844167  72.2688126
  16.6340164 114.3190203  71.3685264  16.1449344 113.0290696  69.0675422
  16.6737110 112.5183151  68.4545584  16.4077563 112.7133226  69.9320955
  14.8987577 104.8082629  84.1898241  14.2228214 104.7076758  84.8600616
  15.7215211 104.6521843  84.6534238   6.6466436 111.0454566  76.8110756
   7.2319873 110.2998253  76.9438660   6.4491275 111.3558522  77.6947420
   9.5005092 114.0805813  71.8273198   8.8315467 114.5651941  71.3437238
   9.3617961 114.3275033  72.7416577   1.2384091 103.6160166  75.5315199
   1.2768191 103.0823756  76.3252317   0.7324384 103.0895371  74.9126176
  13.6410360 116.1149556  78.4255857  14.1928668 116.2781178  79.1904942
  13.9816554 116.7053994  77.7535881   8.6174853  98.4624706  79.0277741
   8.6816180  99.3239537  78.6155139   8.5541974  97.8498708  78.2950100
   8.0927126 100.5347839  82.6750776   8.7199165 100.1524916  83.2888300
   7.2355045 100.3162041  83.0406468  18.4921235 110.9410814  84.2804511
  19.0361139 111.5540772  83.7859466  17.9108079 111.4990392  84.7971524
   4.8692669 102.3424268  68.6069130   5.1646110 101.4334946  68.5536184
   3.9680705 102.3212007  68.2850133  16.7778748 114.0631532  75.4119539
  16.6529887 113.2621272  74.9030484  17.4357839 114.5577725  74.9233509
   8.3986916 100.4180264  74.5896679   7.6773501 101.0316232  74.4504152
   9.1880172 100.9538029  74.5113325  18.8413656 111.8640552  77.0399089
  17.8943991 111.7445903  76.9677416  19.1896429 110.9763050  77.1225350
  11.2013229  97.7534691  80.8637331  11.7247631  97.9996987  81.6263640
  10.9825563  98.5854726  80.4440468   6.5980510 100.0238366  68.7308456
   6.2693216  99.1435744  68.5483561   6.9519881  99.9686034  69.6184845
  15.8460089 111.6593268  73.2403441  15.6985052 110.7309976  73.4211011
  16.6713583 111.6813359  72.7560516   9.7122333 100.3111335  69.0983933
  10.0518406 100.8397257  68.3762542  10.1594454 100.6491741  69.8742500
  19.4494211 112.4821827  74.3268314  20.3740759 112.2764688  74.1892765
  19.2809514 112.2338228  75.2357655  12.4065774  98.6948386  78.5487001
  12.0662595  97.8956199  78.9507681  11.7004781  98.9950097  77.9763834
  13.0582246  95.7797698  77.0014324  13.8808315  95.3058177  76.8793215
  13.3020310  96.5588182  77.5013011  11.6990481  98.8085957  67.2977226
  12.4198843  99.1867210  66.7940943  11.0755785  99.5274834  67.4012204
  15.8421604  99.5131106  68.2335558  16.0585218 100.3955744  67.9324386
  15.3615671  99.1217319  67.5041200  10.5820825 102.4716819  74.8106303
  10.4365406 102.7857122  75.7030584  10.1046029 103.0901719  74.2577202
  12.4417208  99.4619367  74.8587192  12.4278777  98.5660460  74.5219490
  13.1589636  99.4690031  75.4925478  14.2943338  99.8956707  76.9040320
  14.0361116 100.8173778  76.9024650  13.7628379  99.4987142  77.5940784
  19.2389527 113.0007494  69.6830405  19.4126405 112.4353917  68.9304258
  19.7318418 113.8008389  69.5009895   5.0566487 105.0122164  77.7493964
   4.5119955 105.7881971  77.8814238   5.9345837 105.3592968  77.5913086
  11.8454104  98.3433747  70.1274763  11.9670015  97.4150394  70.3265650
  11.5556146  98.3572433  69.2153078  14.7145294  96.0288658  73.2641482
  14.7366991  96.0927991  72.3093462  15.1313353  95.1893166  73.4581989
  25.0928918 105.7643917  71.3020705  25.5360064 105.0151243  70.9039828
  24.2155429 105.7554054  70.9194437  20.2264700 112.3174259  66.7827304
  20.9215604 112.9380952  67.0014618  20.5687850 111.4669610  67.0579681
   5.8432509 104.1392060  80.6424121   5.1014245 104.2874695  81.2288751
   5.5225253 104.4000325  79.7790870  22.1256123 109.7673964  68.3114634
  22.6507447 110.1061237  67.5863954  22.0378475 108.8320980  68.1277769
  13.7876172 113.6808038  80.4404511  14.0963298 113.4357185  81.3127211
  14.5851654 113.8854676  79.9523381  13.8096784 115.8345948  72.6709887
  13.3701774 115.3422326  73.3642744  14.5604901 115.2918915  72.4301963
   6.2889123 112.0257489  72.6734516   7.1147142 111.7261260  72.2933159
   5.9383175 111.2565111  73.1224304  11.2570656 111.3783957  74.7432189
  10.6350665 110.7154662  74.4434417  11.9275523 111.4045089  74.0605837
   4.4897728 109.9443815  73.6323449   3.6529636 109.5165989  73.4507450
   4.4621373 110.1376258  74.5694240  11.3295183  99.8565745  84.3364695
  11.3783339 100.7327868  83.9542465  11.8717697  99.3143138  83.7636338
  21.8150029 110.4006868  83.6165832  21.0245573 110.3831007  83.0770332
  21.5783383 110.9395162  84.3714869  21.9347904 107.2499334  80.9298561
  21.9845909 107.0849342  81.8714084  21.8261827 106.3826593  80.5396442
  10.8184163 109.9287880  68.2190650  10.9672283 110.6123344  67.5657322
  11.6250606 109.9092970  68.7340105  19.2251666 103.2330262  82.2457868
  20.1261529 103.0936727  81.9541865  19.2999641 103.3984717  83.1856045
  13.5594472 100.6097117  81.0911054  12.6897781 100.9030683  80.8193642
  13.7953952 101.1937562  81.8118317  23.4366101 109.6696276  81.1740582
  23.1450909 110.0326256  82.0104043  22.8238232 108.9563284  80.9953914
  24.6361783 107.2349156  73.6943153  25.4708675 107.6738960  73.8580713
  24.7720912 106.7587809  72.8751398  21.6853289 104.7928891  79.6420640
  22.1607411 104.9856537  78.8339492  20.7618854 104.8488076  79.3964024
   8.5736796 105.9553058  69.2251719   8.3282838 105.0515388  69.4231929
   8.7432710 105.9570208  68.2831197  16.2633506  96.8276734  78.6076474
  16.7815449  97.5637761  78.2822963  15.9088638  97.1340727  79.4423233
   7.8432443 101.6881415  66.7237880   7.1501688 101.7625770  66.0677916
   7.5984195 100.9241759  67.2459397  16.5146100  93.2477017  74.1277371
  16.7947853  92.5800206  74.7537797  17.2996707  93.4406112  73.6152035
  14.3179568 112.4236011  65.6902397  13.7453535 113.0426198  65.2372869
  14.8912362 112.9735372  66.2242319  20.3854958 101.6694651  77.8748946
  21.3372381 101.7692748  77.8961170  20.2158408 100.8772919  78.3847030
  18.4069338  98.7550234  78.0608347  17.8119270  99.0355247  77.3654835
  18.1219034  99.2444135  78.8325088  17.5376828 112.7073161  66.8210979
  18.4707501 112.6418722  67.0243855  17.4500041 113.5429428  66.3625512
  20.1664845 112.0239031  63.7814927  20.0878476 111.6898895  64.6750685
  20.9874511 112.5160799  63.7806399  22.8643036 104.8900770  76.9891246
  22.8319356 103.9516771  77.1750929  23.4743659 104.9684807  76.2557070
  14.7026367 103.7596823  63.0318450  15.6485471 103.6303031  63.1006868
  14.3240612 103.0211485  63.5087878  23.0137524 101.6811814  77.0349529
  22.4976573 100.8970270  76.8479458  23.8977473 101.3530530  77.1996048
  20.6748251  95.4252829  72.9945341  20.4773072  95.1167917  73.8788673
  21.2847957  96.1514468  73.1243271  28.6819586 105.9516777  76.1297282
  29.4122974 105.6902065  76.6904986  28.0726531 105.2145499  76.1699350
  26.7634883 104.0924640  76.7271734  26.0368046 103.9580605  76.1188225
  26.3482170 104.4001468  77.5328452  14.5865059 107.8114569  84.4919107
  15.5068069 107.9893168  84.6859153  14.5514642 106.8670615  84.3398806
  12.8869284 101.6846800  62.9673335  11.9800739 101.3879912  63.0436048
  13.1645265 101.3876618  62.1007621   3.8047224 103.0053163  73.4172381
   3.4850009 102.1518471  73.1246755   3.2580652 103.2201741  74.1730349
   7.5827132 105.7215604  77.1341888   7.8013142 106.6532712  77.1529922
   7.9952906 105.3623578  77.9196692  14.5031350  96.2283689  69.1217576
  13.6932078  95.8830774  69.4972822  15.1915766  95.9191233  69.7105188
  16.4321898  95.3061736  70.7441873  16.9852936  95.7257190  71.4031896
  16.6691984  94.3797484  70.7864829  12.4554997 101.2948810  86.5244637
  12.3551724 102.2443167  86.4556728  12.2376539 100.9667049  85.6520707
  11.6568068  98.5433735  63.1085314  12.5187232  98.8688633  63.3681131
  11.8418413  97.7565231  62.5958380   3.6735484 106.6256075  75.3865503
   2.9798956 106.2110027  74.8735457   4.4208475 106.6676611  74.7898922
  19.8100705  97.4162261  70.2520537  19.2299374  98.0747065  69.8698589
  19.5436638  96.5939606  69.8407955  18.2604271  96.8167319  72.4541857
  18.7604050  96.9283854  71.6456176  18.9039879  96.5128372  73.0942666
  12.3186267 104.7245949  85.3409698  11.8353349 105.5246309  85.5473587
  12.4047206 104.7353894  84.3877142   5.5872227 106.5574328  73.2631518
   5.5642915 106.6562016  72.3113401   5.8972863 107.4039479  73.5848684
   8.2459605 108.6150483  77.3778132   9.2002858 108.5834426  77.3108064
   8.0472128 108.1541107  78.1928358   8.8358987 107.1851599  79.9448930
   9.6551876 107.6795678  79.9683767   9.1095794 106.2683568  79.9166497
  18.5925583  99.5762352  69.3076885  17.7051438  99.8612002  69.0897080
  19.0079572  99.4156115  68.4604162  21.9440119  99.6008873  73.0231225
  22.7200509 100.0905325  73.2955841  21.2188253 100.0266927  73.4803094
  24.3812678 100.3136492  74.0805165  24.9757169 100.0732228  73.3698473
  24.4539261  99.5943622  74.7078701   6.6009833 114.1570103  74.3948330
   6.4664301 113.3970504  73.8286328   6.1841896 114.8811003  73.9277119
  17.7368796 109.3407026  63.4024905  18.4404647 109.5457029  64.0182561
  17.0131445 109.9083788  63.6673989  18.5666607 105.0916888  69.5227175
  18.5101808 105.5485439  68.6834808  19.1194949 104.3307572  69.3450018
  22.3771413 100.8806620  70.3477295  22.1208347 100.4803255  71.1785503
  21.7524281 101.5950413  70.2227434  26.6883750 103.6202693  72.8548586
  26.1283308 103.6895882  73.6280148  26.0827254 103.4443677  72.1348083
   9.7578959 115.0539420  74.6066773   9.6411343 115.9984852  74.5045463
   8.9371406 114.7512981  74.9952572  19.6455494 109.7789556  65.4523365
  20.4801098 109.3470754  65.2700840  19.4839837 109.6071569  66.3800260
  19.3001386 106.2821669  66.8179705  19.2450190 106.1165940  65.8768149
  18.6747441 106.9897702  66.9741894   4.0893901 101.5189733  80.6441127
   4.7352765 101.0088687  81.1328352   3.8811052 102.2558415  81.2184552
  16.6147293 108.5870581  86.1433267  17.4838453 108.7611233  85.7819902
  16.1354045 109.4064998  86.0208997  12.6097511  95.7829778  66.3965023
  12.5976181  96.7271618  66.5533294  13.5020933  95.5999923  66.1024484
  10.7833473 115.7067682  77.8222701  11.6860720 115.7391292  78.1389196
  10.5570843 114.7768133  77.8369037  12.5387075 114.4598668  74.4832780
  11.5882706 114.4600530  74.3697152  12.8419562 113.7131403  73.9668814
  16.4249631  92.3772555  70.6510960  15.6582027  91.8231041  70.7967642
  16.8360336  92.4494423  71.5125111   8.4291392  98.6657350  84.7416141
   9.2922854  98.3094155  84.9519466   7.8556803  98.3271245  85.4291545
  28.2739769 120.2959207  75.5478542  28.9118179 120.1765954  74.8441882
  28.1560612 121.2440051  75.6066494  25.0829475 120.2486635  75.4840067
  24.7447987 120.1327700  74.5960602  25.9519243 119.8477800  75.4641073
  20.9416291 122.1022111  71.4736958  20.3781156 122.0112048  70.7053245
  20.8268686 121.2822016  71.9539450  25.5649258 121.4021487  81.4426272
  25.5537899 121.0074285  80.5706776  25.7269898 120.6687559  82.0360044
  18.4880723 123.5973303  74.3121178  19.2802015 123.2564127  73.8967478
  18.7277373 123.7068278  75.2323332  26.5215850 125.7693079  66.7851423
  25.8703829 126.3547159  66.3985436  27.3160212 126.2999274  66.8446460
  20.4471477 122.8582216  67.1838557  21.2202353 122.3111203  67.0451433
  20.7996876 123.7226465  67.3953018  22.2856519 124.1858598  80.3905456
  21.9946385 125.0904229  80.2752123  22.9213504 124.2275126  81.1049526
  23.2112726 121.5635447  76.9806816  23.8076298 121.3391469  76.2663779
  23.2687698 120.8220192  77.5832264  22.7837755 119.0174882  64.8157007
  23.0363275 118.4956403  64.0540470  21.8462314 118.8541028  64.9183691
  27.8281037 118.0210661  72.6231750  28.6144127 117.6030084  72.2722167
  28.0919742 118.9256753  72.7913399  27.9991115 123.4583511  67.3220407
  27.3636948 123.5318137  68.0341312  27.6688521 124.0477110  66.6439486
  33.2289465 117.9585894  73.5264729  33.9614636 117.3885111  73.7602558
  32.4728820 117.5707494  73.9671234  22.5034043 120.9202988  67.0181382
  22.3870301 120.2447892  67.6862466  22.6136303 120.4335362  66.2013535
  24.8465584 120.3813135  70.7228071  24.4823791 119.8543756  71.4340993
  25.7032700 119.9911604  70.5494557  30.7514885 111.6707468  77.9859337
  30.4198210 112.5402879  77.7620552  30.1560498 111.3543752  78.6653368
  24.4871071 115.4103035  65.7189420  24.6545474 116.2783271  66.0859891
  24.2968240 115.5730317  64.7950709  27.2446404 123.8720014  77.3855250
  26.9447128 124.7745053  77.2771057  26.8997464 123.6052197  78.2376403
  20.6958886 120.3233811  73.4191954  19.7709382 120.1910025  73.6269646
  20.9443299 121.1028030  73.9161897  30.6443548 116.3902554  75.0652687
  29.7360426 116.3217962  74.7711448  30.5931144 116.8674499  75.8934513
  24.4660292 117.8660692  66.7036086  24.3459917 118.3117743  67.5421567
  23.7712880 118.2146010  66.1449625  18.0567697 119.9667084  74.2535743
  18.1860078 120.2201563  75.1675155  17.3765148 120.5594792  73.9340399
  22.2267184 130.6364334  70.3526218  22.1491214 131.5872159  70.4314698
  21.6228828 130.2910207  71.0101144  24.7184414 117.8092200  83.0087585
  23.9417748 118.3686120  82.9990449  25.3574977 118.2948983  83.5302455
  32.5105195 114.5918992  76.8430561  31.8679575 114.8851526  76.1970356
  32.0060123 114.4771913  77.6483758  30.1645358 118.3382166  67.5316420
  31.0763214 118.5709552  67.3564118  29.6555005 118.9219210  66.9691499
  22.9730786 120.6177653  82.5705552  23.7145471 121.1562697  82.2940375
  22.2667772 121.2443942  82.7277103  28.4486126 122.7606793  81.1677713
  28.8569482 122.3189204  80.4232345  27.7263387 122.1859421  81.4211906
  24.8017196 117.6979400  78.5411270  25.6478391 118.1218814  78.6845919
  24.7415834 117.0413025  79.2349833  28.7714941 123.3207984  74.9230002
  28.1423803 123.4853698  74.2206070  28.3840603 123.7349594  75.6940966
  32.6504172 124.2562422  72.2774366  31.9655211 124.6361323  71.7271399
  32.7348022 124.8657749  73.0106313  27.9516641 115.3583769  80.1992444
  27.7077573 116.1125829  79.6626719  28.2276572 115.7369116  81.0339691
  29.9055104 121.9022381  78.8769709  30.1171999 122.5454141  78.2004090
  29.8584852 121.0684698  78.4091639  27.5081333 114.5140202  75.7806281
  26.6465812 114.8121455  76.0723019  27.5343768 114.7310601  74.8487314
  24.3242902 123.0582392  72.1880087  24.7881248 123.3370095  71.3984710
  24.0599701 122.1565837  72.0053178  21.2166984 122.6053874  75.1259850
  21.7868341 123.0341142  74.4877335  21.8075095 122.3236458  75.8244036
  23.2611789 119.1805545  68.9969652  23.9635832 119.6326588  69.4643579
  22.9292417 118.5389363  69.6249545  21.7092150 117.7717301  83.3720862
  21.0790811 118.4533582  83.6056258  21.6028238 117.6600383  82.4274000
  17.0037122 117.4389097  74.2986786  16.2136176 117.6946626  73.8226896
  17.4948370 118.2537435  74.4038826  31.0200932 124.7794336  77.0492067
  31.8418376 124.3774524  76.7674748  31.0163335 124.6762571  78.0008182
  18.9551868 117.8033676  71.2570262  18.1583031 117.9152371  71.7753758
  18.7277460 118.1420329  70.3911153  24.7857535 124.3278380  79.2052777
  24.8501968 124.7898787  80.0410949  24.0768459 123.6975745  79.3335087
  15.2874825 117.6919588  76.7301777  15.5382864 118.5766598  76.9959352
  15.8234374 117.5124189  75.9576868  39.1106925 121.1233085  73.3977038
  38.3570633 120.5540483  73.2421042  39.2454466 121.0895749  74.3447673
  24.5005553 125.9946487  69.0731757  24.3651228 126.8398023  69.5016605
  25.0415366 126.1965765  68.3097691  20.9872893 112.0738067  85.7346113
  20.5939838 111.5204266  86.4093757  21.8039033 112.3848645  86.1252630
  17.9534951 123.5121925  69.6459682  18.4659471 124.3065175  69.7965247
  18.6057663 122.8148216  69.5793284  19.7629835 126.6287681  71.7282436
  19.9396464 127.5505646  71.5403420  20.5586669 126.3146101  72.1576815
  23.9040854 113.4895946  83.3266369  24.6450567 114.0903099  83.2470832
  24.1358777 112.7473584  82.7684412  19.0482192 118.6752313  81.6044599
  18.9335707 117.7737571  81.9051698  18.1926710 118.9216010  81.2529415
  26.1274030 126.6170054  83.2032099  25.6837884 125.8306432  82.8853004
  26.7891243 126.8049204  82.5375990  20.8861151 128.1465855  77.7292778
  21.4368576 128.0182919  76.9569772  20.0472627 128.4460744  77.3787671
  28.2255268 126.8972854  81.2313501  28.2073743 127.7181735  80.7393770
  29.1475188 126.7726929  81.4563642  24.6828322 124.4116983  82.0737009
  25.2156659 123.6505271  81.8436317  24.1542403 124.1190635  82.8161164
  27.8498017 109.5177049  77.6030651  27.5062286 110.4078691  77.5269761
  28.2176979 109.3278707  76.7400236  15.9183867 121.8410580  70.4219253
  16.7559089 122.2507588  70.2052961  16.0962135 120.9010022  70.3919447
  27.8148299 119.5085660  66.1103086  27.2994923 120.2790265  66.3491473
  27.5425608 118.8350796  66.7336147  25.3995410 114.3535361  71.1688324
  24.5437007 113.9642211  70.9893963  25.8122362 114.4327322  70.3088110
  26.9294557 111.8881704  75.5679884  26.4259353 111.8511839  74.7547689
  27.2225164 112.7974447  75.6276541  23.1737443 111.9720434  74.5746066
  24.0390440 111.7763243  74.2151955  23.2414952 111.7430786  75.5015423
  32.7882574 122.2618015  68.0456259  32.0112016 121.9229174  67.6011422
  33.4674055 122.2670638  67.3711225  27.6034603 117.3812752  67.9362867
  27.2984738 117.6958901  68.7873010  28.5565045 117.4594172  67.9790200
  26.0481034 123.5402976  69.5855821  25.5202396 122.8055735  69.2729059
  25.5468537 124.3177652  69.3395789  31.0273880 121.7351996  74.7022867
  30.3697555 122.4251257  74.7902996  31.8314280 122.1248428  75.0456854
  20.7799762 114.2022642  71.9462433  21.3543514 113.9797823  71.2135626
  21.3670744 114.2711336  72.6991034  29.8379339 120.0896369  72.7526809
  30.3511221 120.7226361  73.2548519  30.4880563 119.4897564  72.3870169
  21.1069349 116.2327103  65.9658318  20.2706661 116.5701789  66.2867593
  20.9674119 116.0976083  65.0285455  23.0822430 111.0763891  70.6737502
  22.4286842 110.7612908  70.0494117  23.0402904 110.4539631  71.3997325
  24.1933635 121.3583186  62.5890794  23.2860696 121.1272439  62.7881943
  24.6904667 120.5620805  62.7764776  27.1001714 130.0680693  65.5087480
  26.4263412 130.3712390  66.1172438  27.4867535 130.8709773  65.1592937
  26.3160170 117.5645824  74.9985150  25.3982731 117.7860771  74.8406838
  26.7320314 117.6392135  74.1396857  27.0995218 118.9637240  70.1287830
  27.8467037 119.4758637  69.8194952  27.3686807 118.6421293  70.9892224
  25.3721868 121.4595781  67.1114784  24.4633087 121.1754814  67.2087254
  25.4016952 121.8794859  66.2518091  30.6041135 125.0702370  70.8805952
  30.1503463 124.2293280  70.9371142  29.9735102 125.7063769  71.2180732
  29.5474055 115.9994356  72.1106619  28.8096812 115.4871742  72.4416862
  29.8000829 115.5594738  71.2989896  29.0474075 126.9078867  71.8155770
  29.3397049 127.4683924  71.0968136  29.5572695 127.2007428  72.5708929
  29.6485682 108.7770608  72.7048389  29.9544559 107.9167972  72.4174304
  30.3738287 109.3688228  72.5047382  15.9410038 119.1801295  71.0929986
  15.7434438 118.5870656  70.3681053  15.3856702 118.8753505  71.8105925
  23.9206762 119.0724401  73.2124580  23.9755372 118.1198238  73.1367056
  23.1097964 119.2283840  73.6965878  25.0697956 123.0004524  64.4502863
  24.6317386 122.2840383  63.9908500  25.8108397 123.2280639  63.8887954
  21.8599122 117.6901461  70.9714958  21.0466988 117.9895632  71.3780151
  22.3558116 117.2957150  71.6889441  24.0107700 127.6859218  72.9049223
  23.9683879 127.9120064  71.9757755  24.9270399 127.4522593  73.0535024
  27.4573334 118.1543286  79.8029852  27.8122721 118.3814759  80.6624318
  28.1045465 118.4861662  79.1807108  33.1871071 121.2761721  70.5079181
  33.0488969 121.4663317  69.5800371  32.8307289 122.0381104  70.9647233
  21.3513197 115.2619817  76.5876193  21.9912576 115.1208576  75.8899157
  20.5190727 114.9754330  76.2114795  33.2140450 123.3438248  75.5190453
  33.6476957 123.2513538  76.3673507  33.9272031 123.3195749  74.8810469
  22.1273501 124.5622247  72.7011186  22.9214099 124.0672567  72.4993761
  21.4165193 124.0340110  72.3378891  26.9468345 126.9440343  77.0523554
  27.0005367 127.5131279  77.8201269  26.0783127 127.1142228  76.6877591
  18.4356264 118.7065329  68.7770939  17.5053852 118.6449784  68.9940901
  18.5313736 118.1841281  67.9807580  18.3541813 115.2320142  71.3649180
  18.6148631 116.1465475  71.2558341  19.1758986 114.7644584  71.5145793
  19.8266739 116.6457899  78.5348005  20.4989792 116.4375261  77.8860654
  18.9996525 116.4479985  78.0953237  34.0756000 123.3861949  78.0523338
  34.2691890 124.2907760  78.2982613  33.9756618 122.9269368  78.8861923
  25.7292311 113.2719840  80.5513666  25.0820226 113.9709789  80.4578142
  26.4993326 113.7055984  80.9189914  29.1371108 123.5368692  83.6264219
  28.9856615 123.3079244  82.7094303  29.1275788 124.4939293  83.6395564
  25.9056445 121.1100605  78.6110485  26.8348505 121.2611764  78.4379453
  25.4847475 121.1984625  77.7559132  24.7044777 125.1351269  76.3809023
  24.5655862 124.7670053  77.2534961  23.9159373 125.6498908  76.2092981
  25.2992929 130.2360365  67.7234560  25.4744684 129.7648409  68.5380182
  24.6125717 130.8626132  67.9515820  26.2549992 124.5132872  73.7697861
  25.9199824 124.4733642  74.6655511  25.7553938 123.8477588  73.2968271
  20.2294236 119.9200502  79.2950442  20.0914034 119.1880741  79.8961981
  21.1399159 119.8309402  79.0134630  29.1909183 121.8588906  64.0434920
  28.5738354 121.1335734  63.9467973  28.7225672 122.6198266  63.7001995
  22.8576536 119.6320461  78.7834122  23.5676155 118.9913653  78.7420740
  22.8145845 119.8833356  79.7060302  30.8463315 126.5687814  81.7040701
  30.7875861 125.8847034  81.0371284  31.2482834 127.3106804  81.2521327
  21.5705470 116.6185679  80.6029761  21.0342827 116.1676417  81.2551357
  20.9822179 116.7531588  79.8600225  20.9807729 116.0774330  63.1656225
  20.1037196 115.9563131  62.8018471  21.4565482 115.2860409  62.9135113
  30.8480722 124.5327398  79.9354680  29.9607501 124.1953320  80.0581079
  31.4179273 123.8010430  80.1723446  12.5009870 120.8651490  73.2597732
  13.1880909 120.5513220  72.6718747  12.3457998 121.7692855  72.9864983
  17.3044592 115.7541687  77.6882756  17.2202780 115.1467356  76.9533165
  16.4827298 116.2450705  77.6892252  24.3781876 129.1928851  76.9015924
  24.3052047 129.9983822  77.4135228  23.9359269 129.3920816  76.0763945
  24.1671655 128.4300621  70.4118745  23.3839177 128.9722301  70.5056970
  24.8664401 128.9474600  70.8112986  27.4768306 114.2395250  73.0552951
  27.9737005 113.4865212  72.7354021  26.7055287 114.2759567  72.4896160
  35.3298063 119.9435616  74.6971242  35.3187939 120.8260331  74.3265175
  34.4615442 119.5907167  74.5025779  26.8380559 129.0915685  79.0574082
  27.5508532 129.7263150  78.9849984  26.3470588 129.1879551  78.2414084
  28.5598086 122.9966937  70.6291374  27.6254365 123.1168400  70.4596078
  28.7374755 122.0939404  70.3651384  24.0603274 116.3812633  72.7824635
  23.6901062 115.8283674  73.4705541  24.5562367 115.7770767  72.2299635
  31.9470638 118.8384257  71.1641408  32.4131090 119.6712248  71.0901711
  32.3978138 118.3729238  71.8686667  21.8892473 126.8410128  79.8779653
  22.5901932 127.4746611  80.0309047  21.4187588 127.1824860  79.1175292
  30.0146869 125.1828078  68.1627560  30.2906713 125.0684673  69.0721434
  29.1451367 124.7845563  68.1239733  29.9187300 111.2064844  75.2032309
  29.0050380 111.4369070  75.3714516  30.3480402 111.2903288  76.0546342
  29.6893759 119.3954736  77.7032204  29.0365209 119.6430643  77.0484656
  30.0674139 118.5818874  77.3694681  26.6500933 129.4314429  71.8060374
  26.8323327 128.6136085  72.2688126  27.4733919 129.6482121  71.3685264
  26.9843098 128.3582614  69.0675422  27.5130865 127.8475068  68.4545584
  27.2471318 128.0425144  69.9320955  25.7381332 120.1374547  84.1898241
  25.0621969 120.0368676  84.8600616  26.5608966 119.9813760  84.6534238
  17.4860191 126.3746483  76.8110756  18.0713628 125.6290171  76.9438660
  17.2885029 126.6850440  77.6947420  20.3398846 129.4097731  71.8273198
  19.6709221 129.8943858  71.3437238  20.2011716 129.6566951  72.7416577
  12.0777846 118.9452083  75.5315199  12.1161945 118.4115674  76.3252317
  11.5718138 118.4187289  74.9126176  24.4804115 131.4441474  78.4255857
  25.0322423 131.6073096  79.1904942  24.8210308 132.0345912  77.7535881
  19.4568608 113.7916624  79.0277741  19.5209934 114.6531455  78.6155139
  19.3935728 113.1790626  78.2950100  18.9320880 115.8639756  82.6750776
  19.5592919 115.4816834  83.2888300  18.0748799 115.6453958  83.0406468
  29.3314989 126.2702732  84.2804511  29.8754893 126.8832690  83.7859466
  28.7501834 126.8282310  84.7971524  15.7086423 117.6716186  68.6069130
  16.0039864 116.7626864  68.5536184  14.8074459 117.6503925  68.2850133
  27.6172502 129.3923450  75.4119539  27.4923641 128.5913189  74.9030484
  28.2751593 129.8869643  74.9233509  19.2380670 115.7472182  74.5896679
  18.5167256 116.3608150  74.4504152  20.0273926 116.2829947  74.5113325
  29.6807410 127.1932470  77.0399089  28.7337746 127.0737821  76.9677416
  30.0290183 126.3054968  77.1225350  22.0406984 113.0826609  80.8637331
  22.5641386 113.3288905  81.6263640  21.8219317 113.9146643  80.4440468
  17.4374265 115.3530283  68.7308456  17.1086971 114.4727662  68.5483561
  17.7913636 115.2977952  69.6184845  26.6853844 126.9885186  73.2403441
  26.5378806 126.0601893  73.4211011  27.5107337 127.0105277  72.7560516
  20.5516088 115.6403253  69.0983933  20.8912160 116.1689174  68.3762542
  20.9988208 115.9783659  69.8742500  30.2887966 127.8113745  74.3268314
  31.2134513 127.6056606  74.1892765  30.1203269 127.5630146  75.2357655
  23.2459529 114.0240304  78.5487001  22.9056349 113.2248117  78.9507681
  22.5398535 114.3242015  77.9763834  23.8976001 111.1089616  77.0014324
  24.7202070 110.6350094  76.8793215  24.1414064 111.8880100  77.5013011
  22.5384235 114.1377875  67.2977226  23.2592598 114.5159127  66.7940943
  21.9149539 114.8566751  67.4012204  26.6815358 114.8423024  68.2335558
  26.8978972 115.7247661  67.9324386  26.2009425 114.4509237  67.5041200
  21.4214579 117.8008737  74.8106303  21.2759160 118.1149040  75.7030584
  20.9439783 118.4193637  74.2577202  23.2810962 114.7911285  74.8587192
  23.2672531 113.8952378  74.5219490  23.9983390 114.7981949  75.4925478
  25.1337093 115.2248625  76.9040320  24.8754871 116.1465696  76.9024650
  24.6022133 114.8279060  77.5940784  30.0783282 128.3299412  69.6830405
  30.2520159 127.7645835  68.9304258  30.5712173 129.1300307  69.5009895
  15.8960242 120.3414081  77.7493964  15.3513710 121.1173889  77.8814238
  16.7739591 120.6884886  77.5913086  22.6847858 113.6725665  70.1274763
  22.8063769 112.7442311  70.3265650  22.3949901 113.6864351  69.2153078
  25.5539049 111.3580576  73.2641482  25.5760745 111.4219909  72.3093462
  25.9707108 110.5185084  73.4581989  35.9322673 121.0935835  71.3020705
  36.3753819 120.3443160  70.9039828  35.0549183 121.0845971  70.9194437
  31.0658454 127.6466177  66.7827304  31.7609359 128.2672869  67.0014618
  31.4081604 126.7961528  67.0579681  16.6826263 119.4683977  80.6424121
  15.9407999 119.6166613  81.2288751  16.3619008 119.7292243  79.7790870
  32.9649877 125.0965882  68.3114634  33.4901201 125.4353155  67.5863954
  32.8772230 124.1612897  68.1277769  24.6269926 129.0099956  80.4404511
  24.9357052 128.7649102  81.3127211  25.4245408 129.2146594  79.9523381
  24.6490538 131.1637865  72.6709887  24.2095528 130.6714244  73.3642744
  25.3998655 130.6210833  72.4301963  17.1282877 127.3549406  72.6734516
  17.9540897 127.0553178  72.2933159  16.7776929 126.5857029  73.1224304
  22.0964410 126.7075874  74.7432189  21.4744420 126.0446579  74.4434417
  22.7669277 126.7337006  74.0605837  15.3291482 125.2735733  73.6323449
  14.4923390 124.8457907  73.4507450  15.3015128 125.4668176  74.5694240
  22.1688938 115.1857662  84.3364695  22.2177093 116.0619785  83.9542465
  22.7111452 114.6435055  83.7636338  32.6543783 125.7298786  83.6165832
  31.8639327 125.7122925  83.0770332  32.4177138 126.2687079  84.3714869
  32.7741658 122.5791252  80.9298561  32.8239663 122.4141260  81.8714084
  32.6655582 121.7118511  80.5396442  21.6577917 125.2579798  68.2190650
  21.8066038 125.9415262  67.5657322  22.4644361 125.2384888  68.7340105
  30.0645421 118.5622180  82.2457868  30.9655284 118.4228645  81.9541865
  30.1393395 118.7276635  83.1856045  24.3988226 115.9389035  81.0911054
  23.5291536 116.2322601  80.8193642  24.6347707 116.5229480  81.8118317
  34.2759855 124.9988194  81.1740582  33.9844664 125.3618174  82.0104043
  33.6631987 124.2855202  80.9953914  35.4755538 122.5641073  73.6943153
  36.3102429 123.0030877  73.8580713  35.6114666 122.0879727  72.8751398
  32.5247044 120.1220808  79.6420640  33.0001165 120.3148455  78.8339492
  31.6012609 120.1779994  79.3964024  19.4130550 121.2844975  69.2251719
  19.1676592 120.3807305  69.4231929  19.5826465 121.2862126  68.2831197
  27.1027260 112.1568652  78.6076474  27.6209204 112.8929679  78.2822963
  26.7482393 112.4632645  79.4423233  18.6826198 117.0173333  66.7237880
  17.9895443 117.0917688  66.0677916  18.4377950 116.2533677  67.2459397
  27.3539854 108.5768934  74.1277371  27.6341608 107.9092123  74.7537797
  28.1390461 108.7698030  73.6152035  25.1573323 127.7527928  65.6902397
  24.5847290 128.3718115  65.2372869  25.7306116 128.3027290  66.2242319
  31.2248713 116.9986568  77.8748946  32.1766135 117.0984666  77.8961170
  31.0552163 116.2064837  78.3847030  29.2463092 114.0842152  78.0608347
  28.6513024 114.3647164  77.3654835  28.9612789 114.5736052  78.8325088
  28.3770582 128.0365078  66.8210979  29.3101256 127.9710640  67.0243855
  28.2893795 128.8721345  66.3625512  31.0058599 127.3530949  63.7814927
  30.9272231 127.0190812  64.6750685  31.8268266 127.8452717  63.7806399
  33.7036790 120.2192688  76.9891246  33.6713110 119.2808689  77.1750929
  34.3137414 120.2976725  76.2557070  25.5420121 119.0888741  63.0318450
  26.4879226 118.9594949  63.1006868  25.1634366 118.3503403  63.5087878
  33.8531279 117.0103731  77.0349529  33.3370327 116.2262188  76.8479458
  34.7371227 116.6822448  77.1996048  31.5142006 110.7544747  72.9945341
  31.3166827 110.4459835  73.8788673  32.1241711 111.4806386  73.1243271
  39.5213340 121.2808695  76.1297282  40.2516729 121.0193983  76.6904986
  38.9120286 120.5437417  76.1699350  37.6028637 119.4216557  76.7271734
  36.8761801 119.2872522  76.1188225  37.1875924 119.7293386  77.5328452
  25.4258814 123.1406487  84.4919107  26.3461823 123.3185086  84.6859153
  25.3908397 122.1962532  84.3398806  23.7263038 117.0138717  62.9673335
  22.8194494 116.7171830  63.0436048  24.0039019 116.7168535  62.1007621
  14.6440979 118.3345081  73.4172381  14.3243763 117.4810389  73.1246755
  14.0974407 118.5493659  74.1730349  18.4220886 121.0507522  77.1341888
  18.6406896 121.9824630  77.1529922  18.8346660 120.6915496  77.9196692
  25.3425104 111.5575607  69.1217576  24.5325832 111.2122692  69.4972822
  26.0309521 111.2483151  69.7105188  27.2715652 110.6353654  70.7441873
  27.8246691 111.0549107  71.4031896  27.5085739 109.7089402  70.7864829
  23.2948752 116.6240728  86.5244637  23.1945478 117.5735084  86.4556728
  23.0770294 116.2958966  85.6520707  22.4961823 113.8725653  63.1085314
  23.3580987 114.1980551  63.3681131  22.6812167 113.0857148  62.5958380
  14.5129239 121.9547992  75.3865503  13.8192710 121.5401945  74.8735457
  15.2602230 121.9968529  74.7898922  30.6494459 112.7454179  70.2520537
  30.0693128 113.4038983  69.8698589  30.3830392 111.9231524  69.8407955
  29.0998026 112.1459237  72.4541857  29.5997804 112.2575771  71.6456176
  29.7433634 111.8420290  73.0942666  23.1580022 120.0537866  85.3409698
  22.6747103 120.8538226  85.5473587  23.2440961 120.0645811  84.3877142
  16.4265981 121.8866246  73.2631518  16.4036669 121.9853933  72.3113401
  16.7366618 122.7331397  73.5848684  19.0853359 123.9442401  77.3778132
  20.0396613 123.9126343  77.3108064  18.8865883 123.4833025  78.1928358
  19.6752741 122.5143517  79.9448930  20.4945630 123.0087596  79.9683767
  19.9489549 121.5975485  79.9166497  29.4319337 114.9054269  69.3076885
  28.5445192 115.1903920  69.0897080  29.8473327 114.7448033  68.4604162
  32.7833874 114.9300790  73.0231225  33.5594264 115.4197243  73.2955841
  32.0582008 115.3558845  73.4803094  35.2206432 115.6428410  74.0805165
  35.8150923 115.4024146  73.3698473  35.2933016 114.9235540  74.7078701
  17.4403588 129.4862021  74.3948330  17.3058056 128.7262421  73.8286328
  17.0235650 130.2102920  73.9277119  28.5762551 124.6698944  63.4024905
  29.2798401 124.8748947  64.0182561  27.8525200 125.2375706  63.6673989
  29.4060361 120.4208805  69.5227175  29.3495563 120.8777357  68.6834808
  29.9588704 119.6599490  69.3450018  33.2165167 116.2098537  70.3477295
  32.9602101 115.8095173  71.1785503  32.5918035 116.9242331  70.2227434
  37.5277505 118.9494610  72.8548586  36.9677063 119.0187800  73.6280148
  36.9221008 118.7735595  72.1348083  20.5972714 130.3831338  74.6066773
  20.4805098 131.3276770  74.5045463  19.7765160 130.0804899  74.9952572
  30.4849248 125.1081473  65.4523365  31.3194852 124.6762672  65.2700840
  30.3233591 124.9363487  66.3800260  30.1395141 121.6113587  66.8179705
  30.0843944 121.4457858  65.8768149  29.5141196 122.3189619  66.9741894
  14.9287655 116.8481651  80.6441127  15.5746519 116.3380605  81.1328352
  14.7204807 117.5850333  81.2184552  27.4541048 123.9162498  86.1433267
  28.3232207 124.0903151  85.7819902  26.9747799 124.7356915  86.0208997
  23.4491266 111.1121696  66.3965023  23.4369936 112.0563536  66.5533294
  24.3414688 110.9291841  66.1024484  21.6227228 131.0359599  77.8222701
  22.5254475 131.0683210  78.1389196  21.3964598 130.1060050  77.8369037
  23.3780830 129.7890586  74.4832780  22.4276461 129.7892448  74.3697152
  23.6813316 129.0423321  73.9668814  27.2643385 107.7064472  70.6510960
  26.4975781 107.1522959  70.7967642  27.6754090 107.7786341  71.5125111
  19.2685146 113.9949268  84.7416141  20.1316608 113.6386073  84.9519466
  18.6950557 113.6563163  85.4291545  39.1133523 135.6251124  75.5478542
  39.7511933 135.5057872  74.8441882  38.9954366 136.5731968  75.6066494
  35.9223230 135.5778552  75.4840067  35.5841741 135.4619617  74.5960602
  36.7912998 135.1769718  75.4641073  31.7810045 137.4314029  71.4736958
  31.2174911 137.3403966  70.7053245  31.6662440 136.6113933  71.9539450
  36.4043013 136.7313404  81.4426272  36.3931653 136.3366202  80.5706776
  36.5663652 135.9979477  82.0360044  34.0506481 136.8927365  76.9806816
  34.6470053 136.6683387  76.2663779  34.1081452 136.1512110  77.5832264
  33.6231509 134.3466800  64.8157007  33.8757030 133.8248321  64.0540470
  32.6856068 134.1832945  64.9183691  38.6674792 133.3502578  72.6231750
  39.4537881 132.9322001  72.2722167  38.9313496 134.2548670  72.7913399
  38.8384869 138.7875429  67.3220407  38.2030702 138.8610055  68.0341312
  38.5082276 139.3769027  66.6439486  44.0683219 133.2877811  73.5264729
  44.8008391 132.7177028  73.7602558  43.3122575 132.8999412  73.9671234
  33.3427798 136.2494906  67.0181382  33.2264056 135.5739809  67.6862466
  33.4530058 135.7627280  66.2013535  35.6859339 135.7105053  70.7228071
  35.3217546 135.1835674  71.4340993  36.5426455 135.3203522  70.5494557
  41.5908639 126.9999386  77.9859337  41.2591964 127.8694797  77.7620552
  40.9954253 126.6835670  78.6653368  35.3264826 130.7394953  65.7189420
  35.4939228 131.6075189  66.0859891  35.1361995 130.9022234  64.7950709
  31.5352640 135.6525728  73.4191954  30.6103137 135.5201942  73.6269646
  31.7837054 136.4319948  73.9161897  41.4837303 131.7194472  75.0652687
  40.5754180 131.6509880  74.7711448  41.4324898 132.1966417  75.8934513
  35.3054047 133.1952610  66.7036086  35.1853672 133.6409661  67.5421567
  34.6106635 133.5437928  66.1449625  28.8961451 135.2959002  74.2535743
  29.0253833 135.5493481  75.1675155  28.2158903 135.8886710  73.9340399
  35.5578168 133.1384117  83.0087585  34.7811503 133.6978037  82.9990449
  36.1968732 133.6240900  83.5302455  43.3498949 129.9210910  76.8430561
  42.7073329 130.2143443  76.1970356  42.8453878 129.8063830  77.6483758
  41.0039113 133.6674083  67.5316420  41.9156969 133.9001470  67.3564118
  40.4948760 134.2511128  66.9691499  33.8124541 135.9469571  82.5705552
  34.5539225 136.4854615  82.2940375  33.1061526 136.5735859  82.7277103
  39.2879880 138.0898711  81.1677713  39.6963236 137.6481122  80.4232345
  38.5657142 137.5151339  81.4211906  35.6410950 133.0271318  78.5411270
  36.4872146 133.4510731  78.6845919  35.5809588 132.3704942  79.2349833
  39.6108695 138.6499902  74.9230002  38.9817558 138.8145616  74.2206070
  39.2234357 139.0641511  75.6940966  43.4897927 139.5854340  72.2774366
  42.8048965 139.9653241  71.7271399  43.5741776 140.1949666  73.0106313
  38.7910396 130.6875686  80.1992444  38.5471328 131.4417747  79.6626719
  39.0670326 131.0661034  81.0339691  40.7448859 137.2314299  78.8769709
  40.9565754 137.8746059  78.2004090  40.6978607 136.3976615  78.4091639
  38.3475088 129.8432119  75.7806281  37.4859567 130.1413373  76.0723019
  38.3737522 130.0602518  74.8487314  35.1636657 138.3874310  72.1880087
  35.6275002 138.6662013  71.3984710  34.8993455 137.4857754  72.0053178
  34.1005543 134.5097462  68.9969652  34.8029586 134.9618506  69.4643579
  33.7686172 133.8681281  69.6249545  32.5485905 133.1009219  83.3720862
  31.9184565 133.7825500  83.6056258  32.4421992 132.9892300  82.4274000
  27.8430877 132.7681015  74.2986786  27.0529931 133.0238543  73.8226896
  28.3342124 133.5829353  74.4038826  41.8594687 140.1086254  77.0492067
  42.6812130 139.7066441  76.7674748  41.8557089 140.0054488  78.0008182
  29.7945622 133.1325594  71.2570262  28.9976786 133.2444288  71.7753758
  29.5671215 133.4712246  70.3911153  26.1268580 133.0211505  76.7301777
  26.3776618 133.9058515  76.9959352  26.6628128 132.8416107  75.9576868
  49.9500680 136.4525003  73.3977038  49.1964388 135.8832401  73.2421042
  50.0848221 136.4187667  74.3447673  31.8266647 127.4029985  85.7346113
  31.4333593 126.8496183  86.4093757  32.6432788 127.7140563  86.1252630
  34.7434608 128.8187864  83.3266369  35.4844322 129.4195017  83.2470832
  34.9752531 128.0765502  82.7684412  29.8875946 134.0044231  81.6044599
  29.7729461 133.1029488  81.9051698  29.0320464 134.2507928  81.2529415
  38.6891771 124.8468967  77.6030651  38.3456041 125.7370608  77.5269761
  39.0570734 124.6570624  76.7400236  38.6542054 134.8377578  66.1103086
  38.1388677 135.6082182  66.3491473  38.3819362 134.1642714  66.7336147
  36.2389165 129.6827279  71.1688324  35.3830761 129.2934129  70.9893963
  36.6516117 129.7619239  70.3088110  37.7688312 127.2173622  75.5679884
  37.2653107 127.1803757  74.7547689  38.0618918 128.1266365  75.6276541
  34.0131197 127.3012352  74.5746066  34.8784194 127.1055160  74.2151955
  34.0808706 127.0722703  75.5015423  43.6276328 137.5909932  68.0456259
  42.8505771 137.2521092  67.6011422  44.3067809 137.5962556  67.3711225
  38.4428357 132.7104670  67.9362867  38.1378493 133.0250819  68.7873010
  39.3958799 132.7886090  67.9790200  41.8667635 137.0643914  74.7022867
  41.2091309 137.7543175  74.7902996  42.6708034 137.4540346  75.0456854
  31.6193517 129.5314560  71.9462433  32.1937268 129.3089741  71.2135626
  32.2064499 129.6003254  72.6991034  40.6773094 135.4188286  72.7526809
  41.1904976 136.0518278  73.2548519  41.3274318 134.8189482  72.3870169
  31.9463104 131.5619021  65.9658318  31.1100416 131.8993707  66.2867593
  31.8067873 131.4268000  65.0285455  33.9216184 126.4055808  70.6737502
  33.2680597 126.0904826  70.0494117  33.8796658 125.7831549  71.3997325
  35.0327389 136.6875104  62.5890794  34.1254451 136.4564357  62.7881943
  35.5298421 135.8912723  62.7764776  37.1553925 132.8937742  74.9985150
  36.2376486 133.1152689  74.8406838  37.5714068 132.9684052  74.1396857
  37.9388972 134.2929158  70.1287830  38.6860791 134.8050555  69.8194952
  38.2080562 133.9713210  70.9892224  36.2115623 136.7887698  67.1114784
  35.3026842 136.5046731  67.2087254  36.2410706 137.2086777  66.2518091
  40.3867810 131.3286274  72.1106619  39.6490566 130.8163660  72.4416862
  40.6394583 130.8886656  71.2989896  40.4879437 124.1062526  72.7048389
  40.7938314 123.2459889  72.4174304  41.2132042 124.6980146  72.5047382
  26.7803793 134.5093213  71.0929986  26.5828193 133.9162573  70.3681053
  26.2250457 134.2045423  71.8105925  34.7600517 134.4016319  73.2124580
  34.8149126 133.4490155  73.1367056  33.9491719 134.5575758  73.6965878
  35.9091710 138.3296442  64.4502863  35.4711140 137.6132301  63.9908500
  36.6502151 138.5572557  63.8887954  32.6992877 133.0193379  70.9714958
  31.8860742 133.3187549  71.3780151  33.1951871 132.6249067  71.6889441
  38.2967088 133.4835203  79.8029852  38.6516476 133.7106676  80.6624318
  38.9439219 133.8153580  79.1807108  44.0264825 136.6053639  70.5079181
  43.8882724 136.7955235  69.5800371  43.6701044 137.3673022  70.9647233
  32.1906951 130.5911734  76.5876193  32.8306331 130.4500493  75.8899157
  31.3584482 130.3046248  76.2114795  44.0534205 138.6730166  75.5190453
  44.4870711 138.5805455  76.3673507  44.7665785 138.6487667  74.8810469
  29.2750019 134.0357246  68.7770939  28.3447607 133.9741702  68.9940901
  29.3707491 133.5133199  67.9807580  29.1935568 130.5612059  71.3649180
  29.4542385 131.4757392  71.2558341  30.0152740 130.0936502  71.5145793
  30.6660493 131.9749816  78.5348005  31.3383546 131.7667179  77.8860654
  29.8390280 131.7771902  78.0953237  44.9149754 138.7153867  78.0523338
  45.1085644 139.6199677  78.2982613  44.8150372 138.2561286  78.8861923
  36.5686065 128.6011757  80.5513666  35.9213980 129.3001707  80.4578142
  37.3387080 129.0347901  80.9189914  39.9764863 138.8660609  83.6264219
  39.8250369 138.6371161  82.7094303  39.9669542 139.8231211  83.6395564
  36.7450199 136.4392522  78.6110485  37.6742259 136.5903682  78.4379453
  36.3241229 136.5276543  77.7559132  31.0687990 135.2492419  79.2950442
  30.9307788 134.5172658  79.8961981  31.9792914 135.1601319  79.0134630
  40.0302938 137.1880824  64.0434920  39.4132109 136.4627652  63.9467973
  39.5619426 137.9490184  63.7001995  33.6970291 134.9612379  78.7834122
  34.4069909 134.3205571  78.7420740  33.6539599 135.2125274  79.7060302
  32.4099225 131.9477597  80.6029761  31.8736582 131.4968335  81.2551357
  31.8215933 132.0823505  79.8600225  31.8201484 131.4066248  63.1656225
  30.9430950 131.2855049  62.8018471  32.2959237 130.6152326  62.9135113
  41.6874477 139.8619316  79.9354680  40.8001256 139.5245238  80.0581079
  42.2573028 139.1302347  80.1723446  28.1438346 131.0833604  77.6882756
  28.0596535 130.4759274  76.9533165  27.3221053 131.5742623  77.6892252
  38.3162060 129.5687168  73.0552951  38.8130760 128.8157130  72.7354021
  37.5449042 129.6051484  72.4896160  46.1691817 135.2727533  74.6971242
  46.1581694 136.1552249  74.3265175  45.3009197 134.9199084  74.5025779
  39.3991841 138.3258855  70.6291374  38.4648119 138.4460317  70.4596078
  39.5768509 137.4231322  70.3651384  34.8997029 131.7104551  72.7824635
  34.5294816 131.1575591  73.4705541  35.3956121 131.1062684  72.2299635
  42.7864392 134.1676174  71.1641408  43.2524844 135.0004166  71.0901711
  43.2371893 133.7021156  71.8686667  40.8540623 140.5119996  68.1627560
  41.1300467 140.3976590  69.0721434  39.9845122 140.1137480  68.1239733
  40.7581055 126.5356761  75.2032309  39.8444135 126.7660988  75.3714516
  41.1874156 126.6195205  76.0546342  40.5287513 134.7246653  77.7032204
  39.8758964 134.9722561  77.0484656  40.9067893 133.9110791  77.3694681
  36.5775086 135.4666464  84.1898241  35.9015723 135.3660594  84.8600616
  37.4002720 135.3105678  84.6534238  22.9171600 134.2744001  75.5315199
  22.9555700 133.7407592  76.3252317  22.4111893 133.7479207  74.9126176
  30.2962362 129.1208542  79.0277741  30.3603689 129.9823372  78.6155139
  30.2329483 128.5082543  78.2950100  29.7714635 131.1931674  82.6750776
  30.3986674 130.8108751  83.2888300  28.9142554 130.9745876  83.0406468
  26.5480178 133.0008103  68.6069130  26.8433619 132.0918782  68.5536184
  25.6468213 132.9795843  68.2850133  30.0774425 131.0764100  74.5896679
  29.3561010 131.6900068  74.4504152  30.8667680 131.6121865  74.5113325
  32.8800738 128.4118526  80.8637331  33.4035140 128.6580823  81.6263640
  32.6613072 129.2438561  80.4440468  28.2768019 130.6822201  68.7308456
  27.9480725 129.8019580  68.5483561  28.6307390 130.6269870  69.6184845
  31.3909842 130.9695171  69.0983933  31.7305915 131.4981092  68.3762542
  31.8381963 131.3075577  69.8742500  34.0853283 129.3532221  78.5487001
  33.7450104 128.5540034  78.9507681  33.3792290 129.6533932  77.9763834
  34.7369755 126.4381534  77.0014324  35.5595824 125.9642012  76.8793215
  34.9807819 127.2172018  77.5013011  33.3777990 129.4669792  67.2977226
  34.0986352 129.8451045  66.7940943  32.7543294 130.1858669  67.4012204
  37.5209112 130.1714941  68.2335558  37.7372727 131.0539579  67.9324386
  37.0403180 129.7801155  67.5041200  32.2608334 133.1300654  74.8106303
  32.1152915 133.4440958  75.7030584  31.7833537 133.7485555  74.2577202
  34.1204717 130.1203202  74.8587192  34.1066286 129.2244296  74.5219490
  34.8377145 130.1273866  75.4925478  35.9730847 130.5540543  76.9040320
  35.7148625 131.4757613  76.9024650  35.4415888 130.1570977  77.5940784
  33.5241613 129.0017583  70.1274763  33.6457524 128.0734229  70.3265650
  33.2343655 129.0156269  69.2153078  36.3932803 126.6872493  73.2641482
  36.4154500 126.7511826  72.3093462  36.8100862 125.8477002  73.4581989
  46.7716427 136.4227753  71.3020705  47.2147573 135.6735078  70.9039828
  45.8942938 136.4137889  70.9194437  27.5220018 134.7975895  80.6424121
  26.7801754 134.9458531  81.2288751  27.2012762 135.0584161  79.7790870
  43.8043632 140.4257800  68.3114634  44.3294956 140.7645072  67.5863954
  43.7165984 139.4904815  68.1277769  33.0082692 130.5149580  84.3364695
  33.0570848 131.3911703  83.9542465  33.5505206 129.9726973  83.7636338
  43.4937538 141.0590703  83.6165832  42.7033082 141.0414842  83.0770332
  43.2570892 141.5978997  84.3714869  43.6135413 137.9083170  80.9298561
  43.6633418 137.7433177  81.8714084  43.5049336 137.0410429  80.5396442
  40.9039175 133.8914098  82.2457868  41.8049038 133.7520563  81.9541865
  40.9787150 134.0568553  83.1856045  35.2381981 131.2680953  81.0911054
  34.3685290 131.5614519  80.8193642  35.4741461 131.8521398  81.8118317
  45.1153610 140.3280111  81.1740582  44.8238418 140.6910092  82.0104043
  44.5025741 139.6147120  80.9953914  46.3149292 137.8932991  73.6943153
  47.1496183 138.3322795  73.8580713  46.4508421 137.4171644  72.8751398
  43.3640798 135.4512726  79.6420640  43.8394920 135.6440372  78.8339492
  42.4406363 135.5071912  79.3964024  30.2524305 136.6136893  69.2251719
  30.0070347 135.7099223  69.4231929  30.4220219 136.6154044  68.2831197
  37.9421015 127.4860569  78.6076474  38.4602958 128.2221596  78.2822963
  37.5876147 127.7924563  79.4423233  29.5219952 132.3465251  66.7237880
  28.8289197 132.4209606  66.0677916  29.2771704 131.5825594  67.2459397
  38.1933609 123.9060852  74.1277371  38.4735362 123.2384041  74.7537797
  38.9784216 124.0989948  73.6152035  42.0642467 132.3278486  77.8748946
  43.0159890 132.4276584  77.8961170  41.8945917 131.5356755  78.3847030
  40.0856846 129.4134069  78.0608347  39.4906779 129.6939082  77.3654835
  39.8006543 129.9027970  78.8325088  44.5430545 135.5484606  76.9891246
  44.5106865 134.6100606  77.1750929  45.1531168 135.6268642  76.2557070
  36.3813876 134.4180659  63.0318450  37.3272980 134.2886867  63.1006868
  36.0028121 133.6795321  63.5087878  44.6925033 132.3395649  77.0349529
  44.1764082 131.5554106  76.8479458  45.5764982 132.0114366  77.1996048
  42.3535760 126.0836665  72.9945341  42.1560581 125.7751753  73.8788673
  42.9635466 126.8098304  73.1243271  50.3607095 136.6100613  76.1297282
  51.0910483 136.3485901  76.6904986  49.7514040 135.8729334  76.1699350
  48.4422392 134.7508475  76.7271734  47.7155555 134.6164440  76.1188225
  48.0269679 135.0585304  77.5328452  36.2652568 138.4698405  84.4919107
  37.1855578 138.6477004  84.6859153  36.2302151 137.5254450  84.3398806
  34.5656793 132.3430635  62.9673335  33.6588248 132.0463748  63.0436048
  34.8432774 132.0460453  62.1007621  25.4834733 133.6636998  73.4172381
  25.1637518 132.8102307  73.1246755  24.9368161 133.8785577  74.1730349
  36.1818859 126.8867525  69.1217576  35.3719587 126.5414610  69.4972822
  36.8703275 126.5775068  69.7105188  38.1109407 125.9645572  70.7441873
  38.6640445 126.3841025  71.4031896  38.3479493 125.0381320  70.7864829
  34.1342506 131.9532645  86.5244637  34.0339233 132.9027002  86.4556728
  33.9164048 131.6250884  85.6520707  33.3355577 129.2017570  63.1085314
  34.1974741 129.5272469  63.3681131  33.5205922 128.4149066  62.5958380
  41.4888214 128.0746097  70.2520537  40.9086883 128.7330901  69.8698589
  41.2224147 127.2523441  69.8407955  39.9391780 127.4751154  72.4541857
  40.4391559 127.5867689  71.6456176  40.5827388 127.1712207  73.0942666
  33.9973776 135.3829784  85.3409698  33.5140858 136.1830144  85.5473587
  34.0834715 135.3937729  84.3877142  40.2713092 130.2346187  69.3076885
  39.3838947 130.5195838  69.0897080  40.6867081 130.0739950  68.4604162
  43.6227628 130.2592708  73.0231225  44.3988018 130.7489161  73.2955841
  42.8975762 130.6850762  73.4803094  46.0600187 130.9720327  74.0805165
  46.6544678 130.7316063  73.3698473  46.1326770 130.2527458  74.7078701
  40.2454116 135.7500723  69.5227175  40.1889317 136.2069274  68.6834808
  40.7982458 134.9891408  69.3450018  44.0558922 131.5390455  70.3477295
  43.7995856 131.1387091  71.1785503  43.4311790 132.2534249  70.2227434
  48.3671259 134.2786528  72.8548586  47.8070817 134.3479717  73.6280148
  47.7614763 134.1027513  72.1348083  41.3243003 140.4373391  65.4523365
  42.1588607 140.0054589  65.2700840  41.1627346 140.2655405  66.3800260
  40.9788895 136.9405504  66.8179705  40.9237699 136.7749776  65.8768149
  40.3534950 137.6481537  66.9741894  25.7681410 132.1773569  80.6441127
  26.4140274 131.6672523  81.1328352  25.5598561 132.9142250  81.2184552
  34.2885020 126.4413613  66.3965023  34.2763690 127.3855453  66.5533294
  35.1808442 126.2583759  66.1024484  38.1037140 123.0356390  70.6510960
  37.3369536 122.4814877  70.7967642  38.5147845 123.1078259  71.5125111
  30.1078901 129.3241186  84.7416141  30.9710363 128.9677991  84.9519466
  29.5344312 128.9855081  85.4291545  52.4302394 142.3291303  77.9859337
  52.0985719 143.1986714  77.7620552  51.8348007 142.0127587  78.6653368
  49.5285526 140.1760884  77.6030651  49.1849795 141.0662526  77.5269761
  49.8964488 139.9862542  76.7400236  48.6082066 142.5465540  75.5679884
  48.1046862 142.5095675  74.7547689  48.9012673 143.4558282  75.6276541
  44.7609939 141.7347726  70.6737502  44.1074351 141.4196743  70.0494117
  44.7190413 141.1123467  71.3997325  51.3273191 139.4354444  72.7048389
  51.6332068 138.5751807  72.4174304  52.0525796 140.0272064  72.5047382
  51.5974809 141.8648679  75.2032309  50.6837889 142.0952906  75.3714516
  52.0267911 141.9487123  76.0546342  45.5763510 141.7673452  77.0014324
  46.3989579 141.2933930  76.8793215  45.8201573 142.5463935  77.5013011
  47.2326558 142.0164411  73.2641482  47.2548254 142.0803744  72.3093462
  47.6494617 141.1768920  73.4581989  48.7814769 142.8152487  78.6076474
  49.2996713 143.5513514  78.2822963  48.4269902 143.1216480  79.4423233
  49.0327363 139.2352770  74.1277371  49.3129117 138.5675959  74.7537797
  49.8177970 139.4281865  73.6152035  53.1929515 141.4128582  72.9945341
  52.9954336 141.1043671  73.8788673  53.8029220 142.1390221  73.1243271
  47.0212613 142.2159442  69.1217576  46.2113341 141.8706527  69.4972822
  47.7097030 141.9066986  69.7105188  48.9503161 141.2937489  70.7441873
  49.5034200 141.7132943  71.4031896  49.1873248 140.3673237  70.7864829
  52.3281968 143.4038014  70.2520537  51.7480637 144.0622818  69.8698589
  52.0617901 142.5815359  69.8407955  50.7785535 142.8043072  72.4541857
  51.2785313 142.9159607  71.6456176  51.4221143 142.5004125  73.0942666
  56.8993941 146.3012245  74.0805165  57.4938432 146.0607981  73.3698473
  56.9720525 145.5819376  74.7078701  48.9430894 138.3648308  70.6510960
  48.1763290 137.8106794  70.7967642  49.3541599 138.4370176  71.5125111
   6.5925663  52.1419454  60.1222345   5.8389371  51.5726853  59.9666349
   6.7273204  52.1082119  61.0692979   0.6959188  54.3624618  62.2435760
   1.1295695  54.2699907  63.0918814   1.4090769  54.3382118  61.6055776
   1.5574738  54.4048319  64.7768645   1.7510628  55.3094129  65.0227920
   1.4575356  53.9455738  65.6107230   2.8116801  50.9621985  61.4216549
   2.8006677  51.8446701  61.0510482   1.9434180  50.6093536  61.2271086
   3.4141411  52.1122205  58.0266012   3.8572557  51.3629530  57.6285135
   2.5367921  52.1032341  57.6439744   0.4468615  56.1152252  55.0359941
   0.9719939  56.4539524  54.3109261   0.3590968  55.1799267  54.8523076
   1.7578593  56.0174563  67.8985889   1.4663401  56.3804544  68.7349350
   1.1450724  55.3041571  67.7199221   2.9574275  53.5827443  60.4188459
   3.7921167  54.0217247  60.5826020   3.0933404  53.1066096  59.5996705
   1.1855528  51.2379058  63.7136552   1.1531848  50.2995058  63.8996236
   1.7956152  51.3163094  62.9802377   1.3350017  48.0290101  63.7594835
   0.8189065  47.2448558  63.5724764   2.2189965  47.7008818  63.9241355
   7.0032078  52.2995064  62.8542589   7.7335466  52.0380353  63.4150292
   6.3939023  51.5623786  62.8944657   5.0847375  50.4402927  63.4517040
   4.3580539  50.3058892  62.8433532   4.6694662  50.7479756  64.2573758
   2.7025170  46.6614779  60.8050472   3.2969661  46.4210515  60.0943780
   2.7751754  45.9421910  61.4324008   5.0096243  49.9680980  59.5793893
   4.4495801  50.0374169  60.3525455   4.4039746  49.7921965  58.8593389
   6.5952261  66.6437494  62.2723849   7.2330671  66.5244241  61.5687189
   6.4773104  67.5918338  62.3311801   3.4041967  66.5964922  62.2085373
   3.0660479  66.4805987  61.3205908   4.2731736  66.1956087  62.1886380
   3.8861750  67.7499774  68.1671579   3.8750391  67.3552572  67.2952083
   4.0482390  67.0165846  68.7605350   4.8428342  72.1171366  53.5096729
   4.1916322  72.7025447  53.1230743   5.6372705  72.6477561  53.5691767
   1.5325218  67.9113734  63.7052123   2.1288791  67.6869757  62.9909086
   1.5900190  67.1698480  64.3077570   6.1493530  64.3688948  59.3477057
   6.9356619  63.9508371  58.9967474   6.4132234  65.2735040  59.5158705
   6.3203607  69.8061798  54.0465714   5.6849440  69.8796425  54.7586618
   5.9901013  70.3955397  53.3684793  11.5501957  64.3064181  60.2510035
  12.2827129  63.7363398  60.4847865  10.7941313  63.9185781  60.6916541
   0.8246536  67.2681275  53.7426689   0.7082794  66.5926179  54.4107773
   0.9348796  66.7813649  52.9258842   3.1678077  66.7291423  57.4473378
   2.8036284  66.2022043  58.1586299   4.0245192  66.3389892  57.2739863
   9.0727377  58.0185755  64.7104644   8.7410702  58.8881166  64.4865859
   8.4772991  57.7022039  65.3898674   2.8083564  61.7581322  52.4434726
   2.9757966  62.6261559  52.8105197   2.6180733  61.9208604  51.5196016
   5.5658897  70.2198301  64.1100557   5.2659620  71.1223340  64.0016364
   5.2209956  69.9530484  64.9621710   8.9656040  62.7380841  61.7897994
   8.0572918  62.6696250  61.4956755   8.9143636  63.2152786  62.6179819
   2.7872784  64.2138980  53.4281393   2.6672410  64.6596030  54.2666873
   2.0925373  64.5624297  52.8694931   3.0396906  64.1570487  69.7332891
   2.2630240  64.7164407  69.7235756   3.6787469  64.6427270  70.2547761
  10.8317687  60.9397280  63.5675868  10.1892067  61.2329813  62.9215662
  10.3272615  60.8250200  64.3729065   8.4857851  64.6860453  54.2561727
   9.3975707  64.9187840  54.0809425   7.9767498  65.2697497  53.6936806
   1.2943279  66.9655940  69.2950858   2.0357963  67.5040984  69.0185682
   0.5880264  67.5922229  69.4522410   6.7698618  69.1085081  67.8923020
   7.1781974  68.6667491  67.1477652   6.0475880  68.5337708  68.1457213
   3.1229688  64.0457687  65.2656577   3.9690883  64.4697101  65.4091226
   3.0628326  63.3891312  65.9595140   7.0927433  69.6686271  61.6475309
   6.4636295  69.8331985  60.9451376   6.7053095  70.0827881  62.4186273
  10.9716665  70.6040709  59.0019672  10.2867703  70.9839611  58.4516706
  11.0560514  71.2136036  59.7351620   6.2729134  61.7062056  66.9237750
   6.0290065  62.4604116  66.3872026   6.5489064  62.0847403  67.7584997
   8.2267596  68.2500668  65.6015016   8.4384492  68.8932428  64.9249397
   8.1797345  67.4162985  65.1336946   5.8293825  60.8618489  62.5051588
   4.9678304  61.1599742  62.7968326   5.8556260  61.0788888  61.5732621
   2.6455395  69.4060679  58.9125394   3.1093740  69.6848382  58.1230016
   2.3812193  68.5044124  58.7298484   1.5824281  65.5283832  55.7214959
   2.2848324  65.9804875  56.1888885   1.2504909  64.8867651  56.3494852
   9.3413424  71.1272624  63.7737373  10.1630868  70.7252811  63.4920055
   9.3375827  71.0240858  64.7253489   3.1070028  70.6756667  65.9298084
   3.1714460  71.1377074  66.7656256   2.3980952  70.0454032  66.0580394
  17.4319417  67.4711372  60.1222345  16.6783126  66.9018770  59.9666349
  17.5666959  67.4374037  61.0692979   2.8218045  72.3424774  55.7977064
   2.6863720  73.1876310  56.2261912   3.3627858  72.5444052  55.0342998
   2.2253346  59.8374233  70.0511676   2.9663059  60.4381386  69.9716138
   2.4571269  59.0951871  69.4929718   4.4486522  72.9648341  69.9277406
   4.0050376  72.1784719  69.6098311   5.1103735  73.1527491  69.2621297
   6.5467760  73.2451141  67.9558807   6.5286235  74.0660022  67.4639077
   7.4687680  73.1205216  68.1808949   3.0040814  70.7595270  68.7982316
   3.5369151  69.9983559  68.5681624   2.4754895  70.4668922  69.5406470
   6.1710509  55.8655336  64.3275958   5.8274778  56.7556978  64.2515068
   6.5389472  55.6756994  63.4645543   6.1360792  65.8563947  52.8348393
   5.6207415  66.6268552  53.0736780   5.8638100  65.1829084  53.4581454
   3.7207903  60.7013648  57.8933631   2.8649499  60.3120499  57.7139270
   4.1334855  60.7805609  57.0333417   5.2507049  58.2359991  62.2925191
   4.7471845  58.1990127  61.4792996   5.5437656  59.1452734  62.3521847
   1.4949935  58.3198721  61.2991373   2.3602932  58.1241530  60.9397262
   1.5627444  58.0909073  62.2260729  11.1095066  68.6096302  54.7701566
  10.3324509  68.2707462  54.3256728  11.7886547  68.6148925  54.0956531
   5.9247095  63.7291039  54.6608174   5.6197230  64.0437189  55.5118317
   6.8777537  63.8072459  54.7035507   4.3693527  69.8881263  56.3101128
   3.8414888  69.1534022  55.9974365   3.8681029  70.6655939  56.0641096
   9.3486373  68.0830283  61.4268174   8.6910047  68.7729545  61.5148303
  10.1526772  68.4726715  61.7702160   8.1591832  66.4374656  59.4772116
   8.6723713  67.0704648  59.9793826   8.8093055  65.8375851  59.1115476
   1.4034922  57.4242178  57.3982809   0.7499334  57.1091195  56.7739424
   1.3615396  56.8017918  58.1242632   2.5146127  67.7061473  49.3136101
   1.6073189  67.4750727  49.5127250   3.0117159  66.9099092  49.5010082
   5.4214206  76.4158980  52.2332787   4.7475905  76.7190677  52.8417745
   5.8080028  77.2188061  51.8838244   4.6372662  63.9124112  61.7230456
   3.7195224  64.1339059  61.5652144   5.0532806  63.9870422  60.8642164
   5.4207710  65.3115527  56.8533137   6.1679529  65.8236924  56.5440259
   5.6899300  64.9899580  57.7137530   3.6934360  67.8074068  53.8360091
   2.7845580  67.5233101  53.9332561   3.7229444  68.2273147  52.9763398
   8.9253628  71.4180657  57.6051258   8.4715955  70.5771567  57.6616449
   8.2947594  72.0542056  57.9426039   7.8686547  62.3472643  58.8351926
   7.1309304  61.8350030  59.1662168   8.1213321  61.9073025  58.0235203
   7.3686567  73.2557154  58.5401077   7.6609541  73.8162211  57.8213442
   7.8785188  73.5485715  59.2954236   7.9698175  55.1248895  59.4293695
   8.2757051  54.2646259  59.1419610   8.6950779  55.7166516  59.2292689
   2.2419254  65.4202689  59.9369886   2.2967864  64.4676525  59.8612363
   1.4310456  65.5762128  60.4211185   3.3910448  69.3482812  51.1748169
   2.9529878  68.6318671  50.7153807   4.1320889  69.5758926  50.6133261
   2.3320192  74.0337505  59.6294530   2.2896371  74.2598352  58.7003062
   3.2482891  73.8000880  59.7780331   5.7785826  64.5021573  66.5275159
   6.1335214  64.7293046  67.3869625   6.4257957  64.8339950  65.9052414
  11.5083563  67.6240009  57.2324488  11.3701462  67.8141605  56.3045677
  11.1519782  68.3859391  57.6892539  11.5352943  69.6916536  62.2435760
  11.9689449  69.5991825  63.0918814  12.2484523  69.6674036  61.6055776
   5.2680837  73.2918630  63.7768860   5.3217860  73.8609566  64.5446576
   4.3995619  73.4620515  63.4122897  12.3968492  69.7340236  64.7768645
  12.5904382  70.6386047  65.0227920  12.2969110  69.2747655  65.6107230
   4.0504803  59.6198127  67.2758972   3.4032718  60.3188077  67.1823449
   4.8205818  60.0534271  67.6435220   7.4583601  69.8846979  70.3509526
   7.3069107  69.6557531  69.4339609   7.4488280  70.8417580  70.3640871
   4.2268937  67.4578892  65.3355792   5.1560997  67.6090051  65.1624759
   3.8059967  67.5462913  64.4804439   3.0257269  71.4829556  63.1054330
   2.8868355  71.1148341  63.9780268   2.2371865  71.9977196  62.9338287
   3.6205421  76.5838653  54.4479866   3.7957177  76.1126696  55.2625489
   2.9338209  77.2104419  54.6761127   4.5762484  70.8611159  60.4943167
   4.2412317  70.8211929  61.3900817   4.0766430  70.1955875  60.0213578
   7.5121676  68.2067193  50.7680227   6.8950846  67.4814021  50.6713280
   7.0438164  68.9676554  50.4247301   1.1789029  65.9798748  65.5079428
   1.8888647  65.3391940  65.4666047   1.1358337  66.2311643  66.4305609
   9.1675807  72.9166102  68.4286007   9.1088354  72.2325322  67.7616590
   9.5695326  73.6585092  67.9766633   9.1693215  70.8805686  66.6599987
   8.2819993  70.5431607  66.7826386   9.7391766  70.1488717  66.8968753
   2.6994368  75.5407138  63.6261230   2.6264540  76.3462109  64.1380535
   2.2571761  75.7399104  62.8009252   2.4884148  74.7778908  57.1364052
   1.7051670  75.3200588  57.2302276   3.1876893  75.2952888  57.5358293
   5.7980798  60.5873537  59.7798257   6.2949497  59.8343500  59.4599327
   5.0267779  60.6237854  59.2141467  13.6510555  66.2913903  61.4216549
  13.6400431  67.1738618  61.0510482  12.7827935  65.9385454  61.2271086
   5.1593052  75.4393972  65.7819389   5.8721024  76.0741437  65.7095290
   4.6683080  75.5357838  64.9659391   6.8810579  69.3445225  57.3536681
   5.9466857  69.4646687  57.1841385   7.0587247  68.4417691  57.0896690
   2.3815767  62.7290920  59.5069942   2.0113554  62.1761961  60.1950847
   2.8774859  62.1249054  58.9544942  10.2683130  65.1862544  57.8886715
  10.7343582  66.0190535  57.8147017  10.7190630  64.7207525  58.5931973
   8.3359361  71.5306365  54.8872867   8.6119205  71.4162960  55.7966741
   7.4663860  71.1323850  54.8485040   8.2399793  57.5543131  61.9277616
   7.3262872  57.7847358  62.0959823   8.6692894  57.6381575  62.7791648
   8.0106251  65.7433023  64.4277510   7.3577701  65.9908930  63.7729963
   8.3886631  64.9297161  64.0939987   4.9713425  75.7792716  58.5305680
   5.1535820  74.9614372  58.9933433   5.7946411  75.9960408  58.0930570
   5.3055590  74.7060901  55.7920729   5.8343357  74.1953356  55.1790891
   5.5683810  74.3903431  56.6566262   4.0593824  66.4852834  70.9143547
   3.3834461  66.3846963  71.5845922   4.8821458  66.3292048  71.3779544
   2.8016607  77.7919761  65.1501163   3.3534915  77.9551383  65.9150248
   3.1422800  78.3824199  64.4781188   7.6527481  72.6181019  71.0049818
   8.1967385  73.2310977  70.5104772   7.0714326  73.1760597  71.5216831
   5.9384994  75.7401737  62.1364845   5.8136134  74.9391477  61.6275791
   6.5964085  76.2347930  61.6478815   8.0019903  73.5410757  63.7644395
   7.0550238  73.4216108  63.6922722   8.3502676  72.6533255  63.8470657
   5.0066336  73.3363473  59.9648748   4.8591298  72.4080181  60.1456318
   5.8319829  73.3583564  59.4805823   8.6100458  74.1592032  61.0513620
   9.5347005  73.9534893  60.9138072   8.4415761  73.9108433  61.9602962
   1.5672021  60.3718591  65.2732308   1.2268841  59.5726404  65.6752988
   0.8611027  60.6720302  64.7009141   2.2188493  57.4567903  63.7259631
   3.0414562  56.9828382  63.6038521   2.4626556  58.2358387  64.2258317
   5.0027850  61.1901311  54.9580865   5.2191465  62.0725949  54.6569693
   4.5221917  60.7987524  54.2286507   1.6023455  61.1389572  61.5832499
   1.5885023  60.2430665  61.2464797   2.3195883  61.1460236  62.2170785
   3.4549585  61.5726912  63.6285627   3.1967363  62.4943983  63.6269957
   2.9234626  61.1757347  64.3186091   8.3995774  74.6777699  56.4075712
   8.5732652  74.1124122  55.6549564   8.8924665  75.4778594  56.2255202
   1.0060350  60.0203952  56.8520069   1.1276262  59.0920598  57.0510957
   0.7162393  60.0342638  55.9398385   3.8751541  57.7058863  59.9886789
   3.8973238  57.7698196  59.0338769   4.2919600  56.8663371  60.1827295
  14.2535165  67.4414122  58.0266012  14.6966311  66.6921448  57.6285135
  13.3761675  67.4324259  57.6439744   9.3870947  73.9944464  53.5072610
  10.0821851  74.6151156  53.7259925   9.7294097  73.1439815  53.7824988
  11.2862370  71.4444169  55.0359941  11.8113694  71.7831442  54.3109261
  11.1984722  70.5091185  54.8523076   2.9482418  75.3578243  67.1649818
   3.2569545  75.1127390  68.0372517   3.7457900  75.5624881  66.6768688
   2.9703030  77.5116153  59.3955194   2.5308021  77.0192531  60.0888051
   3.7211147  76.9689120  59.1547269   0.4901430  61.5335950  71.0610002
   0.5389585  62.4098072  70.6787771   1.0323944  60.9913343  70.4881645
  10.9756276  72.0777073  70.3411139  10.1851819  72.0601212  69.8015638
  10.7389630  72.6165367  71.0960175  11.0954151  68.9269539  67.6543867
  11.1452156  68.7619547  68.5959390  10.9868074  68.0596798  67.2641748
   8.3857913  64.9100467  68.9703174   9.2867776  64.7706932  68.6787172
   8.4605888  65.0754922  69.9101352   2.7200718  62.2867322  67.8156360
   1.8504028  62.5800888  67.5438949   2.9560199  62.8707767  68.5363624
  12.5972348  71.3466481  67.8985889  12.3057156  71.7096461  68.7349350
  11.9844479  70.6333489  67.7199221  13.7968030  68.9119361  60.4188459
  14.6314921  69.3509165  60.5826020  13.9327159  68.4358014  59.5996705
  10.8459536  66.4699095  66.3665947  11.3213657  66.6626742  65.5584798
   9.9225101  66.5258281  66.1209331   5.4239752  58.5046939  65.3321781
   5.9421696  59.2407966  65.0068269   5.0694885  58.8110932  66.1668540
   5.6752346  54.9247222  60.8522677   5.9554100  54.2570411  61.4783104
   6.4602953  55.1176317  60.3397341   3.4785815  74.1006215  52.4147704
   2.9059782  74.7196403  51.9618176   4.0518609  74.6505577  52.9487626
   9.5461205  63.3464856  64.5994253  10.4978628  63.4462953  64.6206477
   9.3764655  62.5543124  65.1092337   7.5675584  60.4320439  64.7853654
   6.9725516  60.7125451  64.0900142   7.2825281  60.9214340  65.5570395
   6.6983075  74.3843366  53.5456286   7.6313748  74.3188927  53.7489162
   6.6106288  75.2199632  53.0870819   9.3271091  73.7009236  50.5060234
   9.2484723  73.3669100  51.3995992  10.1480758  74.1931004  50.5051706
  12.0249283  66.5670975  63.7136552  11.9925603  65.6286976  63.8996236
  12.6349906  66.6455012  62.9802377   3.8632613  65.4367028  49.7563756
   4.8091718  65.3073236  49.8252174   3.4846858  64.6981690  50.2333184
  12.1743771  63.3582019  63.7594835  11.6582820  62.5740475  63.5724764
  13.0583720  63.0300735  63.9241355   9.8354498  57.1023034  59.7190648
   9.6379319  56.7938122  60.6033980  10.4454204  57.8284673  59.8488578
  17.8425832  67.6286982  62.8542589  18.5729221  67.3672270  63.4150292
  17.2332778  66.8915704  62.8944657  15.9241130  65.7694845  63.4517040
  15.1974293  65.6350810  62.8433532  15.5088416  66.0771673  64.2573758
   3.7471306  69.4884774  71.2164413   4.6674315  69.6663373  71.4104460
   3.7120889  68.5440820  71.0644113   2.0475531  63.3617005  49.6918641
   1.1406986  63.0650117  49.7681355   2.3251512  63.0646823  48.8252928
   3.6637596  57.9053894  55.8462883   2.8538325  57.5600979  56.2218129
   4.3522013  57.5961438  56.4350494   5.5928145  56.9831941  57.4687179
   6.1459183  57.4027395  58.1277203   5.8298231  56.0567689  57.5110135
   1.6161244  62.9719015  73.2489943   1.5157971  63.9213372  73.1802034
   1.3982786  62.6437254  72.3766013   0.8174315  60.2203940  49.8330621
   1.6793479  60.5458838  50.0926438   1.0024659  59.4335436  49.3203686
   8.9706952  59.0932466  56.9765844   8.3905621  59.7517270  56.5943896
   8.7042884  58.2709811  56.5653261   7.4210518  58.4937524  59.1787164
   7.9210296  58.6054059  58.3701483   8.0646126  58.1898577  59.8187972
   1.4792514  66.4016154  72.0655005   0.9959596  67.2016514  72.2718894
   1.5653453  66.4124098  71.1122449   7.7531830  61.2532557  56.0322192
   6.8657685  61.5382207  55.8142387   8.1685819  61.0926320  55.1849469
  11.1046366  61.2779078  59.7476531  11.8806756  61.7675530  60.0201148
  10.3794500  61.7037132  60.2048401  13.5418924  61.9906697  60.8050472
  14.1363415  61.7502433  60.0943780  13.6145508  61.2713827  61.4324008
   6.8975043  71.0177231  50.1270212   7.6010893  71.2227234  50.7427868
   6.1737692  71.5853993  50.3919295   7.7272853  66.7687093  56.2472482
   7.6708055  67.2255644  55.4080115   8.2801196  66.0077777  56.0695325
  11.5377659  62.5576824  57.0722602  11.2814594  62.1573460  57.9030809
  10.9130527  63.2720618  56.9472741  15.8489997  65.2972898  59.5793893
  15.2889555  65.3666087  60.3525455  15.2433501  65.1213882  58.8593389
   8.8061741  71.4559761  52.1768672   9.6407345  71.0240959  51.9946147
   8.6446084  71.2841774  53.1045566   8.4607633  67.9591874  53.5425011
   8.4056437  67.7936145  52.6013455   7.8353688  68.6667907  53.6987201
   5.7753540  70.2640786  72.8678574   6.6444700  70.4381438  72.5065209
   5.2960291  71.0835203  72.7454303   1.7703758  57.4599983  53.1210330
   1.7582428  58.4041823  53.2778601   2.6627180  57.2770128  52.8269791
   1.6993322  76.1368873  61.2078086   0.7488953  76.1370735  61.0942459
   2.0025808  75.3901608  60.6914121   5.5855878  54.0542759  57.3756266
   4.8188274  53.5001246  57.5212949   5.9966583  54.1264628  58.2370418
  17.4346016  81.9729412  62.2723849  18.0724426  81.8536159  61.5687189
  17.3166859  82.9210256  62.3311801  14.2435722  81.9256840  62.2085373
  13.9054233  81.8097904  61.3205908  15.1125490  81.5248005  62.1886380
  10.1022538  83.7792316  58.1982264   9.5387403  83.6882253  57.4298552
   9.9874933  82.9592221  58.6784757  14.7255505  83.0791691  68.1671579
  14.7144146  82.6844490  67.2952083  14.8876144  82.3457764  68.7605350
   7.6486970  85.2743508  61.0366485   8.4408262  84.9334332  60.6212784
   7.8883620  85.3838483  61.9568638  15.6822096  87.4463284  53.5096729
  15.0310076  88.0317364  53.1230743  16.4766459  87.9769479  53.5691767
   9.6077724  84.5352421  53.9083864  10.3808600  83.9881408  53.7696739
   9.9603122  85.3996670  54.1198325  11.4462766  85.8628803  67.1150763
  11.1552632  86.7674434  66.9997429  12.0819750  85.9045331  67.8294833
  12.3718973  83.2405652  63.7052123  12.9682545  83.0161674  62.9909086
  12.4293944  82.4990397  64.3077570  11.9444001  80.6945087  51.5402314
  12.1969522  80.1726608  50.7785777  11.0068560  80.5311233  51.6428997
  16.9887284  79.6980865  59.3477057  17.7750373  79.2800289  58.9967474
  17.2525989  80.6026958  59.5158705  17.1597362  85.1353716  54.0465714
  16.5243195  85.2088342  54.7586618  16.8294768  85.7247315  53.3684793
  22.3895711  79.6356099  60.2510035  23.1220883  79.0655315  60.4847865
  21.6335067  79.2477699  60.6916541  11.6640290  82.5973193  53.7426689
  11.5476548  81.9218096  54.4107773  11.7742550  82.1105567  52.9258842
  14.0071831  82.0583340  57.4473378  13.6430038  81.5313961  58.1586299
  14.8638947  81.6681809  57.2739863  19.9121132  73.3477673  64.7104644
  19.5804456  74.2173084  64.4865859  19.3166745  73.0313957  65.3898674
  13.6477318  77.0873240  52.4434726  13.8151720  77.9553476  52.8105197
  13.4574487  77.2500522  51.5196016  16.4052651  85.5490219  64.1100557
  16.1053374  86.4515258  64.0016364  16.0603711  85.2822402  64.9621710
   9.8565133  82.0004016  60.1437261   8.9315629  81.8680230  60.3514953
  10.1049546  82.7798235  60.6407203  19.8049795  78.0672759  61.7897994
  18.8966672  77.9988167  61.4956755  19.7537391  78.5444704  62.6179819
  13.6266539  79.5430897  53.4281393  13.5066164  79.9887948  54.2666873
  12.9319127  79.8916215  52.8694931   7.2173944  81.6437289  60.9781050
   7.3466325  81.8971768  61.8920462   6.5371395  82.2364997  60.6585705
  11.3873431  92.3134539  57.0771524  11.3097461  93.2642364  57.1560005
  10.7835075  91.9680412  57.7346451  13.8790661  79.4862405  69.7332891
  13.1023995  80.0456325  69.7235756  14.5181224  79.9719188  70.2547761
  21.6711441  76.2689197  63.5675868  21.0285822  76.5621731  62.9215662
  21.1666370  76.1542118  64.3729065  19.3251605  80.0152371  54.2561727
  20.2369461  80.2479757  54.0809425  18.8161252  80.5989415  53.6936806
  12.1337033  82.2947858  69.2950858  12.8751717  82.8332902  69.0185682
  11.4274019  82.9214147  69.4522410  17.6092373  84.4376998  67.8923020
  18.0175729  83.9959409  67.1477652  16.8869634  83.8629626  68.1457213
  13.9623443  79.3749605  65.2656577  14.8084638  79.7989019  65.4091226
  13.9022080  78.7183229  65.9595140  17.9321187  84.9978189  61.6475309
  17.3030050  85.1623903  60.9451376  17.5446849  85.4119799  62.4186273
  21.8110419  85.9332627  59.0019672  21.1261457  86.3131528  58.4516706
  21.8954269  86.5427954  59.7351620  17.1122888  77.0353974  66.9237750
  16.8683820  77.7896034  66.3872026  17.3882819  77.4139321  67.7584997
  19.0661351  83.5792586  65.6015016  19.2778246  84.2224346  64.9249397
  19.0191099  82.7454902  65.1336946  16.6687580  76.1910407  62.5051588
  15.8072059  76.4891660  62.7968326  16.6950014  76.4080805  61.5732621
  13.4849149  84.7352597  58.9125394  13.9487495  85.0140300  58.1230016
  13.2205947  83.8336042  58.7298484  10.3773230  84.2824079  61.8505157
  10.9474587  84.7111347  61.2122641  10.9681342  84.0006663  62.5489343
  12.4218035  80.8575749  55.7214959  13.1242079  81.3096793  56.1888885
  12.0898664  80.2159568  56.3494852  10.8698397  79.4487506  70.0966168
  10.2397057  80.1303787  70.3301565  10.7634485  79.3370588  69.1519306
   6.1643369  79.1159302  61.0232092   5.3742423  79.3716831  60.5472203
   6.6554617  79.9307640  61.1284133  20.1807179  86.4564541  63.7737373
  21.0024623  86.0544729  63.4920055  20.1769582  86.3532775  64.7253489
   8.1158115  79.4803881  57.9815569   7.3189278  79.5922576  58.4999065
   7.8883707  79.8190534  57.1156460  13.9463782  86.0048585  65.9298084
  14.0108215  86.4668992  66.7656256  13.2374706  85.3745950  66.0580394
   4.4481072  79.3689793  63.4547083   4.6989111  80.2536802  63.7204659
   4.9840621  79.1894394  62.6822175  28.2713172  82.8003290  60.1222345
  27.5176880  82.2310688  59.9666349  28.4060713  82.7665954  61.0692979
  13.6611800  87.6716692  55.7977064  13.5257475  88.5168228  56.2261912
  14.2021612  87.8735970  55.0342998  10.1479140  73.7508272  72.4591419
   9.7546085  73.1974470  73.1339064  10.9645280  74.0618850  72.8497937
   7.1141197  85.1892130  56.3704989   7.6265718  85.9835380  56.5210554
   7.7663910  84.4918421  56.3038591   8.9236082  88.3057886  58.4527742
   9.1002710  89.2275851  58.2648726   9.7192916  87.9916306  58.8822122
  13.0647101  75.1666151  70.0511676  13.8056814  75.7673304  69.9716138
  13.2965023  74.4243789  69.4929718   8.2088439  80.3522518  68.3289906
   8.0941954  79.4507776  68.6297004   7.3532956  80.5986215  67.9774722
  15.2880276  88.2940259  69.9277406  14.8444130  87.5076637  69.6098311
  15.9497490  88.4819409  69.2621297  10.0467397  89.8236060  64.4538085
  10.5974823  89.6953124  63.6815079   9.2078873  90.1230949  64.1032977
  17.3861514  88.5743059  67.9558807  17.3679990  89.3951940  67.4639077
  18.3081434  88.4497134  68.1808949  13.8434569  86.0887188  68.7982316
  14.3762905  85.3275476  68.5681624  13.3148650  85.7960840  69.5406470
  17.0104263  71.1947254  64.3275958  16.6668533  72.0848896  64.2515068
  17.3783226  71.0048912  63.4645543   5.0790114  83.5180784  57.1464560
   5.9165336  83.9277793  56.9298267   5.2568382  82.5780227  57.1164754
  16.9754546  81.1855865  52.8348393  16.4601170  81.9560470  53.0736780
  16.7031855  80.5121001  53.4581454  14.5601657  76.0305566  57.8933631
  13.7043254  75.6412416  57.7139270  14.9728609  76.1097527  57.0333417
  16.0900804  73.5651909  62.2925191  15.5865599  73.5282044  61.4792996
  16.3831411  74.4744652  62.3521847  12.3343690  73.6490639  61.2991373
  13.1996687  73.4533448  60.9397262  12.4021199  73.4200991  62.2260729
  21.9488820  83.9388220  54.7701566  21.1718263  83.5999379  54.3256728
  22.6280301  83.9440843  54.0956531  16.7640849  79.0582957  54.6608174
  16.4590985  79.3729106  55.5118317  17.7171291  79.1364377  54.7035507
  15.2087281  85.2173180  56.3101128  14.6808643  84.4825940  55.9974365
  14.7074784  85.9947857  56.0641096  20.1880127  83.4122201  61.4268174
  19.5303802  84.1021462  61.5148303  20.9920526  83.8018633  61.7702160
   9.9406009  75.8792847  58.6707739  10.5149761  75.6568028  57.9380932
  10.5276991  75.9481541  59.4236341  18.9985586  81.7666574  59.4772116
  19.5117468  82.3996566  59.9793826  19.6486810  81.1667769  59.1115476
  10.2675596  77.9097308  52.6903625   9.4312908  78.2471994  53.0112899
  10.1280366  77.7746288  51.7530762  12.2428677  72.7534096  57.3982809
  11.5893089  72.4383113  56.7739424  12.2009151  72.1309836  58.1242632
  13.3539881  83.0353391  49.3136101  12.4466943  82.8042644  49.5127250
  13.8510913  82.2391010  49.5010082  16.2607960  91.7450898  52.2332787
  15.5869659  92.0482595  52.8417745  16.6473782  92.5479978  51.8838244
  15.4766417  79.2416029  61.7230456  14.5588978  79.4630976  61.5652144
  15.8926561  79.3162340  60.8642164  16.2601465  80.6407445  56.8533137
  17.0073284  81.1528842  56.5440259  16.5293054  80.3191498  57.7137530
  14.5328115  83.1365986  53.8360091  13.6239334  82.8525018  53.9332561
  14.5623199  83.5565064  52.9763398  19.7647382  86.7472575  57.6051258
  19.3109709  85.9063485  57.6616449  19.1341349  87.3833973  57.9426039
  18.7080302  77.6764561  58.8351926  17.9703059  77.1641947  59.1662168
  18.9607075  77.2364943  58.0235203  18.2080321  88.5849072  58.5401077
  18.5003296  89.1454129  57.8213442  18.7178942  88.8777633  59.2954236
  18.8091929  70.4540813  59.4293695  19.1150806  69.5938177  59.1419610
  19.5344534  71.0458433  59.2292689   5.1016285  80.8571500  57.8175293
   4.9040685  80.2640860  57.0926360   4.5462949  80.5523710  58.5351232
  13.0813009  80.7494606  59.9369886  13.1361619  79.7968443  59.8612363
  12.2704211  80.9054045  60.4211185  14.2304203  84.6774729  51.1748169
  13.7923633  83.9610588  50.7153807  14.9714643  84.9050844  50.6133261
  11.0205369  79.3671666  57.6960265  10.2073234  79.6665837  58.1025457
  11.5164363  78.9727355  58.4134747  13.1713947  89.3629423  59.6294530
  13.1290125  89.5890269  58.7003062  14.0876646  89.1292797  59.7780331
  16.6179580  79.8313490  66.5275159  16.9728968  80.0584964  67.3869625
  17.2651712  80.1631867  65.9052414  22.3477317  82.9531926  57.2324488
  22.2095216  83.1433522  56.3045677  21.9913536  83.7151309  57.6892539
  10.5119444  76.9390021  63.3121500  11.1518823  76.7978781  62.6144463
   9.6796974  76.6524535  62.9360102  22.3746697  85.0208453  62.2435760
  22.8083204  84.9283742  63.0918814  23.0878278  84.9965954  61.6055776
  11.2879747  86.2392452  59.4256493  12.0820346  85.7442772  59.2239068
  10.5771440  85.7110315  59.0624198  16.1074592  88.6210547  63.7768860
  16.1611614  89.1901484  64.5446576  15.2389373  88.7912432  63.4122897
   7.5962511  80.3835534  55.5016245   6.6660099  80.3219989  55.7186207
   7.6919983  79.8611486  54.7052886   7.5148060  76.9090346  58.0894487
   7.7754877  77.8235680  57.9803647   8.3365232  76.4414789  58.2391100
   8.9872985  78.3228104  65.2593311   9.6596039  78.1145466  64.6105960
   8.1602772  78.1250190  64.8198544  23.2362247  85.0632154  64.7768645
  23.4298137  85.9677964  65.0227920  23.1362865  84.6039573  65.6107230
  14.8898557  74.9490045  67.2758972  14.2426472  75.6479994  67.1823449
  15.6599573  75.3826188  67.6435220  18.2977355  85.2138897  70.3509526
  18.1462862  84.9849448  69.4339609  18.2882035  86.1709498  70.3640871
  15.0662692  82.7870809  65.3355792  15.9954752  82.9381969  65.1624759
  14.6453722  82.8754830  64.4804439  13.8651023  86.8121474  63.1054330
  13.7262109  86.4440258  63.9780268  13.0765620  87.3269113  62.9338287
  14.4599175  91.9130570  54.4479866  14.6350931  91.4418614  55.2625489
  13.7731963  92.5396337  54.6761127  15.4156239  86.1903077  60.4943167
  15.0806071  86.1503847  61.3900817  14.9160184  85.5247793  60.0213578
   9.3900483  81.5970707  66.0195749   9.2520280  80.8650945  66.6207288
  10.3005406  81.5079607  65.7379936  18.3515430  83.5359111  50.7680227
  17.7344601  82.8105939  50.6713280  17.8831919  84.2968471  50.4247301
  12.0182783  81.3090666  65.5079428  12.7282402  80.6683858  65.4666047
  11.9752091  81.5603561  66.4305609  20.0069562  88.2458019  68.4286007
  19.9482108  87.5617239  67.7616590  20.4089080  88.9877009  67.9766633
  10.7311717  78.2955884  67.3275068  10.1949074  77.8446622  67.9796664
  10.1428426  78.4301793  66.5845532   9.0260261  95.0619933  61.2219726
   9.2656859  95.6938457  61.8998745   8.1829457  94.7107973  61.5085086
  10.1413976  77.7544535  49.8901531   9.2643442  77.6333336  49.5263778
  10.6171729  76.9630614  49.6380420  20.0086969  86.2097603  66.6599987
  19.1213748  85.8723525  66.7826386  20.5785520  85.4780634  66.8968753
   1.6616116  82.5421695  59.9843038   2.3487156  82.2283425  59.3964054
   1.5064245  83.4463060  59.7110290   6.4650838  77.4311892  64.4128062
   6.3809027  76.8237561  63.6778472   5.6433545  77.9220910  64.4137559
  13.5388123  90.8699056  63.6261230  13.4658294  91.6754027  64.1380535
  13.0965516  91.0691021  62.8009252  13.3277902  90.1070826  57.1364052
  12.5445424  90.6492506  57.2302276  14.0270647  90.6244805  57.5358293
  16.6374552  75.9165455  59.7798257  17.1343252  75.1635417  59.4599327
  15.8661534  75.9529772  59.2141467  24.4904310  81.6205821  61.4216549
  24.4794186  82.5030536  61.0510482  23.6221689  81.2677371  61.2271086
  15.9986806  90.7685890  65.7819389  16.7114778  91.4033354  65.7095290
  15.5076835  90.8649756  64.9659391  17.7204333  84.6737142  57.3536681
  16.7860612  84.7938605  57.1841385  17.8981001  83.7709609  57.0896690
  13.2209521  78.0582838  59.5069942  12.8507309  77.5053878  60.1950847
  13.7168614  77.4540972  58.9544942  21.1076884  80.5154462  57.8886715
  21.5737337  81.3482453  57.8147017  21.5584385  80.0499443  58.5931973
  11.0498720  88.5180333  66.6024960  11.7508179  89.1516816  66.7554354
  10.5793835  88.8595065  65.8420599  19.1753115  86.8598283  54.8872867
  19.4512959  86.7454877  55.7966741  18.3057614  86.4615768  54.8485040
  19.0793547  72.8835049  61.9277616  18.1656627  73.1139275  62.0959823
  19.5086649  72.9673493  62.7791648  18.8500006  81.0724941  64.4277510
  18.1971456  81.3200848  63.7729963  19.2280385  80.2589079  64.0939987
  15.8107179  91.1084634  58.5305680  15.9929574  90.2906290  58.9933433
  16.6340165  91.3252326  58.0930570  16.1449345  90.0352819  55.7920729
  16.6737111  89.5245273  55.1790891  16.4077565  89.7195349  56.6566262
  14.8987579  81.8144752  70.9143547  14.2228216  81.7138881  71.5845922
  15.7215212  81.6583965  71.3779544   6.6466438  88.0516688  63.5356062
   7.2319875  87.3060376  63.6683967   6.4491276  88.3620645  64.4192726
   9.5005093  91.0867936  58.5518505   8.8315468  91.5714063  58.0682545
   9.3617963  91.3337156  59.4661883   1.2384092  80.6222288  62.2560506
   1.2768192  80.0885879  63.0497624   0.7324385  80.0957494  61.6371483
  13.6410361  93.1211679  65.1501163  14.1928670  93.2843301  65.9150248
  13.9816555  93.7116117  64.4781188   8.6174855  75.4686829  65.7523048
   8.6816181  76.3301660  65.3400446   8.5541975  74.8560830  65.0195406
   8.0927127  77.5409961  69.3996082   8.7199166  77.1587039  70.0133607
   7.2355046  77.3224163  69.7651775  18.4921236  87.9472937  71.0049818
  19.0361140  88.5602895  70.5104772  17.9108081  88.5052515  71.5216831
   4.8692670  79.3486390  55.3314437   5.1646111  78.4397069  55.2781491
   3.9680706  79.3274130  55.0095439  16.7778749  91.0693655  62.1364845
  16.6529888  90.2683394  61.6275791  17.4357840  91.5639848  61.6478815
   8.3986917  77.4242387  61.3141986   7.6773503  78.0378355  61.1749459
   9.1880173  77.9600152  61.2358632  18.8413657  88.8702675  63.7644395
  17.8943993  88.7508026  63.6922722  19.1896430  87.9825173  63.8470657
  11.2013231  74.7596814  67.5882637  11.7247632  75.0059110  68.3508947
  10.9825564  75.5916848  67.1685775   6.5980512  77.0300488  55.4553762
   6.2693218  76.1497867  55.2728868   6.9519882  76.9748157  56.3430151
  15.8460090  88.6655391  59.9648748  15.6985053  87.7372098  60.1456318
  16.6713584  88.6875482  59.4805823   9.7122335  77.3173458  55.8229240
  10.0518407  77.8459379  55.1007848  10.1594455  77.6553864  56.5987806
  19.4494212  89.4883950  61.0513620  20.3740760  89.2826811  60.9138072
  19.2809516  89.2400351  61.9602962  12.4065776  75.7010509  65.2732308
  12.0662596  74.9018322  65.6752988  11.7004782  76.0012220  64.7009141
  13.0582247  72.7859821  63.7259631  13.8808317  72.3120299  63.6038521
  13.3020311  73.5650305  64.2258317  11.6990482  75.8148080  54.0222533
  12.4198844  76.1929332  53.5186249  11.0755786  76.5336956  54.1257511
  15.8421605  76.5193229  54.9580865  16.0585219  77.4017866  54.6569693
  15.3615672  76.1279442  54.2286507  10.5820826  79.4778942  61.5351610
  10.4365407  79.7919245  62.4275891  10.1046030  80.0963842  60.9822508
  12.4417209  76.4681490  61.5832499  12.4278778  75.5722583  61.2464797
  13.1589637  76.4752153  62.2170785  14.2943340  76.9018830  63.6285627
  14.0361118  77.8235901  63.6269957  13.7628380  76.5049264  64.3186091
  19.2389529  90.0069617  56.4075712  19.4126406  89.4416040  55.6549564
  19.7318420  90.8070512  56.2255202   5.0566488  82.0184286  64.4739271
   4.5119956  82.7944094  64.6059545   5.9345838  82.3655091  64.3158392
  11.8454105  75.3495870  56.8520069  11.9670016  74.4212516  57.0510957
  11.5556147  75.3634556  55.9398385  14.7145295  73.0350780  59.9886789
  14.7366992  73.0990114  59.0338769  15.1313354  72.1955289  60.1827295
  25.0928920  82.7706040  58.0266012  25.5360066  82.0213365  57.6285135
  24.2155430  82.7616176  57.6439744  20.2264701  89.3236381  53.5072610
  20.9215606  89.9443074  53.7259925  20.5687851  88.4731733  53.7824988
   5.8432510  81.1454182  67.3669428   5.1014246  81.2936818  67.9534058
   5.5225254  81.4062448  66.5036177  22.1256124  86.7736087  55.0359941
  22.6507448  87.1123360  54.3109261  22.0378477  85.8383102  54.8523076
  13.7876173  90.6870161  67.1649818  14.0963299  90.4419307  68.0372517
  14.5851655  90.8916799  66.6768688  13.8096785  92.8408070  59.3955194
  13.3701775  92.3484449  60.0888051  14.5604902  92.2981038  59.1547269
   6.2889124  89.0319611  59.3979822   7.1147144  88.7323383  59.0178466
   5.9383176  88.2627234  59.8469611  11.2570657  88.3846079  61.4677496
  10.6350666  87.7216784  61.1679724  11.9275524  88.4107211  60.7851144
   4.4897729  86.9505938  60.3568756   3.6529637  86.5228112  60.1752757
   4.4621374  87.1438381  61.2939547  11.3295185  76.8627867  71.0610002
  11.3783340  77.7389990  70.6787771  11.8717699  76.3205260  70.4881645
  21.8150030  87.4068991  70.3411139  21.0245574  87.3893129  69.8015638
  21.5783385  87.9457284  71.0960175  21.9347905  84.2561457  67.6543867
  21.9845910  84.0911464  68.5959390  21.8261829  83.3888716  67.2641748
  10.8184164  86.9350003  54.9435956  10.9672284  87.6185467  54.2902629
  11.6250607  86.9155093  55.4585412  19.2251668  80.2392385  68.9703174
  20.1261530  80.0998850  68.6787172  19.2999642  80.4046840  69.9101352
  13.5594473  77.6159240  67.8156360  12.6897782  77.9092806  67.5438949
  13.7953953  78.1999685  68.5363624  23.4366102  86.6758398  67.8985889
  23.1450910  87.0388379  68.7349350  22.8238233  85.9625407  67.7199221
  24.6361784  84.2411278  60.4188459  25.4708676  84.6801082  60.5826020
  24.7720913  83.7649931  59.5996705  21.6853290  81.7991013  66.3665947
  22.1607412  81.9918659  65.5584798  20.7618856  81.8550199  66.1209331
   8.5736797  82.9615180  55.9497025   8.3282839  82.0577510  56.1477235
   8.7432711  82.9632331  55.0076503  16.2633507  73.8338857  65.3321781
  16.7815451  74.5699884  65.0068269  15.9088640  74.1402850  66.1668540
   7.8432444  78.6943538  53.4483187   7.1501689  78.7687893  52.7923223
   7.5984196  77.9303882  53.9704704  16.5146101  70.2539139  60.8522677
  16.7947855  69.5862328  61.4783104  17.2996708  70.4468235  60.3397341
  14.3179569  89.4298133  52.4147704  13.7453537  90.0488320  51.9618176
  14.8912363  89.9797495  52.9487626  20.3854959  78.6756773  64.5994253
  21.3372382  78.7754871  64.6206477  20.2158410  77.8835042  65.1092337
  18.4069339  75.7612356  64.7853654  17.8119271  76.0417369  64.0900142
  18.1219035  76.2506257  65.5570395  17.5376829  89.7135283  53.5456286
  18.4707502  89.6480845  53.7489162  17.4500042  90.5491550  53.0870819
  20.1664846  89.0301154  50.5060234  20.0878477  88.6961017  51.3995992
  20.9874513  89.5222922  50.5051706  22.8643037  81.8962893  63.7136552
  22.8319357  80.9578894  63.8996236  23.4743661  81.9746930  62.9802377
  14.7026368  80.7658946  49.7563756  15.6485473  80.6365154  49.8252174
  14.3240613  80.0273608  50.2333184  23.0137526  78.6873936  63.7594835
  22.4976574  77.9032393  63.5724764  23.8977474  78.3592653  63.9241355
  20.6748252  72.4314952  59.7190648  20.4773074  72.1230040  60.6033980
  21.2847958  73.1576591  59.8488578  28.6819587  82.9578900  62.8542589
  29.4122975  82.6964188  63.4150292  28.0726532  82.2207622  62.8944657
  26.7634884  81.0986762  63.4517040  26.0368048  80.9642727  62.8433532
  26.3482171  81.4063591  64.2573758  14.5865060  84.8176692  71.2164413
  15.5068070  84.9955291  71.4104460  14.5514644  83.8732737  71.0644113
  12.8869285  78.6908922  49.6918641  11.9800740  78.3942035  49.7681355
  13.1645266  78.3938740  48.8252928   3.8047225  80.0115286  60.1417688
   3.4850010  79.1580594  59.8492062   3.2580654  80.2263864  60.8975655
   7.5827133  82.7277727  63.8587194   7.8013143  83.6594834  63.8775228
   7.9952907  82.3685701  64.6441998  14.5031351  73.2345812  55.8462883
  13.6932079  72.8892897  56.2218129  15.1915768  72.9253356  56.4350494
  16.4321899  72.3123859  57.4687179  16.9852938  72.7319312  58.1277203
  16.6691985  71.3859607  57.5110135  12.4554998  78.3010932  73.2489943
  12.3551725  79.2505289  73.1802034  12.2376540  77.9729171  72.3766013
  11.6568070  75.5495857  49.8330621  12.5187234  75.8750756  50.0926438
  11.8418414  74.7627353  49.3203686   3.6735485  83.6318197  62.1110809
   2.9798957  83.2172150  61.5980764   4.4208476  83.6738734  61.5144228
  19.8100706  74.4224384  56.9765844  19.2299375  75.0809188  56.5943896
  19.5436639  73.6001729  56.5653261  18.2604273  73.8229442  59.1787164
  18.7604051  73.9345976  58.3701483  18.9039880  73.5190494  59.8187972
  12.3186268  81.7308071  72.0655005  11.8353350  82.5308431  72.2718894
  12.4047207  81.7416016  71.1122449   5.5872228  83.5636451  59.9876824
   5.5642916  83.6624138  59.0358707   5.8972865  84.4101602  60.3093990
   8.2459606  85.6212606  64.1023439   9.2002859  85.5896548  64.0353370
   8.0472129  85.1603230  64.9173665   8.8358988  84.1913722  66.6694236
   9.6551877  84.6857801  66.6929074   9.1095796  83.2745690  66.6411804
  18.5925584  76.5824474  56.0322192  17.7051439  76.8674125  55.8142387
  19.0079573  76.4218238  55.1849469  21.9440120  76.6070995  59.7476531
  22.7200510  77.0967448  60.0201148  21.2188255  77.0329050  60.2048401
  24.3812679  77.3198615  60.8050472  24.9757170  77.0794350  60.0943780
  24.4539263  76.6005745  61.4324008   6.6009835  91.1632225  61.1193637
   6.4664303  90.4032626  60.5531635   6.1841897  91.8873125  60.6522426
  17.7368798  86.3469149  50.1270212  18.4404648  86.5519151  50.7427868
  17.0131446  86.9145911  50.3919295  18.5666608  82.0979010  56.2472482
  18.5101809  82.5547562  55.4080115  19.1194950  81.3369695  56.0695325
  22.3771414  77.8868742  57.0722602  22.1208348  77.4865378  57.9030809
  21.7524282  78.6012536  56.9472741  26.6883752  80.6264815  59.5793893
  26.1283310  80.6958005  60.3525455  26.0827255  80.4505800  58.8593389
   9.7578961  92.0601542  61.3312079   9.6411345  93.0046975  61.2290770
   8.9371407  91.7575104  61.7197878  19.6455495  86.7851678  52.1768672
  20.4801099  86.3532877  51.9946147  19.4839838  86.6133692  53.1045566
  19.3001387  83.2883792  53.5425011  19.2450191  83.1228063  52.6013455
  18.6747443  83.9959824  53.6987201   4.0893902  78.5251856  67.3686433
   4.7352766  78.0150810  67.8573659   3.8811053  79.2620538  67.9429859
  16.6147294  85.5932703  72.8678574  17.4838454  85.7673356  72.5065209
  16.1354046  86.4127120  72.7454303  12.6097513  72.7891901  53.1210330
  12.5976183  73.7333740  53.2778601  13.5020935  72.6062046  52.8269791
  10.7833475  92.7129804  64.5468008  11.6860721  92.7453415  64.8634503
  10.5570845  91.7830255  64.5614344  12.5387077  91.4660791  61.2078086
  11.5882708  91.4662653  61.0942459  12.8419563  90.7193525  60.6914121
  16.4249632  69.3834677  57.3756266  15.6582028  68.8293164  57.5212949
  16.8360337  69.4556546  58.2370418   8.4291393  75.6719473  71.4661448
   9.2922855  75.3156278  71.6764772   7.8556804  75.3333368  72.1536852
  28.2739770  97.3021329  62.2723849  28.9118180  97.1828077  61.5687189
  28.1560613  98.2502173  62.3311801  25.0829476  97.2548757  62.2085373
  24.7447988  97.1389822  61.3205908  25.9519245  96.8539923  62.1886380
  20.9416292  99.1084234  58.1982264  20.3781157  99.0174171  57.4298552
  20.8268687  98.2884138  58.6784757  25.5649259  98.4083609  68.1671579
  25.5537900  98.0136407  67.2952083  25.7269899  97.6749682  68.7605350
  18.4880724 100.6035425  61.0366485  19.2802016 100.2626250  60.6212784
  18.7277374 100.7130400  61.9568638  26.5215851 102.7755202  53.5096729
  25.8703831 103.3609282  53.1230743  27.3160214 103.3061396  53.5691767
  20.4471478  99.8644339  53.9083864  21.2202354  99.3173326  53.7696739
  20.7996877 100.7288588  54.1198325  22.2856521 101.1920721  67.1150763
  21.9946387 102.0966352  66.9997429  22.9213505 101.2337249  67.8294833
  23.2112727  98.5697569  63.7052123  23.8076300  98.3453592  62.9909086
  23.2687699  97.8282315  64.3077570  22.7837756  96.0237005  51.5402314
  23.0363277  95.5018526  50.7785777  21.8462315  95.8603150  51.6428997
  27.8281039  95.0272783  59.3477057  28.6144128  94.6092206  58.9967474
  28.0919743  95.9318875  59.5158705  27.9991116 100.4645633  54.0465714
  27.3636949 100.5380260  54.7586618  27.6688522 101.0539232  53.3684793
  33.2289466  94.9648016  60.2510035  33.9614638  94.3947233  60.4847865
  32.4728822  94.5769617  60.6916541  22.5034045  97.9265111  53.7426689
  22.3870303  97.2510014  54.4107773  22.6136304  97.4397485  52.9258842
  24.8465586  97.3875258  57.4473378  24.4823793  96.8605879  58.1586299
  25.7032701  96.9973727  57.2739863  30.7514886  88.6769590  64.7104644
  30.4198211  89.5465001  64.4865859  30.1560500  88.3605874  65.3898674
  24.4871073  92.4165158  52.4434726  24.6545475  93.2845394  52.8105197
  24.2968242  92.5792439  51.5196016  27.2446406 100.8782136  64.1100557
  26.9447129 101.7807175  64.0016364  26.8997465 100.6114320  64.9621710
  20.6958887  97.3295933  60.1437261  19.7709384  97.1972147  60.3514953
  20.9443300  98.1090153  60.6407203  30.6443549  93.3964677  61.7897994
  29.7360427  93.3280085  61.4956755  30.5931145  93.8736622  62.6179819
  24.4660293  94.8722815  53.4281393  24.3459919  95.3179866  54.2666873
  23.7712882  95.2208133  52.8694931  18.0567698  96.9729207  60.9781050
  18.1860079  97.2263686  61.8920462  17.3765150  97.5656915  60.6585705
  22.2267185 107.6426457  57.0771524  22.1491215 108.5934282  57.1560005
  21.6228829 107.2972329  57.7346451  24.7184415  94.8154322  69.7332891
  23.9417749  95.3748242  69.7235756  25.3574978  95.3011105  70.2547761
  32.5105196  91.5981115  63.5675868  31.8679576  91.8913648  62.9215662
  32.0060124  91.4834035  64.3729065  30.1645360  95.3444288  54.2561727
  31.0763216  95.5771675  54.0809425  29.6555007  95.9281332  53.6936806
  22.9730788  97.6239776  69.2950858  23.7145472  98.1624820  69.0185682
  22.2667773  98.2506064  69.4522410  28.4486127  99.7668916  67.8923020
  28.8569483  99.3251327  67.1477652  27.7263389  99.1921544  68.1457213
  24.8017197  94.7041523  65.2656577  25.6478392  95.1280936  65.4091226
  24.7415835  94.0475147  65.9595140  28.7714942 100.3270107  61.6475309
  28.1423804 100.4915821  60.9451376  28.3840604 100.7411716  62.4186273
  32.6504174 101.2624545  59.0019672  31.9655212 101.6423446  58.4516706
  32.7348023 101.8719871  59.7351620  27.9516643  92.3645891  66.9237750
  27.7077574  93.1187952  66.3872026  28.2276573  92.7431239  67.7584997
  29.9055105  98.9084504  65.6015016  30.1172001  99.5516263  64.9249397
  29.8584854  98.0746820  65.1336946  27.5081334  91.5202324  62.5051588
  26.6465813  91.8183578  62.7968326  27.5343769  91.7372723  61.5732621
  24.3242904 100.0644515  58.9125394  24.7881249 100.3432218  58.1230016
  24.0599702  99.1627959  58.7298484  21.2166985  99.6115996  61.8505157
  21.7868342 100.0403265  61.2122641  21.8075097  99.3298581  62.5489343
  23.2611790  96.1867667  55.7214959  23.9635833  96.6388711  56.1888885
  22.9292418  95.5451486  56.3494852  21.7092151  94.7779424  70.0966168
  21.0790812  95.4595705  70.3301565  21.6028239  94.6662505  69.1519306
  17.0037124  94.4451220  61.0232092  16.2136178  94.7008748  60.5472203
  17.4948371  95.2599558  61.1284133  31.0200933 101.7856459  63.7737373
  31.8418377 101.3836646  63.4920055  31.0163336 101.6824693  64.7253489
  18.9551869  94.8095799  57.9815569  18.1583032  94.9214493  58.4999065
  18.7277461  95.1482451  57.1156460  24.7857537 101.3340502  65.9298084
  24.8501969 101.7960910  66.7656256  24.0768461 100.7037867  66.0580394
  15.2874827  94.6981710  63.4547083  15.5382865  95.5828720  63.7204659
  15.8234375  94.5186312  62.6822175  39.1106926  98.1295207  60.1222345
  38.3570635  97.5602606  59.9666349  39.2454468  98.0957872  61.0692979
  24.5005554 103.0008610  55.7977064  24.3651229 103.8460145  56.2261912
  25.0415367 103.2027887  55.0342998  20.9872894  89.0800190  72.4591419
  20.5939840  88.5266388  73.1339064  21.8039034  89.3910768  72.8497937
  17.9534952 100.5184048  56.3704989  18.4659472 101.3127298  56.5210554
  18.6057665  99.8210338  56.3038591  19.7629836 103.6349804  58.4527742
  19.9396465 104.5567769  58.2648726  20.5586670 103.3208223  58.8822122
  23.9040855  90.4958069  70.0511676  24.6450568  91.0965222  69.9716138
  24.1358778  89.7535706  69.4929718  19.0482193  95.6814436  68.3289906
  18.9335708  94.7799693  68.6297004  18.1926711  95.9278133  67.9774722
  26.1274031 103.6232176  69.9277406  25.6837885 102.8368555  69.6098311
  26.7891244 103.8111327  69.2621297  20.8861152 105.1527978  64.4538085
  21.4368577 105.0245041  63.6815079  20.0472628 105.4522867  64.1032977
  28.2255269 103.9034976  67.9558807  28.2073744 104.7243857  67.4639077
  29.1475189 103.7789051  68.1808949  24.6828323 101.4179106  68.7982316
  25.2156660 100.6567394  68.5681624  24.1542404 101.1252757  69.5406470
  27.8498018  86.5239172  64.3275958  27.5062287  87.4140813  64.2515068
  28.2176981  86.3340829  63.4645543  15.9183869  98.8472702  57.1464560
  16.7559091  99.2569710  56.9298267  16.0962136  97.9072144  57.1164754
  27.8148301  96.5147783  52.8348393  27.2994924  97.2852387  53.0736780
  27.5425609  95.8412919  53.4581454  25.3995412  91.3597484  57.8933631
  24.5437008  90.9704334  57.7139270  25.8122363  91.4389444  57.0333417
  26.9294558  88.8943827  62.2925191  26.4259354  88.8573962  61.4792996
  27.2225165  89.8036570  62.3521847  23.1737444  88.9782557  61.2991373
  24.0390441  88.7825365  60.9397262  23.2414953  88.7492908  62.2260729
  32.7882575  99.2680137  54.7701566  32.0112018  98.9291297  54.3256728
  33.4674056  99.2732761  54.0956531  27.6034604  94.3874875  54.6608174
  27.2984739  94.7021024  55.5118317  28.5565046  94.4656295  54.7035507
  26.0481036 100.5465098  56.3101128  25.5202397  99.8117858  55.9974365
  25.5468538 101.3239775  56.0641096  31.0273882  98.7414119  61.4268174
  30.3697556  99.4313380  61.5148303  31.8314281  99.1310551  61.7702160
  20.7799763  91.2084764  58.6707739  21.3543515  90.9859946  57.9380932
  21.3670746  91.2773459  59.4236341  29.8379341  97.0958491  59.4772116
  30.3511222  97.7288483  59.9793826  30.4880564  96.4959687  59.1115476
  21.1069350  93.2389225  52.6903625  20.2706663  93.5763912  53.0112899
  20.9674120  93.1038205  51.7530762  23.0822431  88.0826013  57.3982809
  22.4286843  87.7675031  56.7739424  23.0402905  87.4601754  58.1242632
  24.1933636  98.3645308  49.3136101  23.2860698  98.1334562  49.5127250
  24.6904668  97.5682928  49.5010082  27.1001715 107.0742816  52.2332787
  26.4263414 107.3774512  52.8417745  27.4867537 107.8771896  51.8838244
  26.3160171  94.5707947  61.7230456  25.3982733  94.7922894  61.5652144
  26.7320315  94.6454257  60.8642164  27.0995219  95.9699363  56.8533137
  27.8467038  96.4820760  56.5440259  27.3686809  95.6483415  57.7137530
  25.3721869  98.4657903  53.8360091  24.4633089  98.1816936  53.9332561
  25.4016953  98.8856982  52.9763398  30.6041137 102.0764493  57.6051258
  30.1503464 101.2355403  57.6616449  29.9735103 102.7125891  57.9426039
  29.5474056  93.0056479  58.8351926  28.8096813  92.4933865  59.1662168
  29.8000830  92.5656860  58.0235203  29.0474076 103.9140989  58.5401077
  29.3397050 104.4746047  57.8213442  29.5572697 104.2069550  59.2954236
  29.6485684  85.7832731  59.4293695  29.9544560  84.9230094  59.1419610
  30.3738288  86.3750351  59.2292689  15.9410040  96.1863417  57.8175293
  15.7434440  95.5932778  57.0926360  15.3856704  95.8815628  58.5351232
  23.9206763  96.0786524  59.9369886  23.9755373  95.1260360  59.8612363
  23.1097965  96.2345963  60.4211185  25.0697957 100.0066647  51.1748169
  24.6317387  99.2902506  50.7153807  25.8108398 100.2342762  50.6133261
  21.8599123  94.6963584  57.6960265  21.0466989  94.9957754  58.1025457
  22.3558117  94.3019272  58.4134747  24.0107701 104.6921341  59.6294530
  23.9683880 104.9182187  58.7003062  24.9270400 104.4584715  59.7780331
  27.4573335  95.1605408  66.5275159  27.8122723  95.3876881  67.3869625
  28.1045466  95.4923785  65.9052414  33.1871072  98.2823844  57.2324488
  33.0488970  98.4725440  56.3045677  32.8307291  99.0443227  57.6892539
  21.3513198  92.2681939  63.3121500  21.9912577  92.1270698  62.6144463
  20.5190729  91.9816453  62.9360102  33.2140452 100.3500371  62.2435760
  33.6476958 100.2575660  63.0918814  33.9272032 100.3257871  61.6055776
  22.1273502 101.5684370  59.4256493  22.9214100 101.0734690  59.2239068
  21.4165194 101.0402233  59.0624198  26.9468346 103.9502465  63.7768860
  27.0005369 104.5193401  64.5446576  26.0783128 104.1204350  63.4122897
  18.4356265  95.7127451  55.5016245  17.5053854  95.6511907  55.7186207
  18.5313737  95.1903404  54.7052886  18.3541814  92.2382264  58.0894487
  18.6148632  93.1527597  57.9803647  19.1758987  91.7706707  58.2391100
  19.8266740  93.6520021  65.2593311  20.4989793  93.4437383  64.6105960
  18.9996526  93.4542107  64.8198544  34.0756001 100.3924072  64.7768645
  34.2691891 101.2969882  65.0227920  33.9756619  99.9331491  65.6107230
  25.7292312  90.2781962  67.2758972  25.0820227  90.9771912  67.1823449
  26.4993327  90.7118106  67.6435220  29.1371110 100.5430814  70.3509526
  28.9856616 100.3141366  69.4339609  29.1275789 101.5001416  70.3640871
  25.9056446  98.1162727  65.3355792  26.8348506  98.2673887  65.1624759
  25.4847476  98.2046748  64.4804439  24.7044778 102.1413392  63.1054330
  24.5655864 101.7732176  63.9780268  23.9159374 102.6561031  62.9338287
  25.2992930 107.2422488  54.4479866  25.4744686 106.7710531  55.2625489
  24.6125718 107.8688254  54.6761127  26.2549993 101.5194994  60.4943167
  25.9199826 101.4795764  61.3900817  25.7553939 100.8539710  60.0213578
  20.2294237  96.9262624  66.0195749  20.0914035  96.1942863  66.6207288
  21.1399161  96.8371524  65.7379936  29.1909185  98.8651029  50.7680227
  28.5738355  98.1397857  50.6713280  28.7225673  99.6260389  50.4247301
  22.8576538  96.6382584  65.5079428  23.5676156  95.9975776  65.4666047
  22.8145846  96.8895478  66.4305609  30.8463316 103.5749937  68.4286007
  30.7875863 102.8909157  67.7616590  31.2482835 104.3168927  67.9766633
  21.5705472  93.6247802  67.3275068  21.0342829  93.1738540  67.9796664
  20.9822180  93.7593710  66.5845532  19.8654015 110.3911851  61.2219726
  20.1050613 111.0230375  61.8998745  19.0223212 110.0399891  61.5085086
  20.9807731  93.0836453  49.8901531  20.1037197  92.9625254  49.5263778
  21.4565484  92.2922531  49.6380420  30.8480724 101.5389521  66.6599987
  29.9607502 101.2015443  66.7826386  31.4179275 100.8072552  66.8968753
  12.5009871  97.8713613  59.9843038  13.1880911  97.5575343  59.3964054
  12.3457999  98.7754977  59.7110290  17.3044593  92.7603809  64.4128062
  17.2202782  92.1529479  63.6778472  16.4827299  93.2512828  64.4137559
  24.3781877 106.1990973  63.6261230  24.3052049 107.0045945  64.1380535
  23.9359270 106.3982939  62.8009252  24.1671657 105.4362743  57.1364052
  23.3839179 105.9784423  57.2302276  24.8664402 105.9536723  57.5358293
  27.4768307  91.2457373  59.7798257  27.9737006  90.4927335  59.4599327
  26.7055288  91.2821689  59.2141467  35.3298064  96.9497738  61.4216549
  35.3187940  97.8322454  61.0510482  34.4615444  96.5969289  61.2271086
  26.8380561 106.0977807  65.7819389  27.5508533 106.7325272  65.7095290
  26.3470589 106.1941673  64.9659391  28.5598087 100.0029060  57.3536681
  27.6254366 100.1230522  57.1841385  28.7374756  99.1001527  57.0896690
  24.0603276  93.3874756  59.5069942  23.6901063  92.8345796  60.1950847
  24.5562368  92.7832889  58.9544942  31.9470639  95.8446379  57.8886715
  32.4131091  96.6774371  57.8147017  32.3978139  95.3791361  58.5931973
  21.8892474 103.8472251  66.6024960  22.5901934 104.4808734  66.7554354
  21.4187589 104.1886982  65.8420599  30.0146870 102.1890201  54.8872867
  30.2906714 102.0746795  55.7966741  29.1451369 101.7907685  54.8485040
  29.9187302  88.2126966  61.9277616  29.0050381  88.4431193  62.0959823
  30.3480403  88.2965410  62.7791648  29.6893760  96.4016858  64.4277510
  29.0365210  96.6492766  63.7729963  30.0674140  95.5880996  64.0939987
  26.6500934 106.4376551  58.5305680  26.8323328 105.6198207  58.9933433
  27.4733920 106.6544244  58.0930570  26.9843099 105.3644737  55.7920729
  27.5130866 104.8537191  55.1790891  27.2471319 105.0487267  56.6566262
  25.7381333  97.1436669  70.9143547  25.0621970  97.0430799  71.5845922
  26.5608967  96.9875883  71.3779544  17.4860192 103.3808606  63.5356062
  18.0713629 102.6352294  63.6683967  17.2885031 103.6912563  64.4192726
  20.3398847 106.4159853  58.5518505  19.6709223 106.9005981  58.0682545
  20.2011717 106.6629074  59.4661883  12.0777847  95.9514206  62.2560506
  12.1161946  95.4177797  63.0497624  11.5718140  95.4249412  61.6371483
  24.4804116 108.4503597  65.1501163  25.0322424 108.6135218  65.9150248
  24.8210309 109.0408035  64.4781188  19.4568609  90.7978747  65.7523048
  19.5209936  91.6593577  65.3400446  19.3935729  90.1852748  65.0195406
  18.9320882  92.8701879  69.3996082  19.5592921  92.4878956  70.0133607
  18.0748801  92.6516081  69.7651775  29.3314990 103.2764854  71.0049818
  29.8754894 103.8894812  70.5104772  28.7501835 103.8344433  71.5216831
  15.7086424  94.6778308  55.3314437  16.0039866  93.7688987  55.2781491
  14.8074460  94.6566048  55.0095439  27.6172503 106.3985572  62.1364845
  27.4923643 105.5975312  61.6275791  28.2751594 106.8931766  61.6478815
  19.2380671  92.7534305  61.3141986  18.5167257  93.3670272  61.1749459
  20.0273927  93.2892070  61.2358632  29.6807412 104.1994592  63.7644395
  28.7337747 104.0799944  63.6922722  30.0290185 103.3117090  63.8470657
  22.0406985  90.0888731  67.5882637  22.5641387  90.3351028  68.3508947
  21.8219318  90.9208766  67.1685775  17.4374266  92.3592406  55.4553762
  17.1086972  91.4789785  55.2728868  17.7913637  92.3040075  56.3430151
  26.6853845 103.9947309  59.9648748  26.5378807 103.0664016  60.1456318
  27.5107338 104.0167399  59.4805823  20.5516089  92.6465376  55.8229240
  20.8912162  93.1751297  55.1007848  20.9988210  92.9845782  56.5987806
  30.2887967 104.8175867  61.0513620  31.2134514 104.6118729  60.9138072
  30.1203270 104.5692268  61.9602962  23.2459530  91.0302426  65.2732308
  22.9056350  90.2310239  65.6752988  22.5398536  91.3304137  64.7009141
  23.8976002  88.1151739  63.7259631  24.7202071  87.6412217  63.6038521
  24.1414065  88.8942223  64.2258317  22.5384236  91.1439997  54.0222533
  23.2592599  91.5221250  53.5186249  21.9149540  91.8628874  54.1257511
  26.6815359  91.8485146  54.9580865  26.8978974  92.7309784  54.6569693
  26.2009426  91.4571360  54.2286507  21.4214581  94.8070859  61.5351610
  21.2759161  95.1211162  62.4275891  20.9439784  95.4255760  60.9822508
  23.2810964  91.7973407  61.5832499  23.2672532  90.9014501  61.2464797
  23.9983392  91.8044071  62.2170785  25.1337094  92.2310748  63.6285627
  24.8754872  93.1527818  63.6269957  24.6022135  91.8341182  64.3186091
  30.0783283 105.3361535  56.4075712  30.2520161 104.7707957  55.6549564
  30.5712174 106.1362430  56.2255202  15.8960243  97.3476204  64.4739271
  15.3513711  98.1236012  64.6059545  16.7739593  97.6947008  64.3158392
  22.6847859  90.6787788  56.8520069  22.8063771  89.7504434  57.0510957
  22.3949902  90.6926474  55.9398385  25.5539050  88.3642698  59.9886789
  25.5760747  88.4282031  59.0338769  25.9707109  87.5247207  60.1827295
  35.9322674  98.0997958  58.0266012  36.3753820  97.3505283  57.6285135
  35.0549184  98.0908094  57.6439744  31.0658455 104.6528299  53.5072610
  31.7609360 105.2734992  53.7259925  31.4081606 103.8023650  53.7824988
  16.6826265  96.4746100  67.3669428  15.9408001  96.6228735  67.9534058
  16.3619009  96.7354366  66.5036177  32.9649879 102.1028005  55.0359941
  33.4901203 102.4415277  54.3109261  32.8772231 101.1675020  54.8523076
  24.6269927 106.0162078  67.1649818  24.9357054 105.7711225  68.0372517
  25.4245409 106.2208717  66.6768688  24.6490539 108.1699988  59.3955194
  24.2095530 107.6776367  60.0888051  25.3998656 107.6272956  59.1547269
  17.1282878 104.3611529  59.3979822  17.9540898 104.0615301  59.0178466
  16.7776930 103.5919151  59.8469611  22.0964412 103.7137997  61.4677496
  21.4744421 103.0508702  61.1679724  22.7669278 103.7399129  60.7851144
  15.3291483 102.2797855  60.3568756  14.4923392 101.8520030  60.1752757
  15.3015129 102.4730299  61.2939547  22.1688939  92.1919785  71.0610002
  22.2177094  93.0681908  70.6787771  22.7111453  91.6497178  70.4881645
  32.6543785 102.7360908  70.3411139  31.8639328 102.7185047  69.8015638
  32.4177139 103.2749202  71.0960175  32.7741660  99.5853375  67.6543867
  32.8239665  99.4203382  68.5959390  32.6655583  98.7180634  67.2641748
  21.6577918 102.2641920  54.9435956  21.8066039 102.9477385  54.2902629
  22.4644362 102.2447010  55.4585412  30.0645422  95.5684303  68.9703174
  30.9655285  95.4290768  68.6787172  30.1393397  95.7338758  69.9101352
  24.3988227  92.9451157  67.8156360  23.5291537  93.2384723  67.5438949
  24.6347708  93.5291602  68.5363624  34.2759857 102.0050316  67.8985889
  33.9844665 102.3680297  68.7349350  33.6631988 101.2917324  67.7199221
  35.4755539  99.5703196  60.4188459  36.3102430 100.0093000  60.5826020
  35.6114668  99.0941849  59.5996705  32.5247045  97.1282931  66.3665947
  33.0001166  97.3210577  65.5584798  31.6012610  97.1842117  66.1209331
  19.4130551  98.2907098  55.9497025  19.1676593  97.3869428  56.1477235
  19.5826466  98.2924248  55.0076503  27.1027261  89.1630774  65.3321781
  27.6209205  89.8991801  65.0068269  26.7482394  89.4694768  66.1668540
  18.6826199  94.0235456  53.4483187  17.9895444  94.0979811  52.7923223
  18.4377951  93.2595799  53.9704704  27.3539855  85.5831057  60.8522677
  27.6341609  84.9154246  61.4783104  28.1390462  85.7760153  60.3397341
  25.1573324 104.7590051  52.4147704  24.5847291 105.3780238  51.9618176
  25.7306118 105.3089412  52.9487626  31.2248714  94.0048691  64.5994253
  32.1766137  94.1046789  64.6206477  31.0552164  93.2126959  65.1092337
  29.2463093  91.0904274  64.7853654  28.6513025  91.3709287  64.0900142
  28.9612790  91.5798175  65.5570395  28.3770584 105.0427201  53.5456286
  29.3101257 104.9772763  53.7489162  28.2893797 105.8783468  53.0870819
  31.0058600 104.3593071  50.5060234  30.9272232 104.0252935  51.3995992
  31.8268267 104.8514839  50.5051706  33.7036792  97.2254811  63.7136552
  33.6713112  96.2870811  63.8996236  34.3137415  97.3038847  62.9802377
  25.5420122  96.0950864  49.7563756  26.4879227  95.9657072  49.8252174
  25.1634367  95.3565525  50.2333184  33.8531280  94.0165854  63.7594835
  33.3370329  93.2324311  63.5724764  34.7371229  93.6884571  63.9241355
  31.5142007  87.7606870  59.7190648  31.3166828  87.4521958  60.6033980
  32.1241713  88.4868508  59.8488578  39.5213341  98.2870817  62.8542589
  40.2516730  98.0256106  63.4150292  38.9120287  97.5499539  62.8944657
  37.6028639  96.4278680  63.4517040  36.8761802  96.2934645  62.8433532
  37.1875925  96.7355509  64.2573758  25.4258815 100.1468610  71.2164413
  26.3461824 100.3247209  71.4104460  25.3908398  99.2024655  71.0644113
  23.7263040  94.0200840  49.6918641  22.8194495  93.7233953  49.7681355
  24.0039021  93.7230658  48.8252928  14.6440980  95.3407203  60.1417688
  14.3243764  94.4872512  59.8492062  14.0974408  95.5555781  60.8975655
  18.4220888  98.0569644  63.8587194  18.6406897  98.9886752  63.8775228
  18.8346661  97.6977619  64.6441998  25.3425105  88.5637730  55.8462883
  24.5325834  88.2184815  56.2218129  26.0309522  88.2545273  56.4350494
  27.2715654  87.6415776  57.4687179  27.8246692  88.0611230  58.1277203
  27.5085740  86.7151525  57.5110135  23.2948753  93.6302850  73.2489943
  23.1945480  94.5797207  73.1802034  23.0770295  93.3021089  72.3766013
  22.4961824  90.8787775  49.8330621  23.3580988  91.2042673  50.0926438
  22.6812168  90.0919271  49.3203686  14.5129240  98.9610115  62.1110809
  13.8192711  98.5464068  61.5980764  15.2602231  99.0030651  61.5144228
  30.6494461  89.7516302  56.9765844  30.0693130  90.4101106  56.5943896
  30.3830393  88.9293646  56.5653261  29.0998027  89.1521359  59.1787164
  29.5997805  89.2637894  58.3701483  29.7433635  88.8482412  59.8187972
  23.1580023  97.0599989  72.0655005  22.6747105  97.8600349  72.2718894
  23.2440962  97.0707934  71.1122449  16.4265982  98.8928369  59.9876824
  16.4036671  98.9916056  59.0358707  16.7366619  99.7393519  60.3093990
  19.0853360 100.9504524  64.1023439  20.0396614 100.9188466  64.0353370
  18.8865884 100.4895147  64.9173665  19.6752743  99.5205640  66.6694236
  20.4945631 100.0149718  66.6929074  19.9489550  98.6037608  66.6411804
  29.4319339  91.9116392  56.0322192  28.5445194  92.1966043  55.8142387
  29.8473328  91.7510155  55.1849469  32.7833875  91.9362913  59.7476531
  33.5594265  92.4259365  60.0201148  32.0582009  92.3620967  60.2048401
  35.2206433  92.6490532  60.8050472  35.8150924  92.4086268  60.0943780
  35.2933017  91.9297663  61.4324008  17.4403589 106.4924143  61.1193637
  17.3058057 105.7324544  60.5531635  17.0235651 107.2165043  60.6522426
  28.5762552 101.6761067  50.1270212  29.2798402 101.8811069  50.7427868
  27.8525201 102.2437829  50.3919295  29.4060362  97.4270928  56.2472482
  29.3495564  97.8839479  55.4080115  29.9588705  96.6661613  56.0695325
  33.2165168  93.2160660  57.0722602  32.9602103  92.8157295  57.9030809
  32.5918036  93.9304454  56.9472741  37.5277506  95.9556733  59.5793893
  36.9677064  96.0249922  60.3525455  36.9221010  95.7797718  58.8593389
  20.5972715 107.3893460  61.3312079  20.4805099 108.3338893  61.2290770
  19.7765161 107.0867022  61.7197878  30.4849250 102.1143596  52.1768672
  31.3194854 101.6824794  51.9946147  30.3233592 101.9425610  53.1045566
  30.1395142  98.6175709  53.5425011  30.0843946  98.4519981  52.6013455
  29.5141197  99.3251742  53.6987201  14.9287657  93.8543774  67.3686433
  15.5746520  93.3442728  67.8573659  14.7204808  94.5912455  67.9429859
  27.4541049 100.9224621  72.8678574  28.3232209 101.0965273  72.5065209
  26.9747800 101.7419038  72.7454303  23.4491267  88.1183818  53.1210330
  23.4369937  89.0625658  53.2778601  24.3414689  87.9353964  52.8269791
  21.6227229 108.0421722  64.5468008  22.5254476 108.0745332  64.8634503
  21.3964599 107.1122173  64.5614344  23.3780831 106.7952709  61.2078086
  22.4276462 106.7954570  61.0942459  23.6813317 106.0485443  60.6914121
  27.2643387  84.7126595  57.3756266  26.4975782  84.1585082  57.5212949
  27.6754092  84.7848464  58.2370418  19.2685148  91.0011391  71.4661448
  20.1316609  90.6448195  71.6764772  18.6950558  90.6625285  72.1536852
  39.1133525 112.6313247  62.2723849  39.7511935 112.5119994  61.5687189
  38.9954368 113.5794091  62.3311801  35.9223231 112.5840675  62.2085373
  35.5841742 112.4681740  61.3205908  36.7912999 112.1831840  62.1886380
  31.7810047 114.4376152  58.1982264  31.2174912 114.3466088  57.4298552
  31.6662442 113.6176056  58.6784757  36.4043014 113.7375527  68.1671579
  36.3931655 113.3428325  67.2952083  36.5663653 113.0041599  68.7605350
  29.3274479 115.9327343  61.0366485  30.1195771 115.5918168  60.6212784
  29.5671129 116.0422318  61.9568638  37.3609605 118.1047119  53.5096729
  36.7097585 118.6901200  53.1230743  38.1553968 118.6353314  53.5691767
  31.2865233 115.1936256  53.9083864  32.0596109 114.6465243  53.7696739
  31.6390631 116.0580506  54.1198325  33.1250275 116.5212639  67.1150763
  32.8340141 117.4258269  66.9997429  33.7607259 116.5629166  67.8294833
  34.0506482 113.8989487  63.7052123  34.6470054 113.6745510  62.9909086
  34.1081453 113.1574233  64.3077570  33.6231510 111.3528922  51.5402314
  33.8757031 110.8310444  50.7785777  32.6856069 111.1895068  51.6428997
  38.6674793 110.3564701  59.3477057  39.4537882 109.9384124  58.9967474
  38.9313497 111.2610793  59.5158705  38.8384871 115.7937551  54.0465714
  38.2030703 115.8672178  54.7586618  38.5082277 116.3831150  53.3684793
  44.0683220 110.2939934  60.2510035  44.8008392 109.7239151  60.4847865
  43.3122576 109.9061534  60.6916541  33.3427799 113.2557028  53.7426689
  33.2264057 112.5801932  54.4107773  33.4530059 112.7689402  52.9258842
  35.6859340 112.7167176  57.4473378  35.3217547 112.1897797  58.1586299
  36.5426456 112.3265645  57.2739863  41.5908641 104.0061508  64.7104644
  41.2591965 104.8756919  64.4865859  40.9954254 103.6897792  65.3898674
  35.3264827 107.7457075  52.4434726  35.4939229 108.6137312  52.8105197
  35.1361996 107.9084357  51.5196016  38.0840160 116.2074054  64.1100557
  37.7840883 117.1099093  64.0016364  37.7391220 115.9406237  64.9621710
  31.5352642 112.6587851  60.1437261  30.6103138 112.5264065  60.3514953
  31.7837055 113.4382070  60.6407203  41.4837304 108.7256594  61.7897994
  40.5754181 108.6572003  61.4956755  41.4324900 109.2028539  62.6179819
  35.3054048 110.2014733  53.4281393  35.1853673 110.6471783  54.2666873
  34.6106636 110.5500050  52.8694931  28.8961453 112.3021125  60.9781050
  29.0253834 112.5555603  61.8920462  28.2158904 112.8948833  60.6585705
  33.0660940 122.9718374  57.0771524  32.9884970 123.9226200  57.1560005
  32.4622584 122.6264247  57.7346451  35.5578170 110.1446240  69.7332891
  34.7811504 110.7040160  69.7235756  36.1968733 110.6303023  70.2547761
  43.3498950 106.9273033  63.5675868  42.7073331 107.2205566  62.9215662
  42.8453879 106.8125953  64.3729065  41.0039114 110.6736206  54.2561727
  41.9156970 110.9063593  54.0809425  40.4948761 111.2573250  53.6936806
  33.8124542 112.9531693  69.2950858  34.5539226 113.4916737  69.0185682
  33.1061528 113.5797982  69.4522410  39.2879882 115.0960834  67.8923020
  39.6963238 114.6543244  67.1477652  38.5657143 114.5213461  68.1457213
  35.6410952 110.0333441  65.2656577  36.4872147 110.4572854  65.4091226
  35.5809589 109.3767065  65.9595140  39.6108696 115.6562024  61.6475309
  38.9817559 115.8207738  60.9451376  39.2234358 116.0703634  62.4186273
  43.4897928 116.5916462  59.0019672  42.8048966 116.9715364  58.4516706
  43.5741778 117.2011789  59.7351620  38.7910397 107.6937809  66.9237750
  38.5471329 108.4479869  66.3872026  39.0670328 108.0723156  67.7584997
  40.7448860 114.2376421  65.6015016  40.9565755 114.8808181  64.9249397
  40.6978608 113.4038738  65.1336946  38.3475089 106.8494242  62.5051588
  37.4859568 107.1475495  62.7968326  38.3737523 107.0664641  61.5732621
  35.1636658 115.3936432  58.9125394  35.6275004 115.6724135  58.1230016
  34.8993456 114.4919877  58.7298484  32.0560739 114.9407914  61.8505157
  32.6262096 115.3695182  61.2122641  32.6468851 114.6590499  62.5489343
  34.1005544 111.5159585  55.7214959  34.8029588 111.9680628  56.1888885
  33.7686173 110.8743404  56.3494852  32.5485906 110.1071341  70.0966168
  31.9184566 110.7887622  70.3301565  32.4421994 109.9954423  69.1519306
  27.8430878 109.7743137  61.0232092  27.0529932 110.0300666  60.5472203
  28.3342126 110.5891475  61.1284133  41.8594688 117.1148377  63.7737373
  42.6812132 116.7128564  63.4920055  41.8557091 117.0116611  64.7253489
  29.7945624 110.1387717  57.9815569  28.9976787 110.2506411  58.4999065
  29.5671216 110.4774369  57.1156460  35.6251291 116.6632420  65.9298084
  35.6895724 117.1252827  66.7656256  34.9162215 116.0329785  66.0580394
  26.1268581 110.0273628  63.4547083  26.3776620 110.9120638  63.7204659
  26.6628130 109.8478229  62.6822175  49.9500681 113.4587125  60.1222345
  49.1964389 112.8894523  59.9666349  50.0848222 113.4249790  61.0692979
  35.3399309 118.3300527  55.7977064  35.2044984 119.1752063  56.2261912
  35.8809121 118.5319805  55.0342998  31.8266649 104.4092107  72.4591419
  31.4333594 103.8558306  73.1339064  32.6432789 104.7202686  72.8497937
  28.7928706 115.8475965  56.3704989  29.3053227 116.6419216  56.5210554
  29.4451419 115.1502256  56.3038591  30.6023591 118.9641722  58.4527742
  30.7790219 119.8859686  58.2648726  31.3980425 118.6500141  58.8822122
  34.7434610 105.8249986  70.0511676  35.4844323 106.4257140  69.9716138
  34.9752532 105.0827624  69.4929718  29.8875948 111.0106354  68.3289906
  29.7729463 110.1091611  68.6297004  29.0320465 111.2570050  67.9774722
  36.9667785 118.9524094  69.9277406  36.5231639 118.1660473  69.6098311
  37.6284999 119.1403244  69.2621297  31.7254906 120.4819896  64.4538085
  32.2762332 120.3536959  63.6815079  30.8866382 120.7814785  64.1032977
  39.0649023 119.2326894  67.9558807  39.0467499 120.0535775  67.4639077
  39.9868943 119.1080969  68.1808949  35.5222077 116.7471023  68.7982316
  36.0550414 115.9859312  68.5681624  34.9936159 116.4544675  69.5406470
  38.6891772 101.8531089  64.3275958  38.3456042 102.7432731  64.2515068
  39.0570735 101.6632747  63.4645543  26.7577623 114.1764620  57.1464560
  27.5952845 114.5861628  56.9298267  26.9355891 113.2364062  57.1164754
  38.6542055 111.8439700  52.8348393  38.1388679 112.6144305  53.0736780
  38.3819364 111.1704837  53.4581454  36.2389166 106.6889401  57.8933631
  35.3830763 106.2996252  57.7139270  36.6516118 106.7681362  57.0333417
  37.7688313 104.2235744  62.2925191  37.2653108 104.1865880  61.4792996
  38.0618920 105.1328487  62.3521847  34.0131199 104.3074474  61.2991373
  34.8784196 104.1117283  60.9397262  34.0808708 104.0784826  62.2260729
  43.6276329 114.5972055  54.7701566  42.8505772 114.2583215  54.3256728
  44.3067810 114.6024678  54.0956531  38.4428358 109.7166793  54.6608174
  38.1378494 110.0312942  55.5118317  39.3958800 109.7948212  54.7035507
  36.8874790 115.8757016  56.3101128  36.3596152 115.1409775  55.9974365
  36.3862293 116.6531692  56.0641096  41.8667636 114.0706036  61.4268174
  41.2091311 114.7605298  61.5148303  42.6708035 114.4602468  61.7702160
  31.6193518 106.5376682  58.6707739  32.1937270 106.3151864  57.9380932
  32.2064500 106.6065377  59.4236341  40.6773095 112.4250409  59.4772116
  41.1904977 113.0580401  59.9793826  41.3274319 111.8251605  59.1115476
  31.9463105 108.5681143  52.6903625  31.1100417 108.9055830  53.0112899
  31.8067875 108.4330123  51.7530762  33.9216186 103.4117931  57.3982809
  33.2680598 103.0966948  56.7739424  33.8796660 102.7893671  58.1242632
  35.0327390 113.6937226  49.3136101  34.1254452 113.4626480  49.5127250
  35.5298422 112.8974845  49.5010082  37.9395469 122.4034733  52.2332787
  37.2657168 122.7066430  52.8417745  38.3261291 123.2063814  51.8838244
  37.1553926 109.8999865  61.7230456  36.2376487 110.1214812  61.5652144
  37.5714070 109.9746175  60.8642164  37.9388974 111.2991280  56.8533137
  38.6860793 111.8112677  56.5440259  38.2080563 110.9775333  57.7137530
  36.2115624 113.7949821  53.8360091  35.3026843 113.5108854  53.9332561
  36.2410708 114.2148900  52.9763398  41.4434891 117.4056410  57.6051258
  40.9897218 116.5647320  57.6616449  40.8128858 118.0417809  57.9426039
  40.3867811 108.3348397  58.8351926  39.6490568 107.8225783  59.1662168
  40.6394584 107.8948778  58.0235203  39.8867830 119.2432907  58.5401077
  40.1790805 119.8037964  57.8213442  40.3966451 119.5361468  59.2954236
  40.4879438 101.1124649  59.4293695  40.7938315 100.2522012  59.1419610
  41.2132043 101.7042269  59.2292689  26.7803794 111.5155335  57.8175293
  26.5828194 110.9224696  57.0926360  26.2250458 111.2107545  58.5351232
  34.7600518 111.4078442  59.9369886  34.8149128 110.4552278  59.8612363
  33.9491720 111.5637881  60.4211185  35.9091712 115.3358565  51.1748169
  35.4711142 114.6194424  50.7153807  36.6502152 115.5634679  50.6133261
  32.6992878 110.0255501  57.6960265  31.8860743 110.3249672  58.1025457
  33.1951872 109.6311190  58.4134747  34.8501456 120.0213258  59.6294530
  34.8077634 120.2474105  58.7003062  35.7664155 119.7876633  59.7780331
  38.2967089 110.4897326  66.5275159  38.6516477 110.7168799  67.3869625
  38.9439221 110.8215703  65.9052414  44.0264826 113.6115762  57.2324488
  43.8882725 113.8017358  56.3045677  43.6701045 114.3735144  57.6892539
  32.1906953 107.5973857  63.3121500  32.8306332 107.4562616  62.6144463
  31.3584483 107.3108370  62.9360102  44.0534206 115.6792289  62.2435760
  44.4870713 115.5867578  63.0918814  44.7665787 115.6549789  61.6055776
  32.9667256 116.8976287  59.4256493  33.7607855 116.4026607  59.2239068
  32.2558949 116.3694150  59.0624198  37.7862101 119.2794383  63.7768860
  37.8399123 119.8485319  64.5446576  36.9176882 119.4496268  63.4122897
  29.2750020 111.0419369  55.5016245  28.3447608 110.9803824  55.7186207
  29.3707492 110.5195322  54.7052886  29.1935569 107.5674182  58.0894487
  29.4542386 108.4819515  57.9803647  30.0152741 107.0998624  58.2391100
  30.6660494 108.9811939  65.2593311  31.3383548 108.7729301  64.6105960
  29.8390281 108.7834025  64.8198544  44.9149756 115.7215989  64.7768645
  45.1085646 116.6261800  65.0227920  44.8150374 115.2623408  65.6107230
  36.5686066 105.6073880  67.2758972  35.9213981 106.3063830  67.1823449
  37.3387082 106.0410024  67.6435220  39.9764864 115.8722732  70.3509526
  39.8250371 115.6433284  69.4339609  39.9669544 116.8293334  70.3640871
  36.7450201 113.4454645  65.3355792  37.6742261 113.5965804  65.1624759
  36.3241231 113.5338666  64.4804439  35.5438532 117.4705309  63.1054330
  35.4049618 117.1024094  63.9780268  34.7553129 117.9852949  62.9338287
  36.1386684 122.5714406  54.4479866  36.3138440 122.1002449  55.2625489
  35.4519472 123.1980172  54.6761127  37.0943748 116.8486912  60.4943167
  36.7593580 116.8087682  61.3900817  36.5947693 116.1831628  60.0213578
  31.0687992 112.2554542  66.0195749  30.9307789 111.5234781  66.6207288
  31.9792915 112.1663442  65.7379936  40.0302939 114.1942946  50.7680227
  39.4132110 113.4689774  50.6713280  39.5619428 114.9552307  50.4247301
  33.6970292 111.9674501  65.5079428  34.4069911 111.3267693  65.4666047
  33.6539600 112.2187396  66.4305609  41.6857071 118.9041855  68.4286007
  41.6269617 118.2201075  67.7616590  42.0876589 119.6460845  67.9766633
  32.4099226 108.9539719  67.3275068  31.8736583 108.5030458  67.9796664
  31.8215935 109.0885628  66.5845532  30.7047770 125.7203768  61.2219726
  30.9444368 126.3522293  61.8998745  29.8616966 125.3691809  61.5085086
  31.8201485 108.4128371  49.8901531  30.9430951 108.2917171  49.5263778
  32.2959238 107.6214449  49.6380420  41.6874478 116.8681439  66.6599987
  40.8001257 116.5307360  66.7826386  42.2573029 116.1364470  66.8968753
  23.3403625 113.2005530  59.9843038  24.0274665 112.8867260  59.3964054
  23.1851754 114.1046895  59.7110290  28.1438347 108.0895727  64.4128062
  28.0596536 107.4821396  63.6778472  27.3221054 108.5804745  64.4137559
  35.2175632 121.5282891  63.6261230  35.1445803 122.3337862  64.1380535
  34.7753025 121.7274857  62.8009252  35.0065411 120.7654661  57.1364052
  34.2232933 121.3076341  57.2302276  35.7058156 121.2828641  57.5358293
  38.3162061 106.5749290  59.7798257  38.8130761 105.8219253  59.4599327
  37.5449043 106.6113607  59.2141467  46.1691819 112.2789656  61.4216549
  46.1581695 113.1614371  61.0510482  45.3009198 111.9261207  61.2271086
  37.6774315 121.4269725  65.7819389  38.3902287 122.0617190  65.7095290
  37.1864344 121.5233591  64.9659391  39.3991842 115.3320978  57.3536681
  38.4648121 115.4522440  57.1841385  39.5768510 114.4293444  57.0896690
  34.8997030 108.7166673  59.5069942  34.5294818 108.1637714  60.1950847
  35.3956122 108.1124807  58.9544942  42.7864393 111.1738297  57.8886715
  43.2524846 112.0066289  57.8147017  43.2371894 110.7083278  58.5931973
  32.7286229 119.1764168  66.6024960  33.4295688 119.8100651  66.7554354
  32.2581344 119.5178900  65.8420599  40.8540624 117.5182118  54.8872867
  41.1300468 117.4038713  55.7966741  39.9845123 117.1199603  54.8485040
  40.7581056 103.5418884  61.9277616  39.8444136 103.7723111  62.0959823
  41.1874158 103.6257328  62.7791648  40.5287515 111.7308776  64.4277510
  39.8758965 111.9784683  63.7729963  40.9067894 110.9172914  64.0939987
  37.4894688 121.7668469  58.5305680  37.6717083 120.9490125  58.9933433
  38.3127674 121.9836161  58.0930570  37.8236854 120.6936654  55.7920729
  38.3524620 120.1829109  55.1790891  38.0865074 120.3779184  56.6566262
  36.5775088 112.4728587  70.9143547  35.9015725 112.3722716  71.5845922
  37.4002721 112.3167801  71.3779544  28.3253947 118.7100523  63.5356062
  28.9107383 117.9644211  63.6683967  28.1278785 119.0204480  64.4192726
  31.1792602 121.7451771  58.5518505  30.5102977 122.2297898  58.0682545
  31.0405472 121.9920991  59.4661883  22.9171601 111.2806124  62.2560506
  22.9555701 110.7469714  63.0497624  22.4111894 110.7541329  61.6371483
  35.3197870 123.7795514  65.1501163  35.8716179 123.9427136  65.9150248
  35.6604064 124.3699952  64.4781188  30.2962364 106.1270664  65.7523048
  30.3603690 106.9885495  65.3400446  30.2329484 105.5144666  65.0195406
  29.7714636 108.1993797  69.3996082  30.3986675 107.8170874  70.0133607
  28.9142555 107.9807999  69.7651775  40.1708745 118.6056772  71.0049818
  40.7148649 119.2186730  70.5104772  39.5895590 119.1636350  71.5216831
  26.5480179 110.0070226  55.3314437  26.8433620 109.0980904  55.2781491
  25.6468215 109.9857965  55.0095439  38.4566258 121.7277490  62.1364845
  38.3317397 120.9267230  61.6275791  39.1145349 122.2223683  61.6478815
  30.0774426 108.0826222  61.3141986  29.3561012 108.6962190  61.1749459
  30.8667682 108.6183987  61.2358632  40.5201166 119.5286510  63.7644395
  39.5731502 119.4091861  63.6922722  40.8683939 118.6409008  63.8470657
  32.8800740 105.4180649  67.5882637  33.4035141 105.6642945  68.3508947
  32.6613073 106.2500684  67.1685775  28.2768021 107.6884323  55.4553762
  27.9480727 106.8081702  55.2728868  28.6307391 107.6331992  56.3430151
  37.5247599 119.3239226  59.9648748  37.3772562 118.3955934  60.1456318
  38.3501093 119.3459317  59.4805823  31.3909844 107.9757293  55.8229240
  31.7305916 108.5043215  55.1007848  31.8381964 108.3137699  56.5987806
  41.1281721 120.1467785  61.0513620  42.0528269 119.9410646  60.9138072
  40.9597025 119.8984186  61.9602962  34.0853285 106.3594344  65.2732308
  33.7450105 105.5602157  65.6752988  33.3792291 106.6596055  64.7009141
  34.7369756 103.4443656  63.7259631  35.5595826 102.9704135  63.6038521
  34.9807820 104.2234140  64.2258317  33.3777991 106.4731915  54.0222533
  34.0986353 106.8513168  53.5186249  32.7543295 107.1920792  54.1257511
  37.5209114 107.1777064  54.9580865  37.7372728 108.0601702  54.6569693
  37.0403181 106.7863277  54.2286507  32.2608335 110.1362777  61.5351610
  32.1152916 110.4503080  62.4275891  31.7833539 110.7547677  60.9822508
  34.1204718 107.1265325  61.5832499  34.1066287 106.2306418  61.2464797
  34.8377146 107.1335989  62.2170785  35.9730849 107.5602665  63.6285627
  35.7148627 108.4819736  63.6269957  35.4415889 107.1633100  64.3186091
  40.9177037 120.6653452  56.4075712  41.0913915 120.0999875  55.6549564
  41.4105929 121.4654347  56.2255202  26.7353997 112.6768121  64.4739271
  26.1907465 113.4527929  64.6059545  27.6133347 113.0238926  64.3158392
  33.5241614 106.0079705  56.8520069  33.6457525 105.0796352  57.0510957
  33.2343656 106.0218391  55.9398385  36.3932804 103.6934616  59.9886789
  36.4154501 103.7573949  59.0338769  36.8100863 102.8539124  60.1827295
  46.7716429 113.4289875  58.0266012  47.2147575 112.6797201  57.6285135
  45.8942939 113.4200012  57.6439744  41.9052210 119.9820217  53.5072610
  42.6003115 120.6026909  53.7259925  42.2475360 119.1315568  53.7824988
  27.5220019 111.8038018  67.3669428  26.7801755 111.9520653  67.9534058
  27.2012763 112.0646283  66.5036177  43.8043633 117.4319922  55.0359941
  44.3294957 117.7707195  54.3109261  43.7165986 116.4966938  54.8523076
  35.4663682 121.3453996  67.1649818  35.7750808 121.1003143  68.0372517
  36.2639164 121.5500634  66.6768688  35.4884294 123.4991906  59.3955194
  35.0489284 123.0068284  60.0888051  36.2392411 122.9564873  59.1547269
  27.9676633 119.6903446  59.3979822  28.7934653 119.3907218  59.0178466
  27.6170685 118.9211069  59.8469611  32.9358166 119.0429915  61.4677496
  32.3138175 118.3800620  61.1679724  33.6063033 119.0691047  60.7851144
  26.1685238 117.6089773  60.3568756  25.3317146 117.1811947  60.1752757
  26.1408883 117.8022216  61.2939547  33.0082693 107.5211703  71.0610002
  33.0570849 108.3973826  70.6787771  33.5505208 106.9789096  70.4881645
  43.4937539 118.0652826  70.3411139  42.7033083 118.0476965  69.8015638
  43.2570894 118.6041120  71.0960175  43.6135414 114.9145292  67.6543867
  43.6633419 114.7495300  68.5959390  43.5049338 114.0472551  67.2641748
  32.4971673 117.5933838  54.9435956  32.6459793 118.2769302  54.2902629
  33.3038116 117.5738928  55.4585412  40.9039177 110.8976220  68.9703174
  41.8049039 110.7582685  68.6787172  40.9787151 111.0630675  69.9101352
  35.2381982 108.2743075  67.8156360  34.3685291 108.5676641  67.5438949
  35.4741462 108.8583520  68.5363624  45.1153611 117.3342234  67.8985889
  44.8238419 117.6972214  68.7349350  44.5025742 116.6209242  67.7199221
  46.3149293 114.8995114  60.4188459  47.1496185 115.3384918  60.5826020
  46.4508422 114.4233767  59.5996705  43.3640799 112.4574848  66.3665947
  43.8394921 112.6502495  65.5584798  42.4406365 112.5134034  66.1209331
  30.2524306 113.6199016  55.9497025  30.0070348 112.7161346  56.1477235
  30.4220220 113.6216166  55.0076503  37.9421016 104.4922692  65.3321781
  38.4602960 105.2283719  65.0068269  37.5876149 104.7986685  66.1668540
  29.5219953 109.3527373  53.4483187  28.8289198 109.4271728  52.7923223
  29.2771705 108.5887717  53.9704704  38.1933610 100.9122975  60.8522677
  38.4735364 100.2446164  61.4783104  38.9784217 101.1052070  60.3397341
  35.9967078 120.0881968  52.4147704  35.4241046 120.7072156  51.9618176
  36.5699872 120.6381330  52.9487626  42.0642468 109.3340609  64.5994253
  43.0159891 109.4338706  64.6206477  41.8945919 108.5418877  65.1092337
  40.0856848 106.4196192  64.7853654  39.4906780 106.7001204  64.0900142
  39.8006544 106.9090093  65.5570395  39.2164338 120.3719119  53.5456286
  40.1495011 120.3064680  53.7489162  39.1287551 121.2075385  53.0870819
  41.8452355 119.6884989  50.5060234  41.7665986 119.3544853  51.3995992
  42.6662022 120.1806757  50.5051706  44.5430546 112.5546728  63.7136552
  44.5106866 111.6162729  63.8996236  45.1531170 112.6330765  62.9802377
  36.3813877 111.4242781  49.7563756  37.3272982 111.2948989  49.8252174
  36.0028122 110.6857443  50.2333184  44.6925035 109.3457772  63.7594835
  44.1764083 108.5616228  63.5724764  45.5764983 109.0176488  63.9241355
  42.3535761 103.0898787  59.7190648  42.1560583 102.7813875  60.6033980
  42.9635467 103.8160426  59.8488578  50.3607096 113.6162735  62.8542589
  51.0910484 113.3548023  63.4150292  49.7514041 112.8791457  62.8944657
  48.4422393 111.7570598  63.4517040  47.7155557 111.6226563  62.8433532
  48.0269680 112.0647426  64.2573758  36.2652569 115.4760527  71.2164413
  37.1855579 115.6539126  71.4104460  36.2302153 114.5316573  71.0644113
  34.5656794 109.3492758  49.6918641  33.6588249 109.0525870  49.7681355
  34.8432775 109.0522576  48.8252928  25.4834734 110.6699121  60.1417688
  25.1637519 109.8164429  59.8492062  24.9368163 110.8847699  60.8975655
  29.2614642 113.3861562  63.8587194  29.4800652 114.3178670  63.8775228
  29.6740416 113.0269536  64.6441998  36.1818860 103.8929647  55.8462883
  35.3719588 103.5476732  56.2218129  36.8703277 103.5837191  56.4350494
  38.1109408 102.9707694  57.4687179  38.6640447 103.3903148  58.1277203
  38.3479494 102.0443442  57.5110135  34.1342507 108.9594768  73.2489943
  34.0339234 109.9089125  73.1802034  33.9164049 108.6313007  72.3766013
  33.3355579 106.2079693  49.8330621  34.1974743 106.5334591  50.0926438
  33.5205923 105.4211189  49.3203686  25.3522994 114.2902033  62.1110809
  24.6586466 113.8755985  61.5980764  26.0995985 114.3322569  61.5144228
  41.4888215 105.0808219  56.9765844  40.9086884 105.7393023  56.5943896
  41.2224148 104.2585564  56.5653261  39.9391782 104.4813277  59.1787164
  40.4391560 104.5929812  58.3701483  40.5827389 104.1774330  59.8187972
  33.9973777 112.3891907  72.0655005  33.5140859 113.1892267  72.2718894
  34.0834716 112.3999851  71.1122449  27.2659737 114.2220286  59.9876824
  27.2430425 114.3207974  59.0358707  27.5760373 115.0685437  60.3093990
  29.9247115 116.2796441  64.1023439  30.8790368 116.2480384  64.0353370
  29.7259638 115.8187065  64.9173665  30.5146497 114.8497557  66.6694236
  31.3339386 115.3441636  66.6929074  30.7883305 113.9329526  66.6411804
  40.2713093 107.2408310  56.0322192  39.3838948 107.5257960  55.8142387
  40.6867082 107.0802073  55.1849469  43.6227629 107.2654831  59.7476531
  44.3988019 107.7551283  60.0201148  42.8975764 107.6912885  60.2048401
  46.0600188 107.9782450  60.8050472  46.6544679 107.7378186  60.0943780
  46.1326772 107.2589580  61.4324008  28.2797344 121.8216061  61.1193637
  28.1451812 121.0616462  60.5531635  27.8629406 122.5456961  60.6522426
  39.4156307 117.0052984  50.1270212  40.1192157 117.2102987  50.7427868
  38.6918955 117.5729746  50.3919295  40.2454117 112.7562846  56.2472482
  40.1889318 113.2131397  55.4080115  40.7982459 111.9953530  56.0695325
  44.0558923 108.5452577  57.0722602  43.7995857 108.1449213  57.9030809
  43.4311791 109.2596371  56.9472741  48.3671261 111.2848651  59.5793893
  47.8070819 111.3541840  60.3525455  47.7614764 111.1089635  58.8593389
  31.4366470 122.7185378  61.3312079  31.3198854 123.6630810  61.2290770
  30.6158916 122.4158939  61.7197878  41.3243004 117.4435514  52.1768672
  42.1588608 117.0116712  51.9946147  41.1627347 117.2717527  53.1045566
  40.9788896 113.9467627  53.5425011  40.9237700 113.7811898  52.6013455
  40.3534952 114.6543660  53.6987201  25.7681411 109.1835691  67.3686433
  26.4140275 108.6734645  67.8573659  25.5598562 109.9204373  67.9429859
  38.2934803 116.2516539  72.8678574  39.1625963 116.4257191  72.5065209
  37.8141555 117.0710956  72.7454303  34.2885022 103.4475736  53.1210330
  34.2763692 104.3917576  53.2778601  35.1808444 103.2645881  52.8269791
  32.4620984 123.3713640  64.5468008  33.3648230 123.4037250  64.8634503
  32.2358354 122.4414091  64.5614344  34.2174586 122.1244626  61.2078086
  33.2670217 122.1246488  61.0942459  34.5207072 121.3777361  60.6914121
  38.1037141 100.0418512  57.3756266  37.3369537  99.4876999  57.5212949
  38.5147846 100.1140381  58.2370418  30.1078902 106.3303308  71.4661448
  30.9710364 105.9740113  71.6764772  29.5344313 105.9917203  72.1536852
  49.9527279 127.9605165  62.2723849  50.5905689 127.8411912  61.5687189
  49.8348122 128.9086009  62.3311801  46.7616985 127.9132593  62.2085373
  46.4235497 127.7973657  61.3205908  47.6306754 127.5123758  62.1886380
  42.6203801 129.7668069  58.1982264  42.0568666 129.6758006  57.4298552
  42.5056196 128.9467974  58.6784757  47.2436768 129.0667444  68.1671579
  47.2325409 128.6720243  67.2952083  47.4057408 128.3333517  68.7605350
  40.1668233 131.2619261  61.0366485  40.9589525 130.9210085  60.6212784
  40.4064883 131.3714236  61.9568638  48.2003360 133.4339037  53.5096729
  47.5491340 134.0193117  53.1230743  48.9947723 133.9645232  53.5691767
  42.1258987 130.5228174  53.9083864  42.8989863 129.9757161  53.7696739
  42.4784386 131.3872423  54.1198325  43.9644030 131.8504556  67.1150763
  43.6733896 132.7550187  66.9997429  44.6001014 131.8921084  67.8294833
  44.8900236 129.2281405  63.7052123  45.4863809 129.0037427  62.9909086
  44.9475208 128.4866150  64.3077570  44.4625265 126.6820840  51.5402314
  44.7150786 126.1602361  50.7785777  43.5249824 126.5186986  51.6428997
  49.5068548 125.6856619  59.3477057  50.2931637 125.2676042  58.9967474
  49.7707252 126.5902711  59.5158705  49.6778625 131.1229469  54.0465714
  49.0424458 131.1964095  54.7586618  49.3476031 131.7123068  53.3684793
  54.9076975 125.6231852  60.2510035  55.6402147 125.0531069  60.4847865
  54.1516330 125.2353452  60.6916541  44.1821554 128.5848946  53.7426689
  44.0657812 127.9093849  54.4107773  44.2923813 128.0981320  52.9258842
  46.5253095 128.0459093  57.4473378  46.1611302 127.5189714  58.1586299
  47.3820210 127.6557562  57.2739863  52.4302395 119.3353426  64.7104644
  52.0985720 120.2048837  64.4865859  51.8348009 119.0189710  65.3898674
  46.1658581 123.0748993  52.4434726  46.3332984 123.9429229  52.8105197
  45.9755751 123.2376275  51.5196016  48.9233915 131.5365972  64.1100557
  48.6234638 132.4391011  64.0016364  48.5784974 131.2698155  64.9621710
  42.3746396 127.9879769  60.1437261  41.4496893 127.8555983  60.3514953
  42.6230809 128.7673988  60.6407203  52.3231058 124.0548512  61.7897994
  51.4147936 123.9863920  61.4956755  52.2718654 124.5320457  62.6179819
  46.1447802 125.5306650  53.4281393  46.0247428 125.9763701  54.2666873
  45.4500391 125.8791968  52.8694931  39.7355207 127.6313042  60.9781050
  39.8647588 127.8847521  61.8920462  39.0552658 128.2240750  60.6585705
  43.9054694 138.3010292  57.0771524  43.8278724 139.2518117  57.1560005
  43.3016338 137.9556165  57.7346451  46.3971924 125.4738158  69.7332891
  45.6205258 126.0332078  69.7235756  47.0362487 125.9594941  70.2547761
  54.1892705 122.2564950  63.5675868  53.5467085 122.5497484  62.9215662
  53.6847633 122.1417871  64.3729065  51.8432869 126.0028124  54.2561727
  52.7550725 126.2355510  54.0809425  51.3342516 126.5865168  53.6936806
  44.6518297 128.2823611  69.2950858  45.3932981 128.8208655  69.0185682
  43.9455282 128.9089900  69.4522410  50.1273636 130.4252751  67.8923020
  50.5356992 129.9835162  67.1477652  49.4050898 129.8505379  68.1457213
  46.4804706 125.3625358  65.2656577  47.3265901 125.7864772  65.4091226
  46.4203344 124.7058982  65.9595140  50.4502451 130.9853942  61.6475309
  49.8211313 131.1499656  60.9451376  50.0628113 131.3995552  62.4186273
  54.3291683 131.9208380  59.0019672  53.6442721 132.3007281  58.4516706
  54.4135532 132.5303707  59.7351620  49.6304152 123.0229727  66.9237750
  49.3865083 123.7771787  66.3872026  49.9064082 123.4015074  67.7584997
  51.5842614 129.5668339  65.6015016  51.7959510 130.2100099  64.9249397
  51.5372363 128.7330655  65.1336946  49.1868843 122.1786160  62.5051588
  48.3253322 122.4767413  62.7968326  49.2131278 122.3956558  61.5732621
  46.0030413 130.7228350  58.9125394  46.4668758 131.0016053  58.1230016
  45.7387211 129.8211795  58.7298484  42.8954494 130.2699832  61.8505157
  43.4655851 130.6987100  61.2122641  43.4862606 129.9882416  62.5489343
  44.9399299 126.8451502  55.7214959  45.6423342 127.2972546  56.1888885
  44.6079927 126.2035321  56.3494852  43.3879660 125.4363259  70.0966168
  42.7578321 126.1179540  70.3301565  43.2815748 125.3246341  69.1519306
  38.6824633 125.1035055  61.0232092  37.8923687 125.3592584  60.5472203
  39.1735880 125.9183393  61.1284133  52.6988442 132.4440294  63.7737373
  53.5205886 132.0420482  63.4920055  52.6950845 132.3408528  64.7253489
  40.6339378 125.4679634  57.9815569  39.8370541 125.5798329  58.4999065
  40.4064970 125.8066287  57.1156460  46.4645046 131.9924338  65.9298084
  46.5289478 132.4544745  66.7656256  45.7555970 131.3621703  66.0580394
  36.9662336 125.3565546  63.4547083  37.2170374 126.2412556  63.7204659
  37.5021884 125.1770147  62.6822175  60.7894435 128.7879043  60.1222345
  60.0358144 128.2186441  59.9666349  60.9241977 128.7541707  61.0692979
  46.1793063 133.6592445  55.7977064  46.0438738 134.5043981  56.2261912
  46.7202876 133.8611723  55.0342998  42.6660403 119.7384025  72.4591419
  42.2727349 119.1850224  73.1339064  43.4826543 120.0494603  72.8497937
  39.6322461 131.1767883  56.3704989  40.1446981 131.9711133  56.5210554
  40.2845174 130.4794174  56.3038591  41.4417345 134.2933639  58.4527742
  41.6183974 135.2151604  58.2648726  42.2374179 133.9792059  58.8822122
  45.5828364 121.1541904  70.0511676  46.3238077 121.7549057  69.9716138
  45.8146287 120.4119542  69.4929718  40.7269702 126.3398271  68.3289906
  40.6123217 125.4383529  68.6297004  39.8714220 126.5861968  67.9774722
  47.8061540 134.2816012  69.9277406  47.3625394 133.4952390  69.6098311
  48.4678753 134.4695162  69.2621297  42.5648661 135.8111813  64.4538085
  43.1156086 135.6828877  63.6815079  41.7260137 136.1106702  64.1032977
  49.9042778 134.5618812  67.9558807  49.8861253 135.3827693  67.4639077
  50.8262698 134.4372887  68.1808949  46.3615832 132.0762941  68.7982316
  46.8944169 131.3151229  68.5681624  45.8329913 131.7836593  69.5406470
  49.5285527 117.1823007  64.3275958  49.1849796 118.0724649  64.2515068
  49.8964490 116.9924665  63.4645543  37.5971378 129.5056537  57.1464560
  38.4346600 129.9153546  56.9298267  37.7749645 128.5655980  57.1164754
  49.4935810 127.1731618  52.8348393  48.9782433 127.9436223  53.0736780
  49.2213118 126.4996754  53.4581454  47.0782921 122.0181319  57.8933631
  46.2224517 121.6288169  57.7139270  47.4909872 122.0973280  57.0333417
  48.6082067 119.5527662  62.2925191  48.1046863 119.5157797  61.4792996
  48.9012674 120.4620405  62.3521847  44.8524953 119.6366392  61.2991373
  45.7177950 119.4409201  60.9397262  44.9202462 119.4076744  62.2260729
  54.4670084 129.9263973  54.7701566  53.6899527 129.5875132  54.3256728
  55.1461565 129.9316596  54.0956531  49.2822113 125.0458710  54.6608174
  48.9772248 125.3604859  55.5118317  50.2352555 125.1240130  54.7035507
  47.7268545 131.2048934  56.3101128  47.1989906 130.4701693  55.9974365
  47.2256047 131.9823610  56.0641096  52.7061391 129.3997954  61.4268174
  52.0485065 130.0897215  61.5148303  53.5101790 129.7894386  61.7702160
  42.4587272 121.8668600  58.6707739  43.0331024 121.6443781  57.9380932
  43.0458255 121.9357294  59.4236341  51.5166850 127.7542327  59.4772116
  52.0298731 128.3872319  59.9793826  52.1668073 127.1543522  59.1115476
  42.7856859 123.8973061  52.6903625  41.9494172 124.2347747  53.0112899
  42.6461629 123.7622041  51.7530762  44.7609940 118.7409849  57.3982809
  44.1074352 118.4258866  56.7739424  44.7190414 118.1185589  58.1242632
  45.8721145 129.0229144  49.3136101  44.9648207 128.7918397  49.5127250
  46.3692177 128.2266763  49.5010082  48.7789224 137.7326651  52.2332787
  48.1050923 138.0358348  52.8417745  49.1655046 138.5355731  51.8838244
  47.9947680 125.2291782  61.7230456  47.0770242 125.4506729  61.5652144
  48.4107824 125.3038093  60.8642164  48.7782728 126.6283198  56.8533137
  49.5254547 127.1404595  56.5440259  49.0474318 126.3067251  57.7137530
  47.0509378 129.1241739  53.8360091  46.1420598 128.8400771  53.9332561
  47.0804462 129.5440817  52.9763398  52.2828646 132.7348328  57.6051258
  51.8290973 131.8939238  57.6616449  51.6522612 133.3709727  57.9426039
  51.2261565 123.6640314  58.8351926  50.4884322 123.1517700  59.1662168
  51.4788339 123.2240696  58.0235203  50.7261585 134.5724825  58.5401077
  51.0184559 135.1329882  57.8213442  51.2360206 134.8653386  59.2954236
  51.3273193 116.4416566  59.4293695  51.6332069 115.5813930  59.1419610
  52.0525797 117.0334186  59.2292689  37.6197549 126.8447253  57.8175293
  37.4221949 126.2516613  57.0926360  37.0644213 126.5399463  58.5351232
  45.5994272 126.7370359  59.9369886  45.6542882 125.7844196  59.8612363
  44.7885474 126.8929798  60.4211185  46.7485466 130.6650482  51.1748169
  46.3104896 129.9486341  50.7153807  47.4895907 130.8926597  50.6133261
  43.5386632 125.3547419  57.6960265  42.7254498 125.6541590  58.1025457
  44.0345626 124.9603108  58.4134747  45.6895210 135.3505176  59.6294530
  45.6471389 135.5766022  58.7003062  46.6057909 135.1168551  59.7780331
  49.1360844 125.8189243  66.5275159  49.4910232 126.0460717  67.3869625
  49.7832975 126.1507620  65.9052414  54.8658581 128.9407679  57.2324488
  54.7276479 129.1309275  56.3045677  54.5094800 129.7027062  57.6892539
  43.0300707 122.9265775  63.3121500  43.6700086 122.7854534  62.6144463
  42.1978238 122.6400288  62.9360102  54.8927960 131.0084206  62.2435760
  55.3264467 130.9159495  63.0918814  55.6059541 130.9841707  61.6055776
  43.8061011 132.2268205  59.4256493  44.6001609 131.7318525  59.2239068
  43.0952703 131.6986068  59.0624198  48.6255855 134.6086300  63.7768860
  48.6792878 135.1777237  64.5446576  47.7570637 134.7788186  63.4122897
  40.1143774 126.3711287  55.5016245  39.1841362 126.3095742  55.7186207
  40.2101246 125.8487239  54.7052886  40.0329323 122.8966100  58.0894487
  40.2936141 123.8111433  57.9803647  40.8546496 122.4290542  58.2391100
  41.5054249 124.3103857  65.2593311  42.1777302 124.1021219  64.6105960
  40.6784035 124.1125943  64.8198544  55.7543510 131.0507907  64.7768645
  55.9479400 131.9553718  65.0227920  55.6544128 130.5915326  65.6107230
  47.4079821 120.9365798  67.2758972  46.7607736 121.6355747  67.1823449
  48.1780836 121.3701942  67.6435220  50.8158619 131.2014650  70.3509526
  50.6644125 130.9725201  69.4339609  50.8063298 132.1585251  70.3640871
  47.5843955 128.7746563  65.3355792  48.5136015 128.9257722  65.1624759
  47.1634985 128.8630583  64.4804439  46.3832287 132.7997227  63.1054330
  46.2443373 132.4316011  63.9780268  45.5946883 133.3144866  62.9338287
  46.9780439 137.9006323  54.4479866  47.1532195 137.4294367  55.2625489
  46.2913227 138.5272090  54.6761127  47.9337502 132.1778830  60.4943167
  47.5987335 132.1379600  61.3900817  47.4341448 131.5123546  60.0213578
  41.9081746 127.5846460  66.0195749  41.7701544 126.8526698  66.6207288
  42.8186669 127.4955360  65.7379936  50.8696694 129.5234864  50.7680227
  50.2525864 128.7981692  50.6713280  50.4013182 130.2844224  50.4247301
  44.5364047 127.2966419  65.5079428  45.2463665 126.6559611  65.4666047
  44.4933355 127.5479314  66.4305609  52.5250825 134.2333772  68.4286007
  52.4663372 133.5492992  67.7616590  52.9270344 134.9752762  67.9766633
  43.2492981 124.2831637  67.3275068  42.7130338 123.8322375  67.9796664
  42.6609689 124.4177546  66.5845532  42.6595240 123.7420288  49.8901531
  41.7824706 123.6209089  49.5263778  43.1352993 122.9506367  49.6380420
  52.5268233 132.1973356  66.6599987  51.6395011 131.8599278  66.7826386
  53.0966784 131.4656387  66.8968753  34.1797380 128.5297448  59.9843038
  34.8668420 128.2159178  59.3964054  34.0245508 129.4338813  59.7110290
  38.9832102 123.4187645  64.4128062  38.8990291 122.8113314  63.6778472
  38.1614808 123.9096663  64.4137559  46.0569386 136.8574809  63.6261230
  45.9839558 137.6629780  64.1380535  45.6146779 137.0566774  62.8009252
  45.8459166 136.0946579  57.1364052  45.0626688 136.6368259  57.2302276
  46.5451911 136.6120558  57.5358293  49.1555816 121.9041208  59.7798257
  49.6524515 121.1511170  59.4599327  48.3842797 121.9405525  59.2141467
  57.0085573 127.6081574  61.4216549  56.9975449 128.4906289  61.0510482
  56.1402953 127.2553124  61.2271086  48.5168070 136.7561643  65.7819389
  49.2296042 137.3909107  65.7095290  48.0258098 136.8525509  64.9659391
  50.2385596 130.6612895  57.3536681  49.3041875 130.7814358  57.1841385
  50.4162265 129.7585362  57.0896690  45.7390785 124.0458591  59.5069942
  45.3688572 123.4929631  60.1950847  46.2349877 123.4416725  58.9544942
  53.6258148 126.5030215  57.8886715  54.0918600 127.3358206  57.8147017
  54.0765648 126.0375196  58.5931973  43.5679983 134.5056086  66.6024960
  44.2689443 135.1392569  66.7554354  43.0975098 134.8470818  65.8420599
  51.6934379 132.8474036  54.8872867  51.9694223 132.7330630  55.7966741
  50.8238878 132.4491521  54.8485040  51.5974811 118.8710802  61.9277616
  50.6837890 119.1015028  62.0959823  52.0267912 118.9549246  62.7791648
  51.3681269 127.0600694  64.4277510  50.7152719 127.3076601  63.7729963
  51.7461649 126.2464832  64.0939987  48.3288443 137.0960387  58.5305680
  48.5110837 136.2782043  58.9933433  49.1521429 137.3128079  58.0930570
  48.6630608 136.0228572  55.7920729  49.1918375 135.5121026  55.1790891
  48.9258828 135.7071102  56.6566262  47.4168842 127.8020505  70.9143547
  46.7409479 127.7014634  71.5845922  48.2396476 127.6459718  71.3779544
  39.1647701 134.0392441  63.5356062  39.7501138 133.2936129  63.6683967
  38.9672540 134.3496398  64.4192726  42.0186356 137.0743689  58.5518505
  41.3496732 137.5589816  58.0682545  41.8799226 137.3212909  59.4661883
  33.7565356 126.6098041  62.2560506  33.7949455 126.0761632  63.0497624
  33.2505649 126.0833247  61.6371483  46.1591625 139.1087432  65.1501163
  46.7109933 139.2719054  65.9150248  46.4997818 139.6991870  64.4781188
  41.1356118 121.4562582  65.7523048  41.1997445 122.3177413  65.3400446
  41.0723238 120.8436584  65.0195406  40.6108391 123.5285714  69.3996082
  41.2380430 123.1462792  70.0133607  39.7536310 123.3099916  69.7651775
  51.0102499 133.9348690  71.0049818  51.5542403 134.5478648  70.5104772
  50.4289344 134.4928268  71.5216831  37.3873933 125.3362144  55.3314437
  37.6827375 124.4272822  55.2781491  36.4861969 125.3149883  55.0095439
  49.2960012 137.0569408  62.1364845  49.1711152 136.2559147  61.6275791
  49.9539103 137.5515601  61.6478815  40.9168180 123.4118140  61.3141986
  40.1954766 124.0254108  61.1749459  41.7061436 123.9475905  61.2358632
  51.3594921 134.8578428  63.7644395  50.4125256 134.7383779  63.6922722
  51.7077694 133.9700926  63.8470657  43.7194494 120.7472567  67.5882637
  44.2428896 120.9934863  68.3508947  43.5006827 121.5792601  67.1685775
  39.1161775 123.0176241  55.4553762  38.7874481 122.1373620  55.2728868
  39.4701146 122.9623910  56.3430151  48.3641354 134.6531144  59.9648748
  48.2166316 133.7247851  60.1456318  49.1894847 134.6751235  59.4805823
  42.2303598 123.3049211  55.8229240  42.5699671 123.8335132  55.1007848
  42.6775719 123.6429617  56.5987806  51.9675476 135.4759703  61.0513620
  52.8922023 135.2702564  60.9138072  51.7990779 135.2276104  61.9602962
  44.9247039 121.6886262  65.2732308  44.5843859 120.8894075  65.6752988
  44.2186045 121.9887973  64.7009141  45.5763511 118.7735574  63.7259631
  46.3989580 118.2996052  63.6038521  45.8201574 119.5526058  64.2258317
  44.2171745 121.8023833  54.0222533  44.9380108 122.1805085  53.5186249
  43.5937049 122.5212709  54.1257511  48.3602868 122.5068982  54.9580865
  48.5766483 123.3893619  54.6569693  47.8796935 122.1155195  54.2286507
  43.1002090 125.4654695  61.5351610  42.9546670 125.7794998  62.4275891
  42.6227293 126.0839595  60.9822508  44.9598473 122.4557243  61.5832499
  44.9460041 121.5598336  61.2464797  45.6770901 122.4627906  62.2170785
  46.8124603 122.8894583  63.6285627  46.5542381 123.8111654  63.6269957
  46.2809644 122.4925017  64.3186091  51.7570792 135.9945370  56.4075712
  51.9307670 135.4291793  55.6549564  52.2499683 136.7946265  56.2255202
  37.5747752 128.0060039  64.4739271  37.0301220 128.7819847  64.6059545
  38.4527102 128.3530844  64.3158392  44.3635368 121.3371623  56.8520069
  44.4851280 120.4088269  57.0510957  44.0737411 121.3510309  55.9398385
  47.2326559 119.0226533  59.9886789  47.2548256 119.0865867  59.0338769
  47.6494618 118.1831042  60.1827295  57.6110183 128.7581793  58.0266012
  58.0541329 128.0089118  57.6285135  56.7336693 128.7491929  57.6439744
  52.7445964 135.3112134  53.5072610  53.4396869 135.9318827  53.7259925
  53.0869115 134.4607486  53.7824988  38.3613774 127.1329935  67.3669428
  37.6195510 127.2812571  67.9534058  38.0406518 127.3938201  66.5036177
  54.6437388 132.7611840  55.0359941  55.1688712 133.0999113  54.3109261
  54.5559740 131.8258855  54.8523076  46.3057436 136.6745914  67.1649818
  46.6144563 136.4295060  68.0372517  47.1032918 136.8792552  66.6768688
  46.3278048 138.8283823  59.3955194  45.8883039 138.3360202  60.0888051
  47.0786165 138.2856791  59.1547269  38.8070387 135.0195364  59.3979822
  39.6328407 134.7199136  59.0178466  38.4564439 134.2502987  59.8469611
  43.7751920 134.3721832  61.4677496  43.1531930 133.7092537  61.1679724
  44.4456787 134.3982964  60.7851144  37.0078992 132.9381691  60.3568756
  36.1710901 132.5103865  60.1752757  36.9802638 133.1314134  61.2939547
  43.8476448 122.8503620  71.0610002  43.8964603 123.7265743  70.6787771
  44.3898962 122.3081013  70.4881645  54.3331294 133.3944744  70.3411139
  53.5426837 133.3768882  69.8015638  54.0964648 133.9333037  71.0960175
  54.4529169 130.2437210  67.6543867  54.5027174 130.0787217  68.5959390
  54.3443092 129.3764469  67.2641748  43.3365427 132.9225756  54.9435956
  43.4853548 133.6061220  54.2902629  44.1431871 132.9030846  55.4585412
  51.7432931 126.2268138  68.9703174  52.6442794 126.0874603  68.6787172
  51.8180906 126.3922593  69.9101352  46.0775736 123.6034993  67.8156360
  45.2079046 123.8968559  67.5438949  46.3135217 124.1875438  68.5363624
  55.9547366 132.6634152  67.8985889  55.6632174 133.0264132  68.7349350
  55.3419497 131.9501160  67.7199221  57.1543048 130.2287031  60.4188459
  57.9889939 130.6676835  60.5826020  57.2902177 129.7525685  59.5996705
  54.2034554 127.7866766  66.3665947  54.6788675 127.9794412  65.5584798
  53.2800119 127.8425952  66.1209331  41.0918060 128.9490933  55.9497025
  40.8464102 128.0453263  56.1477235  41.2613975 128.9508084  55.0076503
  48.7814770 119.8214610  65.3321781  49.2996714 120.5575637  65.0068269
  48.4269903 120.1278603  66.1668540  40.3613708 124.6819291  53.4483187
  39.6682953 124.7563646  52.7923223  40.1165460 123.9179635  53.9704704
  49.0327364 116.2414892  60.8522677  49.3129118 115.5738081  61.4783104
  49.8177971 116.4343988  60.3397341  46.8360833 135.4173886  52.4147704
  46.2634800 136.0364073  51.9618176  47.4093627 135.9673248  52.9487626
  52.9036223 124.6632526  64.5994253  53.8553646 124.7630624  64.6206477
  52.7339673 123.8710795  65.1092337  50.9250602 121.7488109  64.7853654
  50.3300534 122.0293122  64.0900142  50.6400299 122.2382010  65.5570395
  50.0558093 135.7011036  53.5456286  50.9888766 135.6356598  53.7489162
  49.9681306 136.5367303  53.0870819  52.6846109 135.0176907  50.5060234
  52.6059741 134.6836770  51.3995992  53.5055776 135.5098675  50.5051706
  55.3824301 127.8838646  63.7136552  55.3500621 126.9454647  63.8996236
  55.9924924 127.9622683  62.9802377  47.2207631 126.7534699  49.7563756
  48.1666736 126.6240907  49.8252174  46.8421876 126.0149361  50.2333184
  55.5318789 124.6749689  63.7594835  55.0157838 123.8908146  63.5724764
  56.4158738 124.3468406  63.9241355  53.1929516 118.4190705  59.7190648
  52.9954337 118.1105793  60.6033980  53.8029222 119.1452344  59.8488578
  61.2000850 128.9454653  62.8542589  61.9304239 128.6839941  63.4150292
  60.5907796 128.2083375  62.8944657  59.2816148 127.0862515  63.4517040
  58.5549311 126.9518480  62.8433532  58.8663434 127.3939344  64.2573758
  47.1046324 130.8052445  71.2164413  48.0249333 130.9831044  71.4104460
  47.0695907 129.8608490  71.0644113  45.4050549 124.6784675  49.6918641
  44.4982004 124.3817788  49.7681355  45.6826530 124.3814493  48.8252928
  36.3228489 125.9991039  60.1417688  36.0031273 125.1456347  59.8492062
  35.7761917 126.2139617  60.8975655  40.1008397 128.7153480  63.8587194
  40.3194406 129.6470588  63.8775228  40.5134170 128.3561454  64.6441998
  47.0212614 119.2221565  55.8462883  46.2113343 118.8768650  56.2218129
  47.7097031 118.9129109  56.4350494  48.9503163 118.2999612  57.4687179
  49.5034201 118.7195065  58.1277203  49.1873249 117.3735360  57.5110135
  44.9736262 124.2886685  73.2489943  44.8732989 125.2381042  73.1802034
  44.7557804 123.9604924  72.3766013  44.1749333 121.5371611  49.8330621
  45.0368497 121.8626509  50.0926438  44.3599677 120.7503106  49.3203686
  36.1916749 129.6193950  62.1110809  35.4980220 129.2047903  61.5980764
  36.9389740 129.6614487  61.5144228  52.3281970 120.4100137  56.9765844
  51.7480639 121.0684941  56.5943896  52.0617902 119.5877482  56.5653261
  50.7785536 119.8105195  59.1787164  51.2785314 119.9221729  58.3701483
  51.4221144 119.5066248  59.8187972  44.8367532 127.7183824  72.0655005
  44.3534614 128.5184184  72.2718894  44.9228471 127.7291769  71.1122449
  38.1053491 129.5512204  59.9876824  38.0824180 129.6499891  59.0358707
  38.4154128 130.3977355  60.3093990  40.7640869 131.6088359  64.1023439
  41.7184123 131.5772301  64.0353370  40.5653393 131.1478983  64.9173665
  41.3540251 130.1789475  66.6694236  42.1733140 130.6733554  66.6929074
  41.6277059 129.2621443  66.6411804  51.1106848 122.5700227  56.0322192
  50.2232703 122.8549878  55.8142387  51.5260837 122.4093991  55.1849469
  54.4621384 122.5946748  59.7476531  55.2381774 123.0843201  60.0201148
  53.7369518 123.0204803  60.2048401  56.8993942 123.3074368  60.8050472
  57.4938433 123.0670104  60.0943780  56.9720526 122.5881498  61.4324008
  39.1191098 137.1507978  61.1193637  38.9845566 136.3908379  60.5531635
  38.7023160 137.8748878  60.6522426  50.2550061 132.3344902  50.1270212
  50.9585911 132.5394905  50.7427868  49.5312710 132.9021664  50.3919295
  51.0847871 128.0854763  56.2472482  51.0283073 128.5423315  55.4080115
  51.6376214 127.3245448  56.0695325  54.8952677 123.8744495  57.0722602
  54.6389612 123.4741131  57.9030809  54.2705545 124.5888289  56.9472741
  59.2065015 126.6140568  59.5793893  58.6464573 126.6833758  60.3525455
  58.6008519 126.4381553  58.8593389  42.2760224 138.0477296  61.3312079
  42.1592608 138.9922728  61.2290770  41.4552670 137.7450857  61.7197878
  52.1636759 132.7727431  52.1768672  52.9982362 132.3408630  51.9946147
  52.0021101 132.6009445  53.1045566  51.8182651 129.2759545  53.5425011
  51.7631455 129.1103816  52.6013455  51.1928706 129.9835577  53.6987201
  36.6075166 124.5127609  67.3686433  37.2534029 124.0026563  67.8573659
  36.3992317 125.2496291  67.9429859  49.1328558 131.5808456  72.8678574
  50.0019718 131.7549109  72.5065209  48.6535309 132.4002873  72.7454303
  45.1278776 118.7767654  53.1210330  45.1157446 119.7209493  53.2778601
  46.0202198 118.5937799  52.8269791  43.3014738 138.7005557  64.5468008
  44.2041985 138.7329168  64.8634503  43.0752108 137.7706008  64.5614344
  45.0568340 137.4536544  61.2078086  44.1063971 137.4538406  61.0942459
  45.3600826 136.7069279  60.6914121  48.9430896 115.3710430  57.3756266
  48.1763291 114.8168917  57.5212949  49.3541601 115.4432299  58.2370418
  40.9472657 121.6595226  71.4661448  41.8104118 121.3032031  71.6764772
  40.3738067 121.3209121  72.1536852  60.7921034 143.2897082  62.2723849
  61.4299444 143.1703830  61.5687189  60.6741877 144.2377926  62.3311801
  57.6010740 143.2424510  62.2085373  57.2629251 143.1265575  61.3205908
  58.4700508 142.8415676  62.1886380  53.4597556 145.0959987  58.1982264
  52.8962421 145.0049924  57.4298552  53.3449951 144.2759891  58.6784757
  58.0830523 144.3959362  68.1671579  58.0719164 144.0012160  67.2952083
  58.2451162 143.6625435  68.7605350  55.7293991 144.5573322  63.7052123
  56.3257563 144.3329345  62.9909086  55.7868962 143.8158068  64.3077570
  55.3019019 142.0112758  51.5402314  55.5544540 141.4894279  50.7785777
  54.3643578 141.8478903  51.6428997  60.3462302 141.0148536  59.3477057
  61.1325391 140.5967959  58.9967474  60.6101006 141.9194628  59.5158705
  60.5172379 146.4521386  54.0465714  59.8818212 146.5256013  54.7586618
  60.1869786 147.0414985  53.3684793  65.7470729 140.9523769  60.2510035
  66.4795901 140.3822986  60.4847865  64.9910085 140.5645370  60.6916541
  55.0215308 143.9140864  53.7426689  54.9051566 143.2385767  54.4107773
  55.1317568 143.4273238  52.9258842  57.3646849 143.3751011  57.4473378
  57.0005056 142.8481632  58.1586299  58.2213965 142.9849480  57.2739863
  63.2696150 134.6645343  64.7104644  62.9379474 135.5340754  64.4865859
  62.6741763 134.3481627  65.3898674  57.0052336 138.4040911  52.4434726
  57.1726738 139.2721147  52.8105197  56.8149505 138.5668192  51.5196016
  53.2140151 143.3171686  60.1437261  52.2890647 143.1847900  60.3514953
  53.4624564 144.0965906  60.6407203  63.1624813 139.3840430  61.7897994
  62.2541690 139.3155838  61.4956755  63.1112409 139.8612375  62.6179819
  56.9841557 140.8598568  53.4281393  56.8641182 141.3055619  54.2666873
  56.2894145 141.2083886  52.8694931  50.5748962 142.9604960  60.9781050
  50.7041343 143.2139439  61.8920462  49.8946413 143.5532668  60.6585705
  57.2365679 140.8030075  69.7332891  56.4599013 141.3623995  69.7235756
  57.8756242 141.2886858  70.2547761  65.0286459 137.5856868  63.5675868
  64.3860840 137.8789401  62.9215662  64.5241388 137.4709788  64.3729065
  62.6826623 141.3320041  54.2561727  63.5944479 141.5647428  54.0809425
  62.1736270 141.9157085  53.6936806  55.4912051 143.6115529  69.2950858
  56.2326735 144.1500573  69.0185682  54.7849036 144.2381817  69.4522410
  60.9667391 145.7544669  67.8923020  61.3750747 145.3127080  67.1477652
  60.2444652 145.1797297  68.1457213  57.3198461 140.6917276  65.2656577
  58.1659656 141.1156689  65.4091226  57.2597098 140.0350900  65.9595140
  61.2896205 146.3145860  61.6475309  60.6605068 146.4791574  60.9451376
  60.9021867 146.7287469  62.4186273  65.1685437 147.2500298  59.0019672
  64.4836475 147.6299199  58.4516706  65.2529287 147.8595624  59.7351620
  60.4697906 138.3521644  66.9237750  60.2258838 139.1063705  66.3872026
  60.7457837 138.7306992  67.7584997  62.4236369 144.8960257  65.6015016
  62.6353264 145.5392016  64.9249397  62.3766117 144.0622573  65.1336946
  60.0262598 137.5078077  62.5051588  59.1647077 137.8059331  62.7968326
  60.0525032 137.7248476  61.5732621  56.8424167 146.0520268  58.9125394
  57.3062513 146.3307971  58.1230016  56.5780965 145.1503712  58.7298484
  55.7793053 142.1743420  55.7214959  56.4817097 142.6264464  56.1888885
  55.4473682 141.5327239  56.3494852  54.2273415 140.7655177  70.0966168
  53.5972075 141.4471458  70.3301565  54.1209503 140.6538258  69.1519306
  49.5218387 140.4326973  61.0232092  48.7317441 140.6884501  60.5472203
  50.0129635 141.2475311  61.1284133  63.5382197 147.7732212  63.7737373
  64.3599640 147.3712399  63.4920055  63.5344600 147.6700446  64.7253489
  51.4733133 140.7971552  57.9815569  50.6764296 140.9090246  58.4999065
  51.2458725 141.1358204  57.1156460  47.8056090 140.6857463  63.4547083
  48.0564129 141.5704473  63.7204659  48.3415639 140.5062065  62.6822175
  71.6288190 144.1170960  60.1222345  70.8751898 143.5478359  59.9666349
  71.7635731 144.0833625  61.0692979  53.5054158 135.0675943  72.4591419
  53.1121103 134.5142141  73.1339064  54.3220298 135.3786521  72.8497937
  56.4222118 136.4833822  70.0511676  57.1631832 137.0840975  69.9716138
  56.6540041 135.7411460  69.4929718  51.5663457 141.6690189  68.3289906
  51.4516972 140.7675446  68.6297004  50.7107974 141.9153886  67.9774722
  60.3679281 132.5114925  64.3275958  60.0243551 133.4016566  64.2515068
  60.7358244 132.3216582  63.4645543  60.3329564 142.5023536  52.8348393
  59.8176188 143.2728140  53.0736780  60.0606873 141.8288672  53.4581454
  57.9176675 137.3473237  57.8933631  57.0618272 136.9580087  57.7139270
  58.3303627 137.4265197  57.0333417  59.4475822 134.8819580  62.2925191
  58.9440617 134.8449715  61.4792996  59.7406429 135.7912323  62.3521847
  55.6918708 134.9658310  61.2991373  56.5571704 134.7701118  60.9397262
  55.7596217 134.7368661  62.2260729  65.3063838 145.2555890  54.7701566
  64.5293281 144.9167050  54.3256728  65.9855319 145.2608514  54.0956531
  60.1215867 140.3750628  54.6608174  59.8166003 140.6896777  55.5118317
  61.0746309 140.4532048  54.7035507  63.5455145 144.7289872  61.4268174
  62.8878820 145.4189133  61.5148303  64.3495544 145.1186304  61.7702160
  53.2981027 137.1960517  58.6707739  53.8724779 136.9735699  57.9380932
  53.8852009 137.2649212  59.4236341  62.3560604 143.0834244  59.4772116
  62.8692486 143.7164236  59.9793826  63.0061828 142.4835440  59.1115476
  53.6250614 139.2264979  52.6903625  52.7887926 139.5639665  53.0112899
  53.4855384 139.0913958  51.7530762  55.6003694 134.0701766  57.3982809
  54.9468107 133.7550784  56.7739424  55.5584169 133.4477507  58.1242632
  56.7114899 144.3521061  49.3136101  55.8041961 144.1210315  49.5127250
  57.2085931 143.5558681  49.5010082  58.8341435 140.5583700  61.7230456
  57.9163996 140.7798647  61.5652144  59.2501578 140.6330010  60.8642164
  59.6176483 141.9575116  56.8533137  60.3648302 142.4696513  56.5440259
  59.8868072 141.6359168  57.7137530  57.8903133 144.4533656  53.8360091
  56.9814352 144.1692689  53.9332561  57.9198217 144.8732735  52.9763398
  62.0655320 138.9932232  58.8351926  61.3278077 138.4809618  59.1662168
  62.3182093 138.5532613  58.0235203  62.1666947 131.7708484  59.4293695
  62.4725824 130.9105847  59.1419610  62.8919552 132.3626104  59.2292689
  48.4591303 142.1739170  57.8175293  48.2615703 141.5808531  57.0926360
  47.9037967 141.8691381  58.5351232  56.4388027 142.0662277  59.9369886
  56.4936637 141.1136113  59.8612363  55.6279229 142.2221716  60.4211185
  57.5879221 145.9942400  51.1748169  57.1498651 145.2778259  50.7153807
  58.3289661 146.2218515  50.6133261  54.3780387 140.6839337  57.6960265
  53.5648252 140.9833507  58.1025457  54.8739381 140.2895025  58.4134747
  59.9754598 141.1481161  66.5275159  60.3303986 141.3752634  67.3869625
  60.6226730 141.4799538  65.9052414  65.7052335 144.2699597  57.2324488
  65.5670234 144.4601193  56.3045677  65.3488554 145.0318980  57.6892539
  53.8694462 138.2557692  63.3121500  54.5093841 138.1146451  62.6144463
  53.0371992 137.9692206  62.9360102  65.7321715 146.3376124  62.2435760
  66.1658222 146.2451413  63.0918814  66.4453296 146.3133625  61.6055776
  50.9537529 141.7003204  55.5016245  50.0235117 141.6387660  55.7186207
  51.0495001 141.1779157  54.7052886  50.8723078 138.2258017  58.0894487
  51.1329895 139.1403350  57.9803647  51.6940250 137.7582460  58.2391100
  52.3448003 139.6395774  65.2593311  53.0171057 139.4313136  64.6105960
  51.5177790 139.4417860  64.8198544  66.5937265 146.3799825  64.7768645
  66.7873155 147.2845635  65.0227920  66.4937883 145.9207244  65.6107230
  58.2473575 136.2657715  67.2758972  57.6001490 136.9647665  67.1823449
  59.0174591 136.6993859  67.6435220  61.6552373 146.5306567  70.3509526
  61.5037880 146.3017119  69.4339609  61.6457053 147.4877169  70.3640871
  58.4237710 144.1038480  65.3355792  59.3529770 144.2549640  65.1624759
  58.0028740 144.1922501  64.4804439  52.7475501 142.9138377  66.0195749
  52.6095298 142.1818616  66.6207288  53.6580424 142.8247277  65.7379936
  61.7090448 144.8526782  50.7680227  61.0919619 144.1273610  50.6713280
  61.2406937 145.6136142  50.4247301  55.3757801 142.6258337  65.5079428
  56.0857420 141.9851529  65.4666047  55.3327109 142.8771232  66.4305609
  54.0886735 139.6123555  67.3275068  53.5524092 139.1614293  67.9796664
  53.5003444 139.7469463  66.5845532  53.4988994 139.0712206  49.8901531
  52.6218460 138.9501007  49.5263778  53.9746747 138.2798284  49.6380420
  63.3661987 147.5265274  66.6599987  62.4788766 147.1891196  66.7826386
  63.9360538 146.7948305  66.8968753  49.8225856 138.7479562  64.4128062
  49.7384045 138.1405232  63.6778472  49.0008563 139.2388581  64.4137559
  59.9949570 137.2333126  59.7798257  60.4918270 136.4803088  59.4599327
  59.2236552 137.2697442  59.2141467  67.8479328 142.9373491  61.4216549
  67.8369204 143.8198207  61.0510482  66.9796707 142.5845042  61.2271086
  61.0779351 145.9904813  57.3536681  60.1435630 146.1106275  57.1841385
  61.2556019 145.0877280  57.0896690  56.5784539 139.3750509  59.5069942
  56.2082327 138.8221549  60.1950847  57.0743631 138.7708642  58.9544942
  64.4651902 141.8322132  57.8886715  64.9312355 142.6650124  57.8147017
  64.9159403 141.3667114  58.5931973  62.5328133 148.1765954  54.8872867
  62.8087977 148.0622548  55.7966741  61.6632632 147.7783438  54.8485040
  62.4368565 134.2002719  61.9277616  61.5231645 134.4306946  62.0959823
  62.8661667 134.2841163  62.7791648  62.2075024 142.3892611  64.4277510
  61.5546474 142.6368519  63.7729963  62.5855403 141.5756749  64.0939987
  58.2562597 143.1312422  70.9143547  57.5803234 143.0306552  71.5845922
  59.0790230 142.9751636  71.3779544  44.5959110 141.9389959  62.2560506
  44.6343210 141.4053550  63.0497624  44.0899403 141.4125165  61.6371483
  51.9749873 136.7854500  65.7523048  52.0391199 137.6469330  65.3400446
  51.9116993 136.1728501  65.0195406  51.4502145 138.8577632  69.3996082
  52.0774184 138.4754709  70.0133607  50.5930064 138.6391834  69.7651775
  48.2267688 140.6654061  55.3314437  48.5221129 139.7564740  55.2781491
  47.3255724 140.6441801  55.0095439  51.7561935 138.7410058  61.3141986
  51.0348521 139.3546025  61.1749459  52.5455191 139.2767823  61.2358632
  54.5588248 136.0764484  67.5882637  55.0822650 136.3226781  68.3508947
  54.3400582 136.9084519  67.1685775  49.9555530 138.3468159  55.4553762
  49.6268236 137.4665538  55.2728868  50.3094900 138.2915828  56.3430151
  53.0697353 138.6341129  55.8229240  53.4093425 139.1627050  55.1007848
  53.5169473 138.9721535  56.5987806  55.7640794 137.0178179  65.2732308
  55.4237614 136.2185992  65.6752988  55.0579800 137.3179890  64.7009141
  56.4157265 134.1027492  63.7259631  57.2383335 133.6287970  63.6038521
  56.6595329 134.8817976  64.2258317  55.0565500 137.1315750  54.0222533
  55.7773862 137.5097003  53.5186249  54.4330804 137.8504627  54.1257511
  59.1996623 137.8360899  54.9580865  59.4160237 138.7185537  54.6569693
  58.7190690 137.4447113  54.2286507  53.9395844 140.7946612  61.5351610
  53.7940425 141.1086915  62.4275891  53.4621048 141.4131513  60.9822508
  55.7992227 137.7849160  61.5832499  55.7853796 136.8890254  61.2464797
  56.5164655 137.7919824  62.2170785  57.6518358 138.2186501  63.6285627
  57.3936136 139.1403571  63.6269957  57.1203398 137.8216935  64.3186091
  55.2029123 136.6663541  56.8520069  55.3245034 135.7380187  57.0510957
  54.9131165 136.6802227  55.9398385  58.0720313 134.3518451  59.9886789
  58.0942010 134.4157784  59.0338769  58.4888372 133.5122960  60.1827295
  68.4503938 144.0873711  58.0266012  68.8935084 143.3381036  57.6285135
  67.5730448 144.0783847  57.6439744  49.2007528 142.4621853  67.3669428
  48.4589264 142.6104488  67.9534058  48.8800272 142.7230119  66.5036177
  65.4831142 148.0903758  55.0359941  66.0082466 148.4291030  54.3109261
  65.3953495 147.1550773  54.8523076  54.6870202 138.1795538  71.0610002
  54.7358358 139.0557661  70.6787771  55.2292717 137.6372931  70.4881645
  65.1725048 148.7236661  70.3411139  64.3820592 148.7060800  69.8015638
  64.9358403 149.2624955  71.0960175  65.2922923 145.5729128  67.6543867
  65.3420928 145.4079135  68.5959390  65.1836847 144.7056387  67.2641748
  62.5826686 141.5560056  68.9703174  63.4836548 141.4166521  68.6787172
  62.6574660 141.7214511  69.9101352  56.9169491 138.9326910  67.8156360
  56.0472800 139.2260477  67.5438949  57.1528971 139.5167355  68.5363624
  66.7941120 147.9926069  67.8985889  66.5025928 148.3556050  68.7349350
  66.1813251 147.2793077  67.7199221  67.9936802 145.5578949  60.4188459
  68.8283694 145.9968753  60.5826020  68.1295931 145.0817602  59.5996705
  65.0428308 143.1158684  66.3665947  65.5182430 143.3086330  65.5584798
  64.1193874 143.1717870  66.1209331  51.9311815 144.2782851  55.9497025
  51.6857857 143.3745181  56.1477235  52.1007729 144.2800001  55.0076503
  59.6208525 135.1506527  65.3321781  60.1390469 135.8867554  65.0068269
  59.2663658 135.4570521  66.1668540  51.2007462 140.0111209  53.4483187
  50.5076707 140.0855564  52.7923223  50.9559214 139.2471552  53.9704704
  59.8721119 131.5706810  60.8522677  60.1522873 130.9029999  61.4783104
  60.6571726 131.7635906  60.3397341  63.7429977 139.9924444  64.5994253
  64.6947400 140.0922542  64.6206477  63.5733428 139.2002712  65.1092337
  61.7644357 137.0780027  64.7853654  61.1694289 137.3585040  64.0900142
  61.4794053 137.5673928  65.5570395  66.2218055 143.2130564  63.7136552
  66.1894375 142.2746564  63.8996236  66.8318679 143.2914600  62.9802377
  58.0601386 142.0826617  49.7563756  59.0060491 141.9532825  49.8252174
  57.6815631 141.3441278  50.2333184  66.3712544 140.0041607  63.7594835
  65.8551592 139.2200064  63.5724764  67.2552492 139.6760324  63.9241355
  64.0323270 133.7482623  59.7190648  63.8348092 133.4397711  60.6033980
  64.6422976 134.4744262  59.8488578  72.0394605 144.2746570  62.8542589
  72.7697993 144.0131859  63.4150292  71.4301550 143.5375292  62.8944657
  70.1209902 142.4154433  63.4517040  69.3943066 142.2810398  62.8433532
  69.7057189 142.7231262  64.2573758  57.9440078 146.1344363  71.2164413
  58.8643088 146.3122962  71.4104460  57.9089661 145.1900408  71.0644113
  56.2444303 140.0076593  49.6918641  55.3375758 139.7109706  49.7681355
  56.5220284 139.7106411  48.8252928  47.1622243 141.3282956  60.1417688
  46.8425028 140.4748265  59.8492062  46.6155672 141.5431535  60.8975655
  57.8606369 134.5513483  55.8462883  57.0507097 134.2060568  56.2218129
  58.5490786 134.2421026  56.4350494  59.7896917 133.6291529  57.4687179
  60.3427956 134.0486983  58.1277203  60.0267003 132.7027278  57.5110135
  55.8130016 139.6178603  73.2489943  55.7126743 140.5672960  73.1802034
  55.5951558 139.2896842  72.3766013  55.0143088 136.8663528  49.8330621
  55.8762252 137.1918427  50.0926438  55.1993432 136.0795024  49.3203686
  63.1675724 135.7392055  56.9765844  62.5874393 136.3976859  56.5943896
  62.9011657 134.9169399  56.5653261  61.6179291 135.1397112  59.1787164
  62.1179069 135.2513647  58.3701483  62.2614898 134.8358165  59.8187972
  55.6761286 143.0475742  72.0655005  55.1928368 143.8476102  72.2718894
  55.7622225 143.0583687  71.1122449  61.9500602 137.8992145  56.0322192
  61.0626457 138.1841796  55.8142387  62.3654591 137.7385908  55.1849469
  65.3015138 137.9238666  59.7476531  66.0775528 138.4135118  60.0201148
  64.5763272 138.3496720  60.2048401  67.7387697 138.6366285  60.8050472
  68.3332188 138.3962021  60.0943780  67.8114281 137.9173416  61.4324008
  61.9241626 143.4146681  56.2472482  61.8676827 143.8715232  55.4080115
  62.4769968 142.6537366  56.0695325  65.7346432 139.2036413  57.0722602
  65.4783366 138.8033048  57.9030809  65.1099300 139.9180207  56.9472741
  70.0458770 141.9432486  59.5793893  69.4858328 142.0125675  60.3525455
  69.4402273 141.7673471  58.8593389  63.0030513 148.1019349  52.1768672
  63.8376117 147.6700547  51.9946147  62.8414856 147.9301363  53.1045566
  62.6576405 144.6051462  53.5425011  62.6025209 144.4395734  52.6013455
  62.0322461 145.3127495  53.6987201  47.4468920 139.8419527  67.3686433
  48.0927784 139.3318481  67.8573659  47.2386071 140.5788208  67.9429859
  55.9672531 134.1059571  53.1210330  55.9551201 135.0501411  53.2778601
  56.8595953 133.9229717  52.8269791  59.7824650 130.7002348  57.3756266
  59.0157046 130.1460835  57.5212949  60.1935355 130.7724217  58.2370418
  51.7866411 136.9887144  71.4661448  52.6497873 136.6323949  71.6764772
  51.2131822 136.6501038  72.1536852  74.1089904 149.9937261  64.7104644
  73.7773229 150.8632672  64.4865859  73.5135517 149.6773545  65.3898674
  71.2073036 147.8406842  64.3275958  70.8637305 148.7308484  64.2515068
  71.5751999 147.6508500  63.4645543  70.2869576 150.2111498  62.2925191
  69.7834372 150.1741633  61.4792996  70.5800183 151.1204240  62.3521847
  66.4397449 149.3993684  57.3982809  65.7861861 149.0842701  56.7739424
  66.3977923 148.7769425  58.1242632  73.0060702 147.1000402  59.4293695
  73.3119578 146.2397765  59.1419610  73.7313306 147.6918022  59.2292689
  73.2762320 149.5294637  61.9277616  72.3625399 149.7598864  62.0959823
  73.7055421 149.6133081  62.7791648  67.2551020 149.4319409  63.7259631
  68.0777089 148.9579888  63.6038521  67.4989083 150.2109893  64.2258317
  68.9114068 149.6810369  59.9886789  68.9335765 149.7449702  59.0338769
  69.3282127 148.8414877  60.1827295  70.4602279 150.4798445  65.3321781
  70.9784223 151.2159472  65.0068269  70.1057412 150.7862438  66.1668540
  70.7114873 146.8998728  60.8522677  70.9916627 146.2321917  61.4783104
  71.4965480 147.0927823  60.3397341  74.8717025 149.0774540  59.7190648
  74.6741846 148.7689628  60.6033980  75.4816731 149.8036179  59.8488578
  68.7000123 149.8805400  55.8462883  67.8900852 149.5352485  56.2218129
  69.3884540 149.5712944  56.4350494  70.6290672 148.9583447  57.4687179
  71.1821710 149.3778901  58.1277203  70.8660758 148.0319195  57.5110135
  74.0069479 151.0683972  56.9765844  73.4268148 151.7268776  56.5943896
  73.7405411 150.2461317  56.5653261  72.4573045 150.4689030  59.1787164
  72.9572823 150.5805565  58.3701483  73.1008653 150.1650083  59.8187972
  78.5781451 153.9658203  60.8050472  79.1725942 153.7253939  60.0943780
  78.6508035 153.2465333  61.4324008  70.6218405 146.0294266  57.3756266
  69.8550800 145.4752752  57.5212949  71.0329110 146.1016134  58.2370418
   6.5925664  29.1481577  46.8467651   5.8389373  28.5788975  46.6911656
   6.7273205  29.1144242  47.7938286   0.6959189  31.3686741  48.9681066
   1.1295696  31.2762030  49.8164120   1.4090770  31.3444241  48.3301082
   1.5574739  31.4110441  51.5013952   1.7510629  32.3156252  51.7473227
   1.4575357  30.9517860  52.3352537   2.8116802  27.9684108  48.1461855
   2.8006678  28.8508823  47.7755788   1.9434181  27.6155659  47.9516392
   3.4141412  29.1184327  44.7511318   3.8572558  28.3691652  44.3530442
   2.5367922  29.1094464  44.3685050   0.4468616  33.1214374  41.7605248
   0.9719940  33.4601647  41.0354568   0.3590969  32.1861390  41.5768382
   1.7578594  33.0236686  54.6231196   1.4663403  33.3866666  55.4594657
   1.1450726  32.3103694  54.4444528   2.9574277  30.5889566  47.1433766
   3.7921168  31.0279370  47.3071326   3.0933405  30.1128219  46.3242012
   1.1855529  28.2441180  50.4381859   1.1531849  27.3057181  50.6241543
   1.7956153  28.3225217  49.7047684   1.3350018  25.0352224  50.4840142
   0.8189066  24.2510680  50.2970071   2.2189966  24.7070940  50.6486662
   7.0032079  29.3057187  49.5787896   7.7335468  29.0442475  50.1395599
   6.3939025  28.5685909  49.6189964   5.0847376  27.4465050  50.1762347
   4.3580540  27.3121015  49.5678838   4.6694663  27.7541878  50.9819065
   2.7025171  23.6676902  47.5295778   3.2969662  23.4272638  46.8189087
   2.7751755  22.9484032  48.1569315   5.0096244  26.9743103  46.3039200
   4.4495802  27.0436292  47.0770762   4.4039747  26.7984087  45.5838696
   6.5952262  43.6499617  48.9969155   7.2330672  43.5306364  48.2932495
   6.4773105  44.5980461  49.0557108   3.4041969  43.6027045  48.9330680
   3.0660480  43.4868109  48.0451215   4.2731737  43.2018210  48.9131686
   3.8861752  44.7561896  54.8916886   3.8750392  44.3614695  54.0197389
   4.0482391  44.0227969  55.4850657   4.8428343  49.1233489  40.2342036
   4.1916323  49.7087569  39.8476050   5.6372706  49.6539684  40.2937073
   1.5325220  44.9175857  50.4297429   2.1288792  44.6931879  49.7154392
   1.5900191  44.1760602  51.0322877   6.1493531  41.3751070  46.0722363
   6.9356620  40.9570494  45.7212780   6.4132235  42.2797163  46.2404012
   6.3203608  46.8123921  40.7711020   5.6849441  46.8858547  41.4831925
   5.9901015  47.4017520  40.0930099  11.5501958  41.3126304  46.9755342
  12.2827130  40.7425520  47.2093171  10.7941314  40.9247904  47.4161848
   0.8246537  44.2743398  40.4671995   0.7082795  43.5988301  41.1353079
   0.9348797  43.7875772  39.6504148   3.1678078  43.7353545  44.1718684
   2.8036285  43.2084166  44.8831606   4.0245194  43.3452014  43.9985170
   9.0727378  35.0247878  51.4349951   8.7410703  35.8943289  51.2111166
   8.4772992  34.7084162  52.1143981   2.8083565  38.7643445  39.1680033
   2.9757967  39.6323681  39.5350504   2.6180734  38.9270726  38.2441322
   5.5658898  47.2260424  50.8345863   5.2659621  48.1285463  50.7261670
   5.2209957  46.9592607  51.6867016   8.9656042  39.7442964  48.5143301
   8.0572919  39.6758372  48.2202062   8.9143638  40.2214909  49.3425126
   2.7872786  41.2201102  40.1526700   2.6672411  41.6658153  40.9912180
   2.0925374  41.5686420  39.5940238   3.0396908  41.1632609  56.4578198
   2.2630242  41.7226530  56.4481062   3.6787471  41.6489392  56.9793068
  10.8317688  37.9459402  50.2921175  10.1892068  38.2391935  49.6460969
  10.3272617  37.8312323  51.0974371   8.4857852  41.6922575  40.9807034
   9.3975708  41.9249962  40.8054731   7.9767499  42.2759620  40.4182112
   1.2943280  43.9718063  56.0196165   2.0357964  44.5103107  55.7430988
   0.5880265  44.5984352  56.1767717   6.7698619  46.1147203  54.6168326
   7.1781976  45.6729614  53.8722959   6.0475881  45.5399831  54.8702519
   3.1229690  41.0519810  51.9901883   3.9690885  41.4759224  52.1336532
   3.0628327  40.3953434  52.6840446   7.0927434  46.6748394  48.3720615
   6.4636297  46.8394108  47.6696683   6.7053096  47.0890003  49.1431579
  10.9716666  47.6102832  45.7264979  10.2867704  47.9901733  45.1762012
  11.0560515  48.2198158  46.4596927   6.2729135  38.7124178  53.6483057
   6.0290067  39.4666239  53.1117333   6.5489065  39.0909526  54.4830304
   8.2267598  45.2562791  52.3260323   8.4384493  45.8994551  51.6494704
   8.1797346  44.4225107  51.8582253   5.8293827  37.8680611  49.2296895
   4.9678306  38.1661865  49.5213632   5.8556261  38.0851010  48.2977927
   2.6455396  46.4122802  45.6370700   3.1093742  46.6910505  44.8475323
   2.3812194  45.5106247  45.4543791   1.5824282  42.5345954  42.4460265
   2.2848325  42.9866998  42.9134192   1.2504911  41.8929773  43.0740159
   9.3413426  48.1334746  50.4982680  10.1630869  47.7314933  50.2165361
   9.3375828  48.0302980  51.4498796   3.1070029  47.6818790  52.6543390
   3.1714462  48.1439197  53.4901562   2.3980953  47.0516154  52.7825700
  17.4319419  44.4773495  46.8467651  16.6783127  43.9080893  46.6911656
  17.5666960  44.4436159  47.7938286   2.8218047  49.3486897  42.5222371
   2.6863721  50.1938433  42.9507218   3.3627859  49.5506175  41.7588304
   2.2253347  36.8436356  56.7756982   2.9663061  37.4443509  56.6961445
   2.4571270  36.1013994  56.2175025   4.4486523  49.9710464  56.6522713
   4.0050377  49.1846842  56.3343617   5.1103737  50.1589614  55.9866604
   6.5467761  50.2513263  54.6804114   6.5286236  51.0722144  54.1884383
   7.4687681  50.1267339  54.9054255   3.0040815  47.7657393  55.5227622
   3.5369152  47.0045681  55.2926930   2.4754896  47.4731045  56.2651777
   6.1710510  32.8717459  51.0521264   5.8274780  33.7619101  50.9760375
   6.5389473  32.6819117  50.1890849   6.1360793  42.8626070  39.5593699
   5.6207416  43.6330675  39.7982087   5.8638101  42.1891206  40.1826761
   3.7207904  37.7075771  44.6178938   2.8649500  37.3182621  44.4384576
   4.1334856  37.7867732  43.7578723   5.2507051  35.2422114  49.0170497
   4.7471846  35.2052249  48.2038303   5.5437657  36.1514857  49.0767154
   1.4949937  35.3260844  48.0236679   2.3602933  35.1303652  47.6642569
   1.5627445  35.0971196  48.9506036  11.1095067  45.6158425  41.4946873
  10.3324510  45.2769584  41.0502035  11.7886548  45.6211048  40.8201838
   5.9247096  40.7353162  41.3853480   5.6197232  41.0499311  42.2363624
   6.8777538  40.8134582  41.4280813   4.3693528  46.8943385  43.0346434
   3.8414890  46.1596145  42.7219672   3.8681031  47.6718062  42.7886403
   9.3486374  45.0892406  48.1513481   8.6910048  45.7791667  48.2393609
  10.1526773  45.4788838  48.4947467   8.1591833  43.4436779  46.2017422
   8.6723715  44.0766770  46.7039132   8.8093057  42.8437974  45.8360782
   1.4034923  34.4304301  44.1228115   0.7499336  34.1153318  43.4984730
   1.3615397  33.8080041  44.8487938   2.5146128  44.7123596  36.0381407
   1.6073190  44.4812849  36.2372556   3.0117160  43.9161215  36.2255389
   5.4214207  53.4221103  38.9578094   4.7475906  53.7252800  39.5663051
   5.8080029  54.2250183  38.6083551   4.6372664  40.9186234  48.4475763
   3.7195225  41.1401181  48.2897451   5.0532807  40.9932545  47.5887470
   5.4207711  42.3177650  43.5778443   6.1679530  42.8299047  43.2685565
   5.6899301  41.9961703  44.4382837   3.6934362  44.8136191  40.5605398
   2.7845581  44.5295223  40.6577867   3.7229445  45.2335269  39.7008704
   8.9253629  48.4242780  44.3296565   8.4715956  47.5833690  44.3861756
   8.2947596  49.0604178  44.6671345   7.8686549  39.3534766  45.5597233
   7.1309305  38.8412152  45.8907475   8.1213322  38.9135148  44.7480509
   7.3686568  50.2619277  45.2646383   7.6609543  50.8224334  44.5458749
   7.8785189  50.5547838  46.0199542   7.9698176  32.1311018  46.1539002
   8.2757053  31.2708382  45.8664917   8.6950781  32.7228638  45.9537996
   2.2419256  42.4264811  46.6615193   2.2967865  41.4738648  46.5857669
   1.4310458  42.5824250  47.1456491   3.3910449  46.3544934  37.8993476
   2.9529879  45.6380793  37.4399113   4.1320890  46.5821049  37.3378568
   2.3320193  51.0399628  46.3539836   2.2896372  51.2660474  45.4248368
   3.2482892  50.8063002  46.5025638   5.7785827  41.5083695  53.2520466
   6.1335215  41.7355168  54.1114931   6.4257958  41.8402072  52.6297721
  11.5083564  44.6302131  43.9569795  11.3701463  44.8203727  43.0290984
  11.1519783  45.3921514  44.4137846  11.5352944  46.6978658  48.9681066
  11.9689450  46.6053947  49.8164120  12.2484524  46.6736159  48.3301082
   5.2680839  50.2980752  50.5014167   5.3217861  50.8671689  51.2691883
   4.3995620  50.4682637  50.1368204  12.3968493  46.7402359  51.5013952
  12.5904383  47.6448169  51.7473227  12.2969112  46.2809778  52.3352537
   4.0504804  36.6260249  54.0004279   3.4032719  37.3250199  53.9068755
   4.8205819  37.0596393  54.3680527   7.4583602  46.8909102  57.0754832
   7.3069108  46.6619653  56.1584916   7.4488281  47.8479703  57.0886177
   4.2268938  44.4641014  52.0601099   5.1560998  44.6152174  51.8870066
   3.8059968  44.5525035  51.2049745   3.0257270  48.4891679  49.8299636
   2.8868356  48.1210463  50.7025574   2.2371866  49.0039318  49.6583594
   3.6205422  53.5900775  41.1725173   3.7957178  53.1188818  41.9870795
   2.9338210  54.2166541  41.4006434   4.5762485  47.8673282  47.2188474
   4.2412318  47.8274051  48.1146124   4.0766431  47.2017997  46.7458884
   7.5121677  45.2129316  37.4925534   6.8950848  44.4876144  37.3958586
   7.0438165  45.9738676  37.1492608   1.1789030  42.9860871  52.2324735
   1.8888649  42.3454063  52.1911353   1.1358338  43.2373766  53.1550916
   9.1675809  49.9228224  55.1531314   9.1088355  49.2387444  54.4861897
   9.5695327  50.6647214  54.7011940   9.1693216  47.8867808  53.3845294
   8.2819995  47.5493730  53.5071693   9.7391767  47.1550839  53.6214059
   2.6994369  52.5469260  50.3506537   2.6264541  53.3524232  50.8625842
   2.2571762  52.7461226  49.5254558   2.4884149  51.7841031  43.8609358
   1.7051671  52.3262711  43.9547583   3.1876894  52.3015010  44.2603600
   5.7980799  37.5935660  46.5043564   6.2949499  36.8405622  46.1844634
   5.0267781  37.6299977  45.9386773  13.6510556  43.2976026  48.1461855
  13.6400433  44.1800741  47.7755788  12.7827936  42.9447576  47.9516392
   5.1593053  52.4456095  52.5064696   5.8721025  53.0803559  52.4340597
   4.6683081  52.5419961  51.6904697   6.8810580  46.3507347  44.0781987
   5.9466858  46.4708810  43.9086692   7.0587248  45.4479814  43.8141997
   2.3815768  39.7353043  46.2315248   2.0113555  39.1824083  46.9196154
   2.8774860  39.1311176  45.6790249  10.2683131  42.1924666  44.6132021
  10.7343583  43.0252658  44.5392324  10.7190632  41.7269648  45.3177280
   8.3359362  48.5368488  41.6118173   8.6119206  48.4225082  42.5212048
   7.4663861  48.1385973  41.5730347   8.2399794  34.5605253  48.6522923
   7.3262874  34.7909480  48.8205130   8.6692895  34.6443698  49.5036955
   8.0106252  42.7495145  51.1522817   7.3577703  42.9971053  50.4975270
   8.3886632  41.9359284  50.8185294   4.9713426  52.7854839  45.2550987
   5.1535821  51.9676495  45.7178739   5.7946412  53.0022531  44.8175877
   5.3055592  51.7123024  42.5166036   5.8343358  51.2015478  41.9036198
   5.5683811  51.3965554  43.3811569   4.0593825  43.4914956  57.6388854
   3.3834462  43.3909086  58.3091229   4.8821459  43.3354170  58.1024851
   2.8016608  54.7981884  51.8746470   3.3534916  54.9613505  52.6395555
   3.1422802  55.3886322  51.2026495   7.6527483  49.6243141  57.7295124
   8.1967387  50.2373100  57.2350079   7.0714327  50.1822720  58.2462137
   5.9384996  52.7463859  48.8610152   5.8136135  51.9453599  48.3521098
   6.5964087  53.2410053  48.3724122   8.0019904  50.5472880  50.4889702
   7.0550239  50.4278231  50.4168029   8.3502677  49.6595378  50.5715964
   5.0066337  50.3425596  46.6894054   4.8591300  49.4142303  46.8701624
   5.8319831  50.3645686  46.2051130   8.6100459  51.1654154  47.7758927
   9.5347007  50.9597016  47.6383378   8.4415762  50.9170556  48.6848269
   1.5672022  37.3780714  51.9977615   1.2268843  36.5788527  52.3998294
   0.8611029  37.6782424  51.4254448   2.2188494  34.4630026  50.4504938
   3.0414563  33.9890504  50.3283828   2.4626558  35.2420510  50.9503624
   5.0027852  38.1963433  41.6826172   5.2191466  39.0788071  41.3815000
   4.5221919  37.8049647  40.9531814   1.6023456  38.1451695  48.3077806
   1.5885025  37.2492788  47.9710104   2.3195884  38.1522358  48.9416092
   3.4549587  38.5789035  50.3530933   3.1967364  39.5006105  50.3515264
   2.9234627  38.1819469  51.0431397   8.3995775  51.6839822  43.1321019
   8.5732653  51.1186244  42.3794871   8.8924667  52.4840717  42.9500508
   1.0060352  37.0266075  43.5765376   1.1276263  36.0982721  43.7756263
   0.7162394  37.0404761  42.6643691   3.8751542  34.7120985  46.7132096
   3.8973239  34.7760318  45.7584075   4.2919601  33.8725494  46.9072602
  14.2535166  44.4476245  44.7511318  14.6966312  43.6983570  44.3530442
  13.3761677  44.4386381  44.3685050   9.3870948  51.0006586  40.2317917
  10.0821852  51.6213279  40.4505231   9.7294098  50.1501938  40.5070295
  11.2862371  48.4506292  41.7605248  11.8113695  48.7893565  41.0354568
  11.1984723  47.5153307  41.5768382   2.9482420  52.3640366  53.8895124
   3.2569546  52.1189512  54.7617824   3.7457902  52.5687004  53.4013994
   2.9703032  54.5178275  46.1200501   2.5308022  54.0254654  46.8133357
   3.7211149  53.9751243  45.8792576   0.4901431  38.5398072  57.7855308
   0.5389587  39.4160195  57.4033078   1.0323945  37.9975465  57.2126952
  10.9756277  49.0839196  57.0656446  10.1851821  49.0663334  56.5260945
  10.7389632  49.6227489  57.8205482  11.0954152  45.9331662  54.3789174
  11.1452157  45.7681669  55.3204697  10.9868075  45.0658921  53.9887055
   8.3857914  41.9162590  55.6948481   9.2867777  41.7769055  55.4032479
   8.4605889  42.0817045  56.6346658   2.7200720  39.2929445  54.5401667
   1.8504029  39.5863011  54.2684256   2.9560200  39.8769890  55.2608931
  12.5972349  48.3528603  54.6231196  12.3057157  48.7158584  55.4594657
  11.9844480  47.6395612  54.4444528  13.7968031  45.9181483  47.1433766
  14.6314923  46.3571287  47.3071326  13.9327160  45.4420136  46.3242012
  10.8459537  43.4761218  53.0911254  11.3213659  43.6688864  52.2830105
   9.9225102  43.5320404  52.8454637   5.4239754  35.5109062  52.0567088
   5.9421697  36.2470089  51.7313576   5.0694886  35.8173055  52.8913847
   5.6752348  31.9309344  47.5767984   5.9554101  31.2632533  48.2028411
   6.4602955  32.1238440  47.0642648   3.4785816  51.1068338  39.1393010
   2.9059783  51.7258525  38.6863482   4.0518610  51.6567700  39.6732932
   9.5461206  40.3526978  51.3239559  10.4978629  40.4525076  51.3451783
   9.3764656  39.5605247  51.8337644   7.5675586  37.4382561  51.5098960
   6.9725518  37.7187574  50.8145449   7.2825282  37.9276462  52.2815701
   6.6983076  51.3905488  40.2701593   7.6313749  51.3251050  40.4734468
   6.6106289  52.2261755  39.8116125   9.3271093  50.7071359  37.2305540
   9.2484724  50.3731222  38.1241298  10.1480759  51.1993126  37.2297013
  12.0249284  43.5733098  50.4381859  11.9925604  42.6349099  50.6241543
  12.6349908  43.6517135  49.7047684   3.8632615  42.4429151  36.4809063
   4.8091719  42.3135359  36.5497481   3.4846860  41.7043813  36.9578491
  12.1743772  40.3644141  50.4840142  11.6582821  39.5802598  50.2970071
  13.0583721  40.0362858  50.6486662   9.8354499  34.1085157  46.4435955
   9.6379320  33.8000245  47.3279287  10.4454205  34.8346796  46.5733885
  17.8425834  44.6349105  49.5787896  18.5729222  44.3734393  50.1395599
  17.2332779  43.8977827  49.6189964  15.9241131  42.7756967  50.1762347
  15.1974294  42.6412932  49.5678838  15.5088418  43.0833796  50.9819065
   3.7471307  46.4946897  57.9409720   4.6674317  46.6725496  58.1349766
   3.7120890  45.5502942  57.7889419   2.0475532  40.3679127  36.4163948
   1.1406987  40.0712240  36.4926662   2.3251513  40.0708945  35.5498234
   3.6637598  34.9116017  42.5708189   2.8538326  34.5663102  42.9463436
   4.3522015  34.6023561  43.1595801   5.5928146  33.9894064  44.1932486
   6.1459184  34.4089517  44.8522509   5.8298232  33.0629812  44.2355442
   1.6161245  39.9781137  59.9735250   1.5157972  40.9275494  59.9047341
   1.3982787  39.6499376  59.1011320   0.8174316  37.2266062  36.5575927
   1.6793480  37.5520961  36.8171745   1.0024661  36.4397558  36.0448993
   8.9706953  36.0994589  43.7011150   8.3905622  36.7579393  43.3189203
   8.7042886  35.2771933  43.2898568   7.4210519  35.4999647  45.9032471
   7.9210298  35.6116181  45.0946790   8.0646127  35.1960699  46.5433279
   1.4792515  43.4078276  58.7900312   0.9959597  44.2078636  58.9964201
   1.5653454  43.4186221  57.8367756   7.7531831  38.2594679  42.7567499
   6.8657686  38.5444330  42.5387693   8.1685820  38.0988443  41.9094775
  11.1046367  38.2841200  46.4721838  11.8806757  38.7737653  46.7446455
  10.3794501  38.7099254  46.9293707  13.5418926  38.9968819  47.5295778
  14.1363417  38.7564555  46.8189087  13.6145509  38.2775950  48.1569315
   6.8975044  48.0239354  36.8515519   7.6010895  48.2289356  37.4673174
   6.1737693  48.5916116  37.1164602   7.7272855  43.7749215  42.9717789
   7.6708056  44.2317767  42.1325421   8.2801197  43.0139900  42.7940632
  11.5377661  39.5638947  43.7967908  11.2814595  39.1635583  44.6276116
  10.9130529  40.2782741  43.6718047  15.8489998  42.3035020  46.3039200
  15.2889556  42.3728210  47.0770762  15.2433502  42.1276005  45.5838696
   8.8061742  48.4621883  38.9013979   9.6407346  48.0303082  38.7191453
   8.6446085  48.2903897  39.8290873   8.4607634  44.9653996  40.2670318
   8.4056438  44.7998268  39.3258762   7.8353689  45.6730029  40.4232508
   5.7753541  47.2702908  59.5923881   6.6444701  47.4443561  59.2310516
   5.2960293  48.0897325  59.4699610   1.7703760  34.4662105  39.8455636
   1.7582429  35.4103945  40.0023907   2.6627181  34.2832251  39.5515098
   1.6993323  53.1430996  47.9323393   0.7488954  53.1432857  47.8187765
   2.0025810  52.3963730  47.4159428   5.5855879  31.0604882  44.1001573
   4.8188275  30.5063369  44.2458255   5.9966584  31.1326751  44.9615725
  17.4346017  58.9791534  48.9969155  18.0724427  58.8598282  48.2932495
  17.3166860  59.9272378  49.0557108  14.2435723  58.9318962  48.9330680
  13.9054235  58.8160027  48.0451215  15.1125491  58.5310127  48.9131686
  10.1022539  60.7854439  44.9227571   9.5387404  60.6944376  44.1543859
   9.9874934  59.9654343  45.4030064  14.7255506  60.0853814  54.8916886
  14.7144147  59.6906612  54.0197389  14.8876146  59.3519887  55.4850657
   7.6486971  62.2805630  47.7611791   8.4408263  61.9396455  47.3458091
   7.8883621  62.3900605  48.6813945  15.6822098  64.4525406  40.2342036
  15.0310077  65.0379487  39.8476050  16.4766460  64.9831601  40.2937073
   9.6077725  61.5414544  40.6329170  10.3808601  60.9943531  40.4942046
   9.9603124  62.4058793  40.8443632  11.4462767  62.8690926  53.8396070
  11.1552633  63.7736557  53.7242736  12.0819752  62.9107453  54.5540139
  12.3718974  60.2467774  50.4297429  12.9682546  60.0223797  49.7154392
  12.4293946  59.5052520  51.0322877  11.9444003  57.7007210  38.2647620
  12.1969523  57.1788731  37.5031083  11.0068562  57.5373355  38.3674304
  16.9887285  56.7042988  46.0722363  17.7750375  56.2862411  45.7212780
  17.2525990  57.6089080  46.2404012  17.1597363  62.1415838  40.7711020
  16.5243196  62.2150465  41.4831925  16.8294769  62.7309437  40.0930099
  22.3895713  56.6418221  46.9755342  23.1220885  56.0717438  47.2093171
  21.6335068  56.2539822  47.4161848  11.6640291  59.6035316  40.4671995
  11.5476549  58.9280219  41.1353079  11.7742551  59.1167690  39.6504148
  14.0071832  59.0645463  44.1718684  13.6430040  58.5376084  44.8831606
  14.8638948  58.6743932  43.9985170  19.9121133  50.3539795  51.4349951
  19.5804458  51.2235206  51.2111166  19.3166746  50.0376079  52.1143981
  13.6477319  54.0935362  39.1680033  13.8151722  54.9615599  39.5350504
  13.4574488  54.2562644  38.2441322  16.4052652  62.5552341  50.8345863
  16.1053376  63.4577380  50.7261670  16.0603712  62.2884525  51.6867016
   9.8565134  59.0066138  46.8682568   8.9315630  58.8742352  47.0760259
  10.1049547  59.7860357  47.3652510  19.8049796  55.0734882  48.5143301
  18.8966674  55.0050290  48.2202062  19.7537392  55.5506826  49.3425126
  13.6266540  56.5493020  40.1526700  13.5066165  56.9950071  40.9912180
  12.9319129  56.8978338  39.5940238   7.2173945  58.6499412  47.7026357
   7.3466326  58.9033891  48.6165768   6.5371396  59.2427120  47.3831012
  11.3873432  69.3196662  43.8016831  11.3097462  70.2704487  43.8805312
  10.7835076  68.9742534  44.4591757  13.8790662  56.4924527  56.4578198
  13.1023996  57.0518447  56.4481062  14.5181225  56.9781310  56.9793068
  21.6711443  53.2751320  50.2921175  21.0285823  53.5683853  49.6460969
  21.1666371  53.1604240  51.0974371  19.3251606  57.0214493  40.9807034
  20.2369462  57.2541880  40.8054731  18.8161253  57.6051537  40.4182112
  12.1337034  59.3009981  56.0196165  12.8751719  59.8395024  55.7430988
  11.4274020  59.9276269  56.1767717  17.6092374  61.4439121  54.6168326
  18.0175730  61.0021531  53.8722959  16.8869635  60.8691748  54.8702519
  13.9623444  56.3811728  51.9901883  14.8084639  56.8051141  52.1336532
  13.9022082  55.7245352  52.6840446  17.9321189  62.0040312  48.3720615
  17.3030051  62.1686026  47.6696683  17.5446851  62.4181921  49.1431579
  21.8110421  62.9394749  45.7264979  21.1261459  63.3193651  45.1762012
  21.8954270  63.5490076  46.4596927  17.1122889  54.0416096  53.6483057
  16.8683821  54.7958157  53.1117333  17.3882820  54.4201444  54.4830304
  19.0661352  60.5854708  52.3260323  19.2778247  61.2286468  51.6494704
  19.0191100  59.7517025  51.8582253  16.6687581  53.1972529  49.2296895
  15.8072060  53.4953783  49.5213632  16.6950016  53.4142928  48.2977927
  13.4849150  61.7414720  45.6370700  13.9487496  62.0202423  44.8475323
  13.2205949  60.8398164  45.4543791  10.3773232  61.2886201  48.5750464
  10.9474589  61.7173470  47.9367948  10.9681343  61.0068786  49.2734649
  12.4218037  57.8637872  42.4460265  13.1242080  58.3158916  42.9134192
  12.0898665  57.2221691  43.0740159  10.8698398  56.4549629  56.8211475
  10.2397059  57.1365910  57.0546872  10.7634486  56.3432710  55.8764613
   6.1643370  56.1221425  47.7477399   5.3742424  56.3778953  47.2717510
   6.6554618  56.9369763  47.8529440  20.1807180  63.4626664  50.4982680
  21.0024624  63.0606851  50.2165361  20.1769583  63.3594898  51.4498796
   8.1158116  56.4866004  44.7060876   7.3189279  56.5984698  45.2244371
   7.8883708  56.8252656  43.8401766  13.9463784  63.0110707  52.6543390
  14.0108216  63.4731114  53.4901562  13.2374707  62.3808072  52.7825700
   4.4481073  56.3751915  50.1792390   4.6989112  57.2598925  50.4449966
   4.9840622  56.1956517  49.4067482  28.2713173  59.8065412  46.8467651
  27.5176881  59.2372810  46.6911656  28.4060714  59.7728077  47.7938286
  13.6611801  64.6778815  42.5222371  13.5257476  65.5230350  42.9507218
  14.2021614  64.8798092  41.7588304  10.1479141  50.7570395  59.1836726
   9.7546086  50.2036593  59.8584370  10.9645281  51.0680973  59.5743243
   7.1141199  62.1954253  43.0950296   7.6265719  62.9897503  43.2455860
   7.7663911  61.4980543  43.0283897   8.9236083  65.3120009  45.1773049
   9.1002712  66.2337974  44.9894033   9.7192917  64.9978428  45.6067429
  13.0647102  52.1728274  56.7756982  13.8056815  52.7735427  56.6961445
  13.2965025  51.4305911  56.2175025   8.2088440  57.3584641  55.0535212
   8.0941955  56.4569898  55.3542311   7.3532958  57.6048338  54.7020029
  15.2880278  65.3002381  56.6522713  14.8444132  64.5138760  56.3343617
  15.9497491  65.4881532  55.9866604  10.0467399  66.8298183  51.1783391
  10.5974824  66.7015246  50.4060385   9.2078875  67.1293072  50.8278284
  17.3861516  65.5805181  54.6804114  17.3679991  66.4014062  54.1884383
  18.3081436  65.4559256  54.9054255  13.8434570  63.0949311  55.5227622
  14.3762907  62.3337599  55.2926930  13.3148651  62.8022962  56.2651777
  17.0104265  48.2009377  51.0521264  16.6668534  49.0911018  50.9760375
  17.3783227  48.0111034  50.1890849   5.0790115  60.5242907  43.8709866
   5.9165337  60.9339915  43.6543574   5.2568383  59.5842349  43.8410060
  16.9754547  58.1917988  39.5593699  16.4601171  58.9622592  39.7982087
  16.7031856  57.5183124  40.1826761  14.5601658  53.0367688  44.6178938
  13.7043255  52.6474539  44.4384576  14.9728610  53.1159649  43.7578723
  16.0900805  50.5714032  49.0170497  15.5865601  50.5344167  48.2038303
  16.3831412  51.4806774  49.0767154  12.3343691  50.6552761  48.0236679
  13.1996688  50.4595570  47.6642569  12.4021200  50.4263113  48.9506036
  21.9488822  60.9450342  41.4946873  21.1718264  60.6061502  41.0502035
  22.6280303  60.9502965  40.8201838  16.7640851  56.0645080  41.3853480
  16.4590986  56.3791229  42.2363624  17.7171293  56.1426500  41.4280813
  15.2087282  62.2235303  43.0346434  14.6808644  61.4888063  42.7219672
  14.7074785  63.0009979  42.7886403  20.1880128  60.4184324  48.1513481
  19.5303803  61.1083585  48.2393609  20.9920528  60.8080756  48.4947467
   9.9406010  52.8854969  45.3953046  10.5149762  52.6630151  44.6626239
  10.5276993  52.9543664  46.1481647  18.9985587  58.7728696  46.2017422
  19.5117469  59.4058688  46.7039132  19.6486811  58.1729892  45.8360782
  10.2675597  54.9159430  39.4148931   9.4312909  55.2534117  39.7358206
  10.1280367  54.7808410  38.4776068  12.2428678  49.7596218  44.1228115
  11.5893090  49.4445235  43.4984730  12.2009152  49.1371959  44.8487938
  13.3539883  60.0415513  36.0381407  12.4466944  59.8104767  36.2372556
  13.8510915  59.2453133  36.2255389  16.2607962  68.7513021  38.9578094
  15.5869660  69.0544717  39.5663051  16.6473783  69.5542101  38.6083551
  15.4766418  56.2478152  48.4475763  14.5588980  56.4693099  48.2897451
  15.8926562  56.3224462  47.5887470  16.2601466  57.6469567  43.5778443
  17.0073285  58.1590965  43.2685565  16.5293055  57.3253620  44.4382837
  14.5328116  60.1428108  40.5605398  13.6239335  59.8587141  40.6577867
  14.5623200  60.5627187  39.7008704  19.7647384  63.7534698  44.3296565
  19.3109711  62.9125608  44.3861756  19.1341350  64.3896096  44.6671345
  18.7080303  54.6826684  45.5597233  17.9703060  54.1704070  45.8907475
  18.9607077  54.2427065  44.7480509  18.2080323  65.5911194  45.2646383
  18.5003297  66.1516252  44.5458749  18.7178943  65.8839755  46.0199542
  18.8091930  47.4602936  46.1539002  19.1150807  46.6000299  45.8664917
  19.5344535  48.0520556  45.9537996   5.1016286  57.8633622  44.5420600
   4.9040686  57.2702983  43.8171666   4.5462950  57.5585833  45.2596539
  13.0813010  57.7556729  46.6615193  13.1361620  56.8030565  46.5857669
  12.2704212  57.9116168  47.1456491  14.2304204  61.6836852  37.8993476
  13.7923634  60.9672711  37.4399113  14.9714645  61.9112967  37.3378568
  11.0205370  56.3733789  44.4205572  10.2073236  56.6727959  44.8270764
  11.5164364  55.9789477  45.1380054  13.1713948  66.3691545  46.3539836
  13.1290127  66.5952392  45.4248368  14.0876647  66.1354920  46.5025638
  16.6179582  56.8375613  53.2520466  16.9728969  57.0647086  54.1114931
  17.2651713  57.1693990  52.6297721  22.3477319  59.9594049  43.9569795
  22.2095217  60.1495645  43.0290984  21.9913537  60.7213432  44.4137846
  10.5119445  53.9452144  50.0366807  11.1518824  53.8040903  49.3389770
   9.6796975  53.6586657  49.6605409  22.3746698  62.0270576  48.9681066
  22.8083205  61.9345865  49.8164120  23.0878279  62.0028076  48.3301082
  11.2879749  63.2454575  46.1501799  12.0820347  62.7504895  45.9484374
  10.5771441  62.7172438  45.7869505  16.1074593  65.6272670  50.5014167
  16.1611615  66.1963606  51.2691883  15.2389375  65.7974555  50.1368204
   7.5962512  57.3897656  42.2261552   6.6660100  57.3282112  42.4431514
   7.6919984  56.8673609  41.4298193   7.5148061  53.9152469  44.8139794
   7.7754879  54.8297802  44.7048954   8.3365234  53.4476912  44.9636406
   8.9872987  55.3290226  51.9838618   9.6596040  55.1207588  51.3351267
   8.1602773  55.1312312  51.5443850  23.2362248  62.0694277  51.5013952
  23.4298138  62.9740087  51.7473227  23.1362866  61.6101696  52.3352537
  14.8898559  51.9552167  54.0004279  14.2426474  52.6542117  53.9068755
  15.6599574  52.3888311  54.3680527  18.2977357  62.2201019  57.0754832
  18.1462863  61.9911571  56.1584916  18.2882036  63.1771621  57.0886177
  15.0662693  59.7932932  52.0601099  15.9954753  59.9444092  51.8870066
  14.6453723  59.8816953  51.2049745  13.8651025  63.8183596  49.8299636
  13.7262110  63.4502381  50.7025574  13.0765621  64.3331236  49.6583594
  14.4599177  68.9192693  41.1725173  14.6350932  68.4480736  41.9870795
  13.7731965  69.5458459  41.4006434  15.4156240  63.1965199  47.2188474
  15.0806072  63.1565969  48.1146124  14.9160186  62.5309915  46.7458884
   9.3900484  58.6032829  52.7441055   9.2520282  57.8713068  53.3452594
  10.3005407  58.5141729  52.4625243  18.3515431  60.5421234  37.4925534
  17.7344602  59.8168062  37.3958586  17.8831920  61.3030594  37.1492608
  12.0182784  58.3152789  52.2324735  12.7282403  57.6745981  52.1911353
  11.9752093  58.5665683  53.1550916  20.0069563  65.2520142  55.1531314
  19.9482109  64.5679362  54.4861897  20.4089082  65.9939132  54.7011940
  10.7311718  55.3018006  54.0520374  10.1949075  54.8508745  54.7041971
  10.1428427  55.4363915  53.3090839   9.0260262  72.0682056  47.9465033
   9.2656860  72.7000580  48.6244052   8.1829458  71.7170096  48.2330392
  10.1413977  54.7606658  36.6146838   9.2643444  54.6395459  36.2509085
  10.6171730  53.9692736  36.3625727  20.0086970  63.2159726  53.3845294
  19.1213749  62.8785648  53.5071693  20.5785521  62.4842757  53.6214059
   1.6616118  59.5483818  46.7088345   2.3487157  59.2345548  46.1209360
   1.5064246  60.4525182  46.4355597   6.4650840  54.4374014  51.1373369
   6.3809028  53.8299684  50.4023779   5.6433546  54.9283032  51.1382865
  13.5388124  67.8761178  50.3506537  13.4658295  68.6816150  50.8625842
  13.0965517  68.0753144  49.5254558  13.3277903  67.1132948  43.8609358
  12.5445425  67.6554628  43.9547583  14.0270649  67.6306928  44.2603600
  16.6374554  52.9227578  46.5043564  17.1343253  52.1697540  46.1844634
  15.8661535  52.9591894  45.9386773  24.4904311  58.6267943  48.1461855
  24.4794187  59.5092659  47.7755788  23.6221690  58.2739494  47.9516392
  15.9986807  67.7748012  52.5064696  16.7114780  68.4095477  52.4340597
  15.5076836  67.8711878  51.6904697  17.7204334  61.6799265  44.0781987
  16.7860613  61.8000727  43.9086692  17.8981003  60.7771732  43.8141997
  13.2209522  55.0644961  46.2315248  12.8507310  54.5116001  46.9196154
  13.7168615  54.4603094  45.6790249  21.1076886  57.5216584  44.6132021
  21.5737338  58.3544576  44.5392324  21.5584386  57.0561566  45.3177280
  11.0498721  65.5242456  53.3270266  11.7508180  66.1578939  53.4799661
  10.5793836  65.8657187  52.5665906  19.1753117  63.8660405  41.6118173
  19.4512961  63.7517000  42.5212048  18.3057615  63.4677890  41.5730347
  19.0793548  49.8897171  48.6522923  18.1656628  50.1201398  48.8205130
  19.5086650  49.9735615  49.5036955  18.8500007  58.0787063  51.1522817
  18.1971457  58.3262971  50.4975270  19.2280387  57.2651201  50.8185294
  15.8107181  68.1146756  45.2550987  15.9929575  67.2968412  45.7178739
  16.6340167  68.3314449  44.8175877  16.1449346  67.0414941  42.5166036
  16.6737113  66.5307396  41.9036198  16.4077566  66.7257472  43.3811569
  14.8987580  58.8206874  57.6388854  14.2228217  58.7201003  58.3091229
  15.7215214  58.6646088  58.1024851   6.6466439  65.0578811  50.2601369
   7.2319876  64.3122499  50.3929273   6.4491277  65.3682767  51.1438033
   9.5005094  68.0930058  45.2763811   8.8315469  68.5776186  44.7927852
   9.3617964  68.3399279  46.1907190   1.2384094  57.6284411  48.9805812
   1.2768193  57.0948002  49.7742930   0.7324386  57.1019616  48.3616789
  13.6410363  70.1273802  51.8746470  14.1928671  70.2905423  52.6395555
  13.9816556  70.7178239  51.2026495   8.6174856  52.4748951  52.4768355
   8.6816182  53.3363782  52.0645752   8.5541976  51.8622953  51.7440713
   8.0927129  54.5472084  56.1241389   8.7199167  54.1649161  56.7378913
   7.2355047  54.3286286  56.4897081  18.4921237  64.9535059  57.7295124
  19.0361141  65.5665017  57.2350079  17.9108082  65.5114638  58.2462137
   4.8692671  56.3548513  42.0559744   5.1646112  55.4459191  42.0026797
   3.9680707  56.3336253  41.7340746  16.7778750  68.0755777  48.8610152
  16.6529889  67.2745517  48.3521098  17.4357841  68.5701971  48.3724122
   8.3986918  54.4304510  48.0387292   7.6773504  55.0440477  47.8994766
   9.1880174  54.9662274  47.9603938  18.8413658  65.8764797  50.4889702
  17.8943994  65.7570148  50.4168029  19.1896432  64.9887295  50.5715964
  11.2013232  51.7658936  54.3127944  11.7247634  52.0121233  55.0754253
  10.9825565  52.5978971  53.8931081   6.5980513  54.0362611  42.1799069
   6.2693219  53.1559990  41.9974175   6.9519884  53.9810279  43.0675458
  15.8460092  65.6717513  46.6894054  15.6985054  64.7434221  46.8701624
  16.6713585  65.6937604  46.2051130   9.7122336  54.3235581  42.5474546
  10.0518409  54.8521502  41.8253155  10.1594456  54.6615987  43.3233113
  19.4494214  66.4946072  47.7758927  20.3740761  66.2888934  47.6383378
  19.2809517  66.2462473  48.6848269  12.4065777  52.7072631  51.9977615
  12.0662597  51.9080444  52.3998294  11.7004783  53.0074342  51.4254448
  13.0582249  49.7921944  50.4504938  13.8808318  49.3182422  50.3283828
  13.3020312  50.5712427  50.9503624  11.6990483  52.8210202  40.7467839
  12.4198846  53.1991455  40.2431556  11.0755787  53.5399079  40.8502817
  15.8421606  53.5255351  41.6826172  16.0585220  54.4079989  41.3815000
  15.3615673  53.1341565  40.9531814  10.5820827  56.4841064  48.2596916
  10.4365408  56.7981367  49.1521198  10.1046031  57.1025965  47.7067815
  12.4417210  53.4743612  48.3077806  12.4278779  52.5784706  47.9710104
  13.1589638  53.4814276  48.9416092  14.2943341  53.9080953  50.3530933
  14.0361119  54.8298023  50.3515264  13.7628381  53.5111387  51.0431397
  19.2389530  67.0131740  43.1321019  19.4126407  66.4478162  42.3794871
  19.7318421  67.8132635  42.9500508   5.0566490  59.0246409  51.1984577
   4.5119958  59.8006217  51.3304852   5.9345839  59.3717213  51.0403699
  11.8454106  52.3557993  43.5765376  11.9670017  51.4274639  43.7756263
  11.5556149  52.3696679  42.6643691  14.7145297  50.0412903  46.7132096
  14.7366993  50.1052236  45.7584075  15.1313356  49.2017412  46.9072602
  25.0928921  59.7768163  44.7511318  25.5360067  59.0275488  44.3530442
  24.2155431  59.7678299  44.3685050  20.2264702  66.3298504  40.2317917
  20.9215607  66.9505197  40.4505231  20.5687852  65.4793855  40.5070295
   5.8432511  58.1516305  54.0914734   5.1014247  58.2998940  54.6779365
   5.5225256  58.4124571  53.2281484  22.1256125  63.7798210  41.7605248
  22.6507449  64.1185482  41.0354568  22.0378478  62.8445225  41.5768382
  13.7876174  67.6932283  53.8895124  14.0963301  67.4481430  54.7617824
  14.5851656  67.8978922  53.4013994  13.8096786  69.8470193  46.1200501
  13.3701776  69.3546572  46.8133357  14.5604903  69.3043161  45.8792576
   6.2889125  66.0381734  46.1225129   7.1147145  65.7385506  45.7423772
   5.9383177  65.2689356  46.5714918  11.2570658  65.3908202  48.1922802
  10.6350668  64.7278907  47.8925030  11.9275525  65.4169334  47.5096450
   4.4897730  63.9568060  47.0814062   3.6529638  63.5290235  46.8998064
   4.4621376  64.1500504  48.0184854  11.3295186  53.8689990  57.7855308
  11.3783341  54.7452113  57.4033078  11.8717700  53.3267383  57.2126952
  21.8150031  64.4131113  57.0656446  21.0245575  64.3955252  56.5260945
  21.5783386  64.9519407  57.8205482  21.9347906  61.2623580  54.3789174
  21.9845911  61.0973587  55.3204697  21.8261830  60.3950839  53.9887055
  10.8184165  63.9412125  41.6681263  10.9672286  64.6247590  41.0147936
  11.6250609  63.9217215  42.1830719  19.2251669  57.2454508  55.6948481
  20.1261532  57.1060972  55.4032479  19.2999643  57.4108962  56.6346658
  13.5594474  54.6221362  54.5401667  12.6897784  54.9154928  54.2684256
  13.7953955  55.2061807  55.2608931  23.4366103  63.6820521  54.6231196
  23.1450912  64.0450502  55.4594657  22.8238235  62.9687529  54.4444528
  24.6361786  61.2473401  47.1433766  25.4708677  61.6863205  47.3071326
  24.7720914  60.7712054  46.3242012  21.6853292  58.8053136  53.0911254
  22.1607413  58.9980782  52.2830105  20.7618857  58.8612322  52.8454637
   8.5736798  59.9677303  42.6742332   8.3282840  59.0639633  42.8722542
   8.7432713  59.9694453  41.7321810  16.2633508  50.8400979  52.0567088
  16.7815452  51.5762006  51.7313576  15.9088641  51.1464973  52.8913847
   7.8432446  55.7005660  40.1728493   7.1501691  55.7750015  39.5168529
   7.5984198  54.9366004  40.6950010  16.5146102  47.2601262  47.5767984
  16.7947856  46.5924451  48.2028411  17.2996709  47.4530357  47.0642648
  14.3179571  66.4360256  39.1393010  13.7453538  67.0550443  38.6863482
  14.8912364  66.9859617  39.6732932  20.3854961  55.6818896  51.3239559
  21.3372383  55.7816993  51.3451783  20.2158411  54.8897164  51.8337644
  18.4069340  52.7674479  51.5098960  17.8119272  53.0479492  50.8145449
  18.1219037  53.2568380  52.2815701  17.5376830  66.7197406  40.2701593
  18.4707504  66.6542968  40.4734468  17.4500043  67.5553673  39.8116125
  20.1664847  66.0363276  37.2305540  20.0878479  65.7023140  38.1241298
  20.9874514  66.5285044  37.2297013  22.8643038  58.9025016  50.4381859
  22.8319358  57.9641016  50.6241543  23.4743662  58.9809052  49.7047684
  14.7026369  57.7721068  36.4809063  15.6485474  57.6427277  36.5497481
  14.3240614  57.0335730  36.9578491  23.0137527  55.6936059  50.4840142
  22.4976575  54.9094516  50.2970071  23.8977475  55.3654776  50.6486662
  20.6748254  49.4377075  46.4435955  20.4773075  49.1292163  47.3279287
  21.2847959  50.1638713  46.5733885  28.6819588  59.9641022  49.5787896
  29.4122977  59.7026310  50.1395599  28.0726534  59.2269744  49.6189964
  26.7634885  58.1048885  50.1762347  26.0368049  57.9704850  49.5678838
  26.3482172  58.4125714  50.9819065  14.5865062  61.8238815  57.9409720
  15.5068071  62.0017414  58.1349766  14.5514645  60.8794860  57.7889419
  12.8869286  55.6971045  36.4163948  11.9800742  55.4004158  36.4926662
  13.1645267  55.4000863  35.5498234   3.8047227  57.0177408  46.8662995
   3.4850011  56.1642716  46.5737369   3.2580655  57.2325986  47.6220962
   7.5827134  59.7339849  50.5832501   7.8013144  60.6656957  50.6020535
   7.9952908  59.3747824  51.3687305  14.5031352  50.2407935  42.5708189
  13.6932080  49.8955020  42.9463436  15.1915769  49.9315478  43.1595801
  16.4321900  49.3185981  44.1932486  16.9852939  49.7381435  44.8522509
  16.6691987  48.3921729  44.2355442  12.4555000  55.3073055  59.9735250
  12.3551726  56.2567412  59.9047341  12.2376542  54.9791294  59.1011320
  11.6568071  52.5557980  36.5575927  12.5187235  52.8812878  36.8171745
  11.8418415  51.7689476  36.0448993   3.6735487  60.6380320  48.8356116
   2.9798958  60.2234273  48.3226071   4.4208478  60.6800856  48.2389535
  19.8100707  51.4286507  43.7011150  19.2299377  52.0871311  43.3189203
  19.5436640  50.6063851  43.2898568  18.2604274  50.8291564  45.9032471
  18.7604052  50.9408099  45.0946790  18.9039882  50.5252617  46.5433279
  12.3186270  58.7370194  58.7900312  11.8353351  59.5370554  58.9964201
  12.4047209  58.7478139  57.8367756   5.5872229  60.5698574  46.7122131
   5.5642917  60.6686261  45.7604014   5.8972866  61.4163724  47.0339297
   8.2459607  62.6274729  50.8268745   9.2002861  62.5958671  50.7598677
   8.0472131  62.1665352  51.6418971   8.8358989  61.1975845  53.3939543
   9.6551878  61.6919923  53.4174380   9.1095797  60.2807813  53.3657111
  18.5925585  53.5886597  42.7567499  17.7051441  53.8736248  42.5387693
  19.0079575  53.4280360  41.9094775  21.9440122  53.6133118  46.4721838
  22.7200512  54.1029570  46.7446455  21.2188256  54.0391172  46.9293707
  24.3812680  54.3260737  47.5295778  24.9757171  54.0856473  46.8189087
  24.4539264  53.6067868  48.1569315   6.6009836  68.1694348  47.8438943
   6.4664304  67.4094749  47.2776941   6.1841898  68.8935248  47.3767732
  17.7368799  63.3531272  36.8515519  18.4404649  63.5581274  37.4673174
  17.0131448  63.9208033  37.1164602  18.5666609  59.1041133  42.9717789
  18.5101811  59.5609684  42.1325421  19.1194952  58.3431817  42.7940632
  22.3771415  54.8930865  43.7967908  22.1208349  54.4927500  44.6276116
  21.7524283  55.6074659  43.6718047  26.6883753  57.6326938  46.3039200
  26.1283311  57.7020127  47.0770762  26.0827256  57.4567923  45.5838696
   9.7578962  69.0663665  48.0557386   9.6411346  70.0109098  47.9536076
   8.9371408  68.7637227  48.4443185  19.6455496  63.7913801  38.9013979
  20.4801100  63.3594999  38.7191453  19.4839839  63.6195814  39.8290873
  19.3001389  60.2945914  40.2670318  19.2450192  60.1290186  39.3258762
  18.6747444  61.0021947  40.4232508   4.0893904  55.5313978  54.0931740
   4.7352767  55.0212932  54.5818965   3.8811055  56.2682660  54.6675165
  16.6147296  62.5994826  59.5923881  17.4838455  62.7735478  59.2310516
  16.1354047  63.4189243  59.4699610  12.6097514  49.7954023  39.8455636
  12.5976184  50.7395863  40.0023907  13.5020936  49.6124169  39.5515098
  10.7833476  69.7191927  51.2713314  11.6860723  69.7515537  51.5879809
  10.5570846  68.7892378  51.2859650  12.5387078  68.4722914  47.9323393
  11.5882709  68.4724775  47.8187765  12.8419564  67.7255648  47.4159428
  16.4249633  46.3896800  44.1001573  15.6582029  45.8355286  44.2458255
  16.8360338  46.4618669  44.9615725   8.4291395  52.6781596  58.1906754
   9.2922856  52.3218400  58.4010079   7.8556805  52.3395490  58.8782159
  28.2739771  74.3083452  48.9969155  28.9118181  74.1890199  48.2932495
  28.1560614  75.2564296  49.0557108  25.0829478  74.2610880  48.9330680
  24.7447989  74.1451945  48.0451215  25.9519246  73.8602045  48.9131686
  20.9416293  76.1146356  44.9227571  20.3781159  76.0236293  44.1543859
  20.8268688  75.2946261  45.4030064  25.5649261  75.4145732  54.8916886
  25.5537901  75.0198530  54.0197389  25.7269900  74.6811804  55.4850657
  18.4880725  77.6097548  47.7611791  19.2802017  77.2688373  47.3458091
  18.7277376  77.7192523  48.6813945  26.5215852  79.7817324  40.2342036
  25.8703832  80.3671405  39.8476050  27.3160215  80.3123519  40.2937073
  20.4471479  76.8706461  40.6329170  21.2202355  76.3235448  40.4942046
  20.7996878  77.7350711  40.8443632  22.2856522  78.1982844  53.8396070
  21.9946388  79.1028474  53.7242736  22.9213506  78.2399371  54.5540139
  23.2112729  75.5759692  50.4297429  23.8076301  75.3515714  49.7154392
  23.2687700  74.8344438  51.0322877  22.7837757  73.0299127  38.2647620
  23.0363278  72.5080649  37.5031083  21.8462316  72.8665273  38.3674304
  27.8281040  72.0334906  46.0722363  28.6144129  71.6154329  45.7212780
  28.0919744  72.9380998  46.2404012  27.9991117  77.4707756  40.7711020
  27.3636950  77.5442383  41.4831925  27.6688524  78.0601355  40.0930099
  33.2289467  71.9710139  46.9755342  33.9614639  71.4009356  47.2093171
  32.4728823  71.5831739  47.4161848  22.5034046  74.9327233  40.4671995
  22.3870304  74.2572137  41.1353079  22.6136306  74.4459607  39.6504148
  24.8465587  74.3937380  44.1718684  24.4823794  73.8668001  44.8831606
  25.7032703  74.0035850  43.9985170  30.7514887  65.6831713  51.4349951
  30.4198212  66.5527124  51.2111166  30.1560501  65.3667997  52.1143981
  24.4871074  69.4227280  39.1680033  24.6545476  70.2907517  39.5350504
  24.2968243  69.5854562  38.2441322  27.2446407  77.8844259  50.8345863
  26.9447130  78.7869298  50.7261670  26.8997466  77.6176442  51.6867016
  20.6958888  74.3358056  46.8682568  19.7709385  74.2034270  47.0760259
  20.9443302  75.1152275  47.3652510  30.6443551  70.4026799  48.5143301
  29.7360428  70.3342208  48.2202062  30.5931147  70.8798744  49.3425126
  24.4660295  71.8784938  40.1526700  24.3459920  72.3241988  40.9912180
  23.7712883  72.2270255  39.5940238  18.0567699  73.9791329  47.7026357
  18.1860081  74.2325808  48.6165768  17.3765151  74.5719037  47.3831012
  22.2267187  84.6488579  43.8016831  22.1491216  85.5996404  43.8805312
  21.6228830  84.3034452  44.4591757  24.7184417  71.8216445  56.4578198
  23.9417751  72.3810365  56.4481062  25.3574980  72.3073228  56.9793068
  32.5105197  68.6043238  50.2921175  31.8679577  68.8975771  49.6460969
  32.0060126  68.4896158  51.0974371  30.1645361  72.3506411  40.9807034
  31.0763217  72.5833798  40.8054731  29.6555008  72.9343455  40.4182112
  22.9730789  74.6301898  56.0196165  23.7145473  75.1686942  55.7430988
  22.2667774  75.2568187  56.1767717  28.4486128  76.7731039  54.6168326
  28.8569484  76.3313449  53.8722959  27.7263390  76.1983666  54.8702519
  24.8017198  71.7103645  51.9901883  25.6478394  72.1343059  52.1336532
  24.7415836  71.0537270  52.6840446  28.7714943  77.3332229  48.3720615
  28.1423806  77.4977943  47.6696683  28.3840605  77.7473839  49.1431579
  32.6504175  78.2686667  45.7264979  31.9655213  78.6485568  45.1762012
  32.7348024  78.8781994  46.4596927  27.9516644  69.3708014  53.6483057
  27.7077576  70.1250074  53.1117333  28.2276574  69.7493361  54.4830304
  29.9055107  75.9146626  52.3260323  30.1172002  76.5578386  51.6494704
  29.8584855  75.0808943  51.8582253  27.5081336  68.5264447  49.2296895
  26.6465815  68.8245700  49.5213632  27.5343770  68.7434846  48.2977927
  24.3242905  77.0706637  45.6370700  24.7881251  77.3494340  44.8475323
  24.0599703  76.1690082  45.4543791  21.2166986  76.6178119  48.5750464
  21.7868343  77.0465387  47.9367948  21.8075098  76.3360704  49.2734649
  23.2611791  73.1929790  42.4460265  23.9635834  73.6450833  42.9134192
  22.9292420  72.5513609  43.0740159  21.7092153  71.7841546  56.8211475
  21.0790813  72.4657827  57.0546872  21.6028240  71.6724628  55.8764613
  17.0037125  71.4513342  47.7477399  16.2136179  71.7070871  47.2717510
  17.4948372  72.2661680  47.8529440  31.0200935  78.7918582  50.4982680
  31.8418378  78.3898769  50.2165361  31.0163337  78.6886816  51.4498796
  18.9551870  71.8157922  44.7060876  18.1583034  71.9276616  45.2244371
  18.7277463  72.1544574  43.8401766  24.7857538  78.3402625  52.6543390
  24.8501971  78.8023032  53.4901562  24.0768462  77.7099990  52.7825700
  15.2874828  71.7043833  50.1792390  15.5382866  72.5890843  50.4449966
  15.8234376  71.5248434  49.4067482  39.1106928  75.1357330  46.8467651
  38.3570636  74.5664728  46.6911656  39.2454469  75.1019995  47.7938286
  24.5005556  80.0070732  42.5222371  24.3651230  80.8522268  42.9507218
  25.0415368  80.2090010  41.7588304  20.9872895  66.0862312  59.1836726
  20.5939841  65.5328511  59.8584370  21.8039036  66.3972891  59.5743243
  17.9534953  77.5246170  43.0950296  18.4659474  78.3189421  43.2455860
  18.6057666  76.8272461  43.0283897  19.7629838  80.6411927  45.1773049
  19.9396466  81.5629891  44.9894033  20.5586671  80.3270346  45.6067429
  23.9040856  67.5020191  56.7756982  24.6450570  68.1027344  56.6961445
  24.1358779  66.7597829  56.2175025  19.0482194  72.6876559  55.0535212
  18.9335709  71.7861816  55.3542311  18.1926712  72.9340255  54.7020029
  26.1274032  80.6294299  56.6522713  25.6837886  79.8430677  56.3343617
  26.7891246  80.8173449  55.9866604  20.8861153  82.1590100  51.1783391
  21.4368578  82.0307164  50.4060385  20.0472629  82.4584989  50.8278284
  28.2255270  80.9097099  54.6804114  28.2073745  81.7305980  54.1884383
  29.1475190  80.7851174  54.9054255  24.6828324  78.4241228  55.5227622
  25.2156661  77.6629516  55.2926930  24.1542405  78.1314880  56.2651777
  27.8498019  63.5301294  51.0521264  27.5062289  64.4202936  50.9760375
  28.2176982  63.3402952  50.1890849  15.9183870  75.8534825  43.8709866
  16.7559092  76.2631833  43.6543574  16.0962138  74.9134267  43.8410060
  27.8148302  73.5209905  39.5593699  27.2994925  74.2914510  39.7982087
  27.5425610  72.8475042  40.1826761  25.3995413  68.3659606  44.6178938
  24.5437009  67.9766457  44.4384576  25.8122365  68.4451567  43.7578723
  26.9294560  65.9005949  49.0170497  26.4259355  65.8636085  48.2038303
  27.2225166  66.8098692  49.0767154  23.1737445  65.9844679  48.0236679
  24.0390442  65.7887488  47.6642569  23.2414954  65.7555031  48.9506036
  32.7882576  76.2742260  41.4946873  32.0112019  75.9353419  41.0502035
  33.4674057  76.2794883  40.8201838  27.6034605  71.3936997  41.3853480
  27.2984741  71.7083147  42.2363624  28.5565047  71.4718417  41.4280813
  26.0481037  77.5527221  43.0346434  25.5202399  76.8179980  42.7219672
  25.5468540  78.3301897  42.7886403  31.0273883  75.7476241  48.1513481
  30.3697557  76.4375503  48.2393609  31.8314282  76.1372673  48.4947467
  20.7799765  68.2146887  45.3953046  21.3543516  67.9922069  44.6626239
  21.3670747  68.2835582  46.1481647  29.8379342  74.1020614  46.2017422
  30.3511224  74.7350606  46.7039132  30.4880566  73.5021809  45.8360782
  21.1069352  70.2451348  39.4148931  20.2706664  70.5826035  39.7358206
  20.9674121  70.1100328  38.4776068  23.0822432  65.0888136  44.1228115
  22.4286845  64.7737153  43.4984730  23.0402906  64.4663876  44.8487938
  24.1933637  75.3707431  36.0381407  23.2860699  75.1396684  36.2372556
  24.6904669  74.5745050  36.2255389  27.1001716  84.0804938  38.9578094
  26.4263415  84.3836635  39.5663051  27.4867538  84.8834019  38.6083551
  26.3160173  71.5770069  48.4475763  25.3982734  71.7985016  48.2897451
  26.7320316  71.6516380  47.5887470  27.0995220  72.9761485  43.5778443
  27.8467039  73.4882882  43.2685565  27.3686810  72.6545538  44.4382837
  25.3721871  75.4720026  40.5605398  24.4633090  75.1879059  40.6577867
  25.4016954  75.8919104  39.7008704  30.6041138  79.0826615  44.3296565
  30.1503465  78.2417525  44.3861756  29.9735105  79.7188014  44.6671345
  29.5474058  70.0118601  45.5597233  28.8096814  69.4995988  45.8907475
  29.8000831  69.5718983  44.7480509  29.0474077  80.9203112  45.2646383
  29.3397052  81.4808169  44.5458749  29.5572698  81.2131673  46.0199542
  29.6485685  62.7894853  46.1539002  29.9544562  61.9292217  45.8664917
  30.3738290  63.3812474  45.9537996  15.9410041  73.1925540  44.5420600
  15.7434441  72.5994901  43.8171666  15.3856705  72.8877750  45.2596539
  23.9206765  73.0848646  46.6615193  23.9755374  72.1322483  46.5857669
  23.1097967  73.2408086  47.1456491  25.0697958  77.0128770  37.8993476
  24.6317388  76.2964628  37.4399113  25.8108399  77.2404884  37.3378568
  21.8599125  71.7025706  44.4205572  21.0466990  72.0019877  44.8270764
  22.3558119  71.3081395  45.1380054  24.0107702  81.6983463  46.3539836
  23.9683881  81.9244309  45.4248368  24.9270401  81.4646838  46.5025638
  27.4573336  72.1667531  53.2520466  27.8122724  72.3939004  54.1114931
  28.1045467  72.4985907  52.6297721  33.1871073  75.2885967  43.9569795
  33.0488972  75.4787563  43.0290984  32.8307292  76.0505349  44.4137846
  21.3513199  69.2744062  50.0366807  21.9912579  69.1332821  49.3389770
  20.5190730  68.9878575  49.6605409  33.2140453  77.3562494  48.9681066
  33.6476959  77.2637783  49.8164120  33.9272033  77.3319994  48.3301082
  22.1273503  78.5746492  46.1501799  22.9214102  78.0796812  45.9484374
  21.4165196  78.0464355  45.7869505  26.9468348  80.9564588  50.5014167
  27.0005370  81.5255524  51.2691883  26.0783129  81.1266473  50.1368204
  18.4356267  72.7189574  42.2261552  17.5053855  72.6574029  42.4431514
  18.5313739  72.1965527  41.4298193  18.3541816  69.2444387  44.8139794
  18.6148633  70.1589720  44.7048954  19.1758988  68.7768829  44.9636406
  19.8266741  70.6582144  51.9838618  20.4989794  70.4499506  51.3351267
  18.9996528  70.4604230  51.5443850  34.0756002  77.3986194  51.5013952
  34.2691892  78.3032005  51.7473227  33.9756620  76.9393613  52.3352537
  25.7292313  67.2844085  54.0004279  25.0820228  67.9834034  53.9068755
  26.4993328  67.7180229  54.3680527  29.1371111  77.5492937  57.0754832
  28.9856617  77.3203489  56.1584916  29.1275790  78.5063538  57.0886177
  25.9056447  75.1224850  52.0601099  26.8348507  75.2736009  51.8870066
  25.4847477  75.2108871  51.2049745  24.7044779  79.1475514  49.8299636
  24.5655865  78.7794299  50.7025574  23.9159375  79.6623154  49.6583594
  25.2992931  84.2484611  41.1725173  25.4744687  83.7772654  41.9870795
  24.6125719  84.8750377  41.4006434  26.2549994  78.5257117  47.2188474
  25.9199827  78.4857887  48.1146124  25.7553940  77.8601833  46.7458884
  20.2294238  73.9324747  52.7441055  20.0914036  73.2004986  53.3452594
  21.1399162  73.8433647  52.4625243  29.1909186  75.8713151  37.4925534
  28.5738357  75.1459979  37.3958586  28.7225674  76.6322511  37.1492608
  22.8576539  73.6444706  52.2324735  23.5676157  73.0037898  52.1911353
  22.8145847  73.8957601  53.1550916  30.8463318  80.5812060  55.1531314
  30.7875864  79.8971280  54.4861897  31.2482836  81.3231050  54.7011940
  21.5705473  70.6309924  54.0520374  21.0342830  70.1800663  54.7041971
  20.9822181  70.7655833  53.3090839  19.8654016  87.3973973  47.9465033
  20.1050615  88.0292498  48.6244052  19.0223213  87.0462013  48.2330392
  20.9807732  70.0898576  36.6146838  20.1037198  69.9687376  36.2509085
  21.4565485  69.2984654  36.3625727  30.8480725  78.5451643  53.3845294
  29.9607504  78.2077565  53.5071693  31.4179276  77.8134675  53.6214059
  12.5009872  74.8775735  46.7088345  13.1880912  74.5637465  46.1209360
  12.3458001  75.7817100  46.4355597  17.3044594  69.7665932  51.1373369
  17.2202783  69.1591601  50.4023779  16.4827301  70.2574950  51.1382865
  24.3781878  83.2053096  50.3506537  24.3052050  84.0108067  50.8625842
  23.9359271  83.4045062  49.5254558  24.1671658  82.4424866  43.8609358
  23.3839180  82.9846546  43.9547583  24.8664403  82.9598846  44.2603600
  27.4768308  68.2519495  46.5043564  27.9737008  67.4989458  46.1844634
  26.7055290  68.2883812  45.9386773  35.3298065  73.9559861  48.1461855
  35.3187942  74.8384576  47.7755788  34.4615445  73.6031412  47.9516392
  26.8380562  83.1039930  52.5064696  27.5508534  83.7387395  52.4340597
  26.3470590  83.2003796  51.6904697  28.5598089  77.0091183  44.0781987
  27.6254367  77.1292645  43.9086692  28.7374757  76.1063649  43.8141997
  24.0603277  70.3936878  46.2315248  23.6901064  69.8407919  46.9196154
  24.5562369  69.7895012  45.6790249  31.9470640  72.8508502  44.6132021
  32.4131092  73.6836493  44.5392324  32.3978141  72.3853483  45.3177280
  21.8892475  80.8534373  53.3270266  22.5901935  81.4870856  53.4799661
  21.4187590  81.1949105  52.5665906  30.0146871  79.1952323  41.6118173
  30.2906715  79.0808918  42.5212048  29.1451370  78.7969808  41.5730347
  29.9187303  65.2189089  48.6522923  29.0050383  65.4493316  48.8205130
  30.3480404  65.3027533  49.5036955  29.6893761  73.4078981  51.1522817
  29.0365212  73.6554888  50.4975270  30.0674141  72.5943119  50.8185294
  26.6500935  83.4438674  45.2550987  26.8323330  82.6260330  45.7178739
  27.4733921  83.6606366  44.8175877  26.9843101  82.3706859  42.5166036
  27.5130867  81.8599314  41.9036198  27.2471320  82.0549389  43.3811569
  25.7381334  74.1498792  57.6388854  25.0621971  74.0492921  58.3091229
  26.5608968  73.9938006  58.1024851  17.4860193  80.3870728  50.2601369
  18.0713630  79.6414416  50.3929273  17.2885032  80.6974685  51.1438033
  20.3398849  83.4221976  45.2763811  19.6709224  83.9068103  44.7927852
  20.2011718  83.6691196  46.1907190  12.0777848  72.9576329  48.9805812
  12.1161948  72.4239919  49.7742930  11.5718141  72.4311534  48.3616789
  24.4804117  85.4565719  51.8746470  25.0322425  85.6197341  52.6395555
  24.8210311  86.0470157  51.2026495  19.4568610  67.8040869  52.4768355
  19.5209937  68.6655700  52.0645752  19.3935731  67.1914871  51.7440713
  18.9320883  69.8764002  56.1241389  19.5592922  69.4941079  56.7378913
  18.0748802  69.6578204  56.4897081  29.3314992  80.2826977  57.7295124
  29.8754896  80.8956935  57.2350079  28.7501836  80.8406555  58.2462137
  15.7086426  71.6840431  42.0559744  16.0039867  70.7751109  42.0026797
  14.8074462  71.6628170  41.7340746  27.6172505  83.4047695  48.8610152
  27.4923644  82.6037435  48.3521098  28.2751596  83.8993888  48.3724122
  19.2380673  69.7596427  48.0387292  18.5167259  70.3732395  47.8994766
  20.0273929  70.2954192  47.9603938  29.6807413  81.2056715  50.4889702
  28.7337748  81.0862066  50.4168029  30.0290186  80.3179213  50.5715964
  22.0406986  67.0950854  54.3127944  22.5641388  67.3413150  55.0754253
  21.8219320  67.9270889  53.8931081  17.4374267  69.3654528  42.1799069
  17.1086973  68.4851907  41.9974175  17.7913638  69.3102197  43.0675458
  26.6853846  81.0009431  46.6894054  26.5378809  80.0726139  46.8701624
  27.5107340  81.0229522  46.2051130  20.5516090  69.6527498  42.5474546
  20.8912163  70.1813419  41.8253155  20.9988211  69.9907904  43.3233113
  30.2887968  81.8237990  47.7758927  31.2134516  81.6180851  47.6383378
  30.1203271  81.5754391  48.6848269  23.2459531  68.0364549  51.9977615
  22.9056352  67.2372362  52.3998294  22.5398538  68.3366260  51.4254448
  23.8976003  65.1213861  50.4504938  24.7202072  64.6474340  50.3283828
  24.1414067  65.9004345  50.9503624  22.5384238  68.1502120  40.7467839
  23.2592600  68.5283373  40.2431556  21.9149542  68.8690997  40.8502817
  26.6815361  68.8547269  41.6826172  26.8978975  69.7371907  41.3815000
  26.2009428  68.4633482  40.9531814  21.4214582  71.8132982  48.2596916
  21.2759163  72.1273285  49.1521198  20.9439786  72.4317882  47.7067815
  23.2810965  68.8035530  48.3077806  23.2672534  67.9076623  47.9710104
  23.9983393  68.8106194  48.9416092  25.1337095  69.2372870  50.3530933
  24.8754873  70.1589941  50.3515264  24.6022136  68.8403305  51.0431397
  30.0783284  82.3423657  43.1321019  30.2520162  81.7770080  42.3794871
  30.5712175  83.1424552  42.9500508  15.8960244  74.3538326  51.1984577
  15.3513712  75.1298134  51.3304852  16.7739594  74.7009131  51.0403699
  22.6847861  67.6849910  43.5765376  22.8063772  66.7566556  43.7756263
  22.3949903  67.6988596  42.6643691  25.5539051  65.3704821  46.7132096
  25.5760748  65.4344154  45.7584075  25.9707110  64.5309329  46.9072602
  35.9322675  75.1060080  44.7511318  36.3753821  74.3567405  44.3530442
  35.0549186  75.0970217  44.3685050  31.0658457  81.6590422  40.2317917
  31.7609361  82.2797114  40.4505231  31.4081607  80.8085773  40.5070295
  16.6826266  73.4808223  54.0914734  15.9408002  73.6290858  54.6779365
  16.3619010  73.7416488  53.2281484  32.9649880  79.1090127  41.7605248
  33.4901204  79.4477400  41.0354568  32.8772232  78.1737143  41.5768382
  24.6269929  83.0224201  53.8895124  24.9357055  82.7773348  54.7617824
  25.4245411  83.2270839  53.4013994  24.6490541  85.1762111  46.1200501
  24.2095531  84.6838489  46.8133357  25.3998658  84.6335078  45.8792576
  17.1282880  81.3673651  46.1225129  17.9540900  81.0677423  45.7423772
  16.7776932  80.5981274  46.5714918  22.0964413  80.7200120  48.1922802
  21.4744422  80.0570825  47.8925030  22.7669280  80.7461251  47.5096450
  15.3291485  79.2859978  47.0814062  14.4923393  78.8582152  46.8998064
  15.3015130  79.4792421  48.0184854  22.1688940  69.1981908  57.7855308
  22.2177096  70.0744030  57.4033078  22.7111454  68.6559301  57.2126952
  32.6543786  79.7423031  57.0656446  31.8639330  79.7247170  56.5260945
  32.4177140  80.2811325  57.8205482  32.7741661  76.5915497  54.3789174
  32.8239666  76.4265505  55.3204697  32.6655584  75.7242756  53.9887055
  21.6577920  79.2704043  41.6681263  21.8066040  79.9539507  41.0147936
  22.4644363  79.2509133  42.1830719  30.0645423  72.5746425  55.6948481
  30.9655286  72.4352890  55.4032479  30.1393398  72.7400880  56.6346658
  24.3988229  69.9513280  54.5401667  23.5291538  70.2446846  54.2684256
  24.6347709  70.5353725  55.2608931  34.2759858  79.0112439  54.6231196
  33.9844666  79.3742419  55.4594657  33.6631989  78.2979447  54.4444528
  35.4755540  76.5765319  47.1433766  36.3102432  77.0155123  47.3071326
  35.6114669  76.1003972  46.3242012  32.5247046  74.1345053  53.0911254
  33.0001168  74.3272700  52.2830105  31.6012611  74.1904239  52.8454637
  19.4130553  75.2969221  42.6742332  19.1676595  74.3931551  42.8722542
  19.5826467  75.2986371  41.7321810  27.1027263  66.1692897  52.0567088
  27.6209206  66.9053924  51.7313576  26.7482395  66.4756890  52.8913847
  18.6826200  71.0297578  40.1728493  17.9895445  71.1041933  39.5168529
  18.4377952  70.2657922  40.6950010  27.3539857  62.5893179  47.5767984
  27.6341610  61.9216369  48.2028411  28.1390464  62.7822275  47.0642648
  25.1573325  81.7652173  39.1393010  24.5847292  82.3842361  38.6863482
  25.7306119  82.3151535  39.6732932  31.2248715  71.0110813  51.3239559
  32.1766138  71.1108911  51.3451783  31.0552165  70.2189082  51.8337644
  29.2463095  68.0966397  51.5098960  28.6513027  68.3771409  50.8145449
  28.9612791  68.5860298  52.2815701  28.3770585  82.0489324  40.2701593
  29.3101258  81.9834885  40.4734468  28.2893798  82.8845590  39.8116125
  31.0058602  81.3655194  37.2305540  30.9272233  81.0315057  38.1241298
  31.8268268  81.8576962  37.2297013  33.7036793  74.2316933  50.4381859
  33.6713113  73.2932934  50.6241543  34.3137416  74.3100970  49.7047684
  25.5420124  73.1012986  36.4809063  26.4879228  72.9719194  36.5497481
  25.1634369  72.3627648  36.9578491  33.8531281  71.0227977  50.4840142
  33.3370330  70.2386433  50.2970071  34.7371230  70.6946693  50.6486662
  31.5142008  64.7668992  46.4435955  31.3166829  64.4584080  47.3279287
  32.1241714  65.4930631  46.5733885  39.5213343  75.2932940  49.5787896
  40.2516731  75.0318228  50.1395599  38.9120288  74.5561662  49.6189964
  37.6028640  73.4340803  50.1762347  36.8761803  73.2996768  49.5678838
  37.1875927  73.7417631  50.9819065  25.4258816  77.1530732  57.9409720
  26.3461826  77.3309331  58.1349766  25.3908399  76.2086778  57.7889419
  23.7263041  71.0262963  36.4163948  22.8194496  70.7296075  36.4926662
  24.0039022  70.7292781  35.5498234  14.6440981  72.3469326  46.8662995
  14.3243766  71.4934634  46.5737369  14.0974409  72.5617904  47.6220962
  18.4220889  75.0631767  50.5832501  18.6406899  75.9948875  50.6020535
  18.8346663  74.7039741  51.3687305  25.3425107  65.5699852  42.5708189
  24.5325835  65.2246937  42.9463436  26.0309524  65.2607396  43.1595801
  27.2715655  64.6477899  44.1932486  27.8246693  65.0673352  44.8522509
  27.5085741  63.7213647  44.2355442  23.2948754  70.6364973  59.9735250
  23.1945481  71.5859330  59.9047341  23.0770296  70.3083212  59.1011320
  22.4961825  67.8849898  36.5575927  23.3580989  68.2104796  36.8171745
  22.6812170  67.0981394  36.0448993  14.5129241  75.9672237  48.8356116
  13.8192713  75.5526190  48.3226071  15.2602232  76.0092774  48.2389535
  30.6494462  66.7578424  43.7011150  30.0693131  67.4163228  43.3189203
  30.3830395  65.9355769  43.2898568  29.0998028  66.1583482  45.9032471
  29.5997807  66.2700016  45.0946790  29.7433636  65.8544535  46.5433279
  23.1580024  74.0662112  58.7900312  22.6747106  74.8662472  58.9964201
  23.2440963  74.0770056  57.8367756  16.4265984  75.8990491  46.7122131
  16.4036672  75.9978178  45.7604014  16.7366620  76.7455642  47.0339297
  19.0853362  77.9566646  50.8268745  20.0396615  77.9250589  50.7598677
  18.8865885  77.4957270  51.6418971  19.6752744  76.5267762  53.3939543
  20.4945633  77.0211841  53.4174380  19.9489551  75.6099730  53.3657111
  29.4319340  68.9178515  42.7567499  28.5445195  69.2028165  42.5387693
  29.8473329  68.7572278  41.9094775  32.7833876  68.9425036  46.4721838
  33.5594266  69.4321488  46.7446455  32.0582010  69.3683090  46.9293707
  35.2206435  69.6552655  47.5295778  35.8150926  69.4148391  46.8189087
  35.2933018  68.9359785  48.1569315  17.4403590  83.4986266  47.8438943
  17.3058058  82.7386667  47.2776941  17.0235653  84.2227166  47.3767732
  28.5762553  78.6823189  36.8515519  29.2798404  78.8873192  37.4673174
  27.8525202  79.2499951  37.1164602  29.4060364  74.4333051  42.9717789
  29.3495565  74.8901602  42.1325421  29.9588706  73.6723735  42.7940632
  33.2165170  70.2222782  43.7967908  32.9602104  69.8219418  44.6276116
  32.5918038  70.9366576  43.6718047  37.5277507  72.9618856  46.3039200
  36.9677065  73.0312045  47.0770762  36.9221011  72.7859840  45.5838696
  20.5972716  84.3955583  48.0557386  20.4805100  85.3401015  47.9536076
  19.7765163  84.0929144  48.4443185  30.4849251  79.1205718  38.9013979
  31.3194855  78.6886917  38.7191453  30.3233594  78.9487732  39.8290873
  30.1395143  75.6237832  40.2670318  30.0843947  75.4582103  39.3258762
  29.5141198  76.3313865  40.4232508  14.9287658  70.8605896  54.0931740
  15.5746522  70.3504850  54.5818965  14.7204809  71.5974578  54.6675165
  27.4541050  77.9286744  59.5923881  28.3232210  78.1027396  59.2310516
  26.9747802  78.7481160  59.4699610  23.4491268  65.1245941  39.8455636
  23.4369938  66.0687781  40.0023907  24.3414690  64.9416086  39.5515098
  21.6227230  85.0483845  51.2713314  22.5254477  85.0807455  51.5879809
  21.3964600  84.1184296  51.2859650  23.3780832  83.8014831  47.9323393
  22.4276463  83.8016693  47.8187765  23.6813319  83.0547566  47.4159428
  27.2643388  61.7188717  44.1001573  26.4975784  61.1647204  44.2458255
  27.6754093  61.7910586  44.9615725  19.2685149  68.0073513  58.1906754
  20.1316611  67.6510318  58.4010079  18.6950560  67.6687408  58.8782159
  39.1133526  89.6375370  48.9969155  39.7511936  89.5182117  48.2932495
  38.9954369  90.5856214  49.0557108  35.9223232  89.5902798  48.9330680
  35.5841744  89.4743862  48.0451215  36.7913000  89.1893963  48.9131686
  31.7810048  91.4438274  44.9227571  31.2174913  91.3528211  44.1543859
  31.6662443  90.6238179  45.4030064  36.4043015  90.7437649  54.8916886
  36.3931656  90.3490448  54.0197389  36.5663655  90.0103722  55.4850657
  29.3274480  92.9389466  47.7611791  30.1195772  92.5980290  47.3458091
  29.5671130  93.0484441  48.6813945  37.3609607  95.1109242  40.2342036
  36.7097586  95.6963322  39.8476050  38.1553969  95.6415437  40.2937073
  31.2865234  92.1998379  40.6329170  32.0596110  91.6527366  40.4942046
  31.6390633  93.0642628  40.8443632  33.1250276  93.5274761  53.8396070
  32.8340142  94.4320392  53.7242736  33.7607261  93.5691289  54.5540139
  34.0506483  90.9051610  50.4297429  34.6470055  90.6807632  49.7154392
  34.1081455  90.1636355  51.0322877  33.6231512  88.3591045  38.2647620
  33.8757032  87.8372566  37.5031083  32.6856071  88.1957191  38.3674304
  38.6674794  87.3626823  46.0722363  39.4537884  86.9446247  45.7212780
  38.9313499  88.2672916  46.2404012  38.8384872  92.7999674  40.7711020
  38.2030705  92.8734300  41.4831925  38.5082278  93.3893273  40.0930099
  44.0683222  87.3002057  46.9755342  44.8008393  86.7301273  47.2093171
  43.3122577  86.9123657  47.4161848  33.3427800  90.2619151  40.4671995
  33.2264058  89.5864054  41.1353079  33.4530060  89.7751525  39.6504148
  35.6859341  89.7229298  44.1718684  35.3217548  89.1959919  44.8831606
  36.5426457  89.3327767  43.9985170  41.5908642  81.0123631  51.4349951
  41.2591967  81.8819042  51.2111166  40.9954255  80.6959915  52.1143981
  35.3264828  84.7519198  39.1680033  35.4939231  85.6199434  39.5350504
  35.1361997  84.9146480  38.2441322  38.0840161  93.2136177  50.8345863
  37.7840885  94.1161216  50.7261670  37.7391221  92.9468360  51.6867016
  31.5352643  89.6649974  46.8682568  30.6103139  89.5326188  47.0760259
  31.7837056  90.4444193  47.3652510  41.4837305  85.7318717  48.5143301
  40.5754183  85.6634125  48.2202062  41.4324901  86.2090662  49.3425126
  35.3054049  87.2076855  40.1526700  35.1853674  87.6533906  40.9912180
  34.6106637  87.5562173  39.5940238  28.8961454  89.3083247  47.7026357
  29.0253835  89.5617726  48.6165768  28.2158905  89.9010955  47.3831012
  33.0660941  99.9780497  43.8016831  32.9884971 100.9288322  43.8805312
  32.4622585  99.6326370  44.4591757  35.5578171  87.1508363  56.4578198
  34.7811505  87.7102283  56.4481062  36.1968734  87.6365145  56.9793068
  43.3498952  83.9335155  50.2921175  42.7073332  84.2267688  49.6460969
  42.8453880  83.8188076  51.0974371  41.0039115  87.6798329  40.9807034
  41.9156971  87.9125715  40.8054731  40.4948762  88.2635373  40.4182112
  33.8124543  89.9593816  56.0196165  34.5539228  90.4978860  55.7430988
  33.1061529  90.5860105  56.1767717  39.2879883  92.1022956  54.6168326
  39.6963239  91.6605367  53.8722959  38.5657144  91.5275584  54.8702519
  35.6410953  87.0395563  51.9901883  36.4872148  87.4634977  52.1336532
  35.5809591  86.3829187  52.6840446  39.6108698  92.6624147  48.3720615
  38.9817560  92.8269861  47.6696683  39.2234360  93.0765757  49.1431579
  43.4897929  93.5978585  45.7264979  42.8048968  93.9777486  45.1762012
  43.5741779  94.2073911  46.4596927  38.7910398  84.6999931  53.6483057
  38.5471330  85.4541992  53.1117333  39.0670329  85.0785279  54.4830304
  40.7448861  91.2438544  52.3260323  40.9565756  91.8870304  51.6494704
  40.6978609  90.4100860  51.8582253  38.3475090  83.8556364  49.2296895
  37.4859569  84.1537618  49.5213632  38.3737525  84.0726763  48.2977927
  35.1636659  92.3998555  45.6370700  35.6275005  92.6786258  44.8475323
  34.8993458  91.4982000  45.4543791  32.0560741  91.9470037  48.5750464
  32.6262098  92.3757305  47.9367948  32.6468852  91.6652621  49.2734649
  34.1005546  88.5221707  42.4460265  34.8029589  88.9742751  42.9134192
  33.7686174  87.8805526  43.0740159  32.5485907  87.1133464  56.8211475
  31.9184568  87.7949745  57.0546872  32.4421995  87.0016546  55.8764613
  27.8430879  86.7805260  47.7477399  27.0529933  87.0362789  47.2717510
  28.3342127  87.5953598  47.8529440  41.8594689  94.1210499  50.4982680
  42.6812133  93.7190687  50.2165361  41.8557092  94.0178733  51.4498796
  29.7945625  87.1449839  44.7060876  28.9976788  87.2568534  45.2244371
  29.5671217  87.4836492  43.8401766  35.6251292  93.6694543  52.6543390
  35.6895725  94.1314950  53.4901562  34.9162216  93.0391907  52.7825700
  26.1268582  87.0335751  50.1792390  26.3776621  87.9182760  50.4449966
  26.6628131  86.8540352  49.4067482  49.9500682  90.4649248  46.8467651
  49.1964390  89.8956646  46.6911656  50.0848223  90.4311912  47.7938286
  35.3399310  95.3362650  42.5222371  35.2044985  96.1814186  42.9507218
  35.8809123  95.5381928  41.7588304  31.8266650  81.4154230  59.1836726
  31.4333595  80.8620428  59.8584370  32.6432790  81.7264808  59.5743243
  28.7928708  92.8538088  43.0950296  29.3053228  93.6481338  43.2455860
  29.4451420  92.1564379  43.0283897  30.6023592  95.9703844  45.1773049
  30.7790221  96.8921809  44.9894033  31.3980426  95.6562264  45.6067429
  34.7434611  82.8312109  56.7756982  35.4844324  83.4319262  56.6961445
  34.9752534  82.0889747  56.2175025  29.8875949  88.0168476  55.0535212
  29.7729464  87.1153733  55.3542311  29.0320467  88.2632173  54.7020029
  36.9667787  95.9586217  56.6522713  36.5231641  95.1722595  56.3343617
  37.6285000  96.1465367  55.9866604  31.7254908  97.4882018  51.1783391
  32.2762333  97.3599081  50.4060385  30.8866384  97.7876907  50.8278284
  39.0649025  96.2389016  54.6804114  39.0467500  97.0597898  54.1884383
  39.9868945  96.1143092  54.9054255  35.5222079  93.7533146  55.5227622
  36.0550416  92.9921434  55.2926930  34.9936160  93.4606798  56.2651777
  38.6891774  78.8593212  51.0521264  38.3456043  79.7494854  50.9760375
  39.0570736  78.6694870  50.1890849  26.7577624  91.1826742  43.8709866
  27.5952846  91.5923751  43.6543574  26.9355892  90.2426185  43.8410060
  38.6542056  88.8501823  39.5593699  38.1388680  89.6206428  39.7982087
  38.3819365  88.1766959  40.1826761  36.2389167  83.6951524  44.6178938
  35.3830764  83.3058374  44.4384576  36.6516119  83.7743485  43.7578723
  37.7688314  81.2297867  49.0170497  37.2653110  81.1928002  48.2038303
  38.0618921  82.1390610  49.0767154  34.0131200  81.3136597  48.0236679
  34.8784197  81.1179405  47.6642569  34.0808709  81.0846949  48.9506036
  43.6276331  91.6034178  41.4946873  42.8505773  91.2645337  41.0502035
  44.3067812  91.6086801  40.8201838  38.4428360  86.7228915  41.3853480
  38.1378495  87.0375064  42.2363624  39.3958802  86.8010335  41.4280813
  36.8874791  92.8819138  43.0346434  36.3596153  92.1471898  42.7219672
  36.3862294  93.6593815  42.7886403  41.8667637  91.0768159  48.1513481
  41.2091312  91.7667420  48.2393609  42.6708037  91.4664591  48.4947467
  31.6193519  83.5438805  45.3953046  32.1937271  83.3213986  44.6626239
  32.2064501  83.6127499  46.1481647  40.6773096  89.4312532  46.2017422
  41.1904978  90.0642523  46.7039132  41.3274320  88.8313727  45.8360782
  31.9463106  85.5743266  39.4148931  31.1100418  85.9117952  39.7358206
  31.8067876  85.4392246  38.4776068  33.9216187  80.4180054  44.1228115
  33.2680599  80.1029071  43.4984730  33.8796661  79.7955794  44.8487938
  35.0327392  90.6999349  36.0381407  34.1254453  90.4688602  36.2372556
  35.5298424  89.9036968  36.2255389  37.9395471  99.4096856  38.9578094
  37.2657169  99.7128553  39.5663051  38.3261292 100.2125936  38.6083551
  37.1553927  86.9061987  48.4475763  36.2376489  87.1276934  48.2897451
  37.5714071  86.9808298  47.5887470  37.9388975  88.3053403  43.5778443
  38.6860794  88.8174800  43.2685565  38.2080564  87.9837456  44.4382837
  36.2115625  90.8011944  40.5605398  35.3026844  90.5170976  40.6577867
  36.2410709  91.2211022  39.7008704  41.4434892  94.4118533  44.3296565
  40.9897220  93.5709443  44.3861756  40.8128859  95.0479931  44.6671345
  40.3867812  85.3410519  45.5597233  39.6490569  84.8287905  45.8907475
  40.6394586  84.9010901  44.7480509  39.8867832  96.2495030  45.2646383
  40.1790806  96.8100087  44.5458749  40.3966452  96.5423591  46.0199542
  40.4879439  78.1186771  46.1539002  40.7938316  77.2584135  45.8664917
  41.2132044  78.7104391  45.9537996  26.7803795  88.5217458  44.5420600
  26.5828195  87.9286818  43.8171666  26.2250459  88.2169668  45.2596539
  34.7600519  88.4140564  46.6615193  34.8149129  87.4614401  46.5857669
  33.9491721  88.5700003  47.1456491  35.9091713  92.3420687  37.8993476
  35.4711143  91.6256546  37.4399113  36.6502154  92.5696802  37.3378568
  32.6992879  87.0317624  44.4205572  31.8860745  87.3311794  44.8270764
  33.1951873  86.6373313  45.1380054  34.8501457  97.0275381  46.3539836
  34.8077636  97.2536227  45.4248368  35.7664156  96.7938755  46.5025638
  38.2967091  87.4959448  53.2520466  38.6516478  87.7230922  54.1114931
  38.9439222  87.8277825  52.6297721  44.0264828  90.6177884  43.9569795
  43.8882726  90.8079480  43.0290984  43.6701046  91.3797267  44.4137846
  32.1906954  84.6035979  50.0366807  32.8306333  84.4624739  49.3389770
  31.3584484  84.3170493  49.6605409  44.0534207  92.6854411  48.9681066
  44.4870714  92.5929700  49.8164120  44.7665788  92.6611912  48.3301082
  32.9667258  93.9038410  46.1501799  33.7607856  93.4088730  45.9484374
  32.2558950  93.3756273  45.7869505  37.7862102  96.2856505  50.5014167
  37.8399124  96.8547442  51.2691883  36.9176884  96.4558390  50.1368204
  29.2750021  88.0481492  42.2261552  28.3447609  87.9865947  42.4431514
  29.3707493  87.5257444  41.4298193  29.1935570  84.5736304  44.8139794
  29.4542388  85.4881638  44.7048954  30.0152743  84.1060747  44.9636406
  30.6660496  85.9874062  51.9838618  31.3383549  85.7791424  51.3351267
  29.8390282  85.7896148  51.5443850  44.9149757  92.7278112  51.5013952
  45.1085647  93.6323922  51.7473227  44.8150375  92.2685531  52.3352537
  36.5686068  82.6136003  54.0004279  35.9213983  83.3125952  53.9068755
  37.3387083  83.0472146  54.3680527  39.9764865  92.8784855  57.0754832
  39.8250372  92.6495406  56.1584916  39.9669545  93.8355456  57.0886177
  36.7450202  90.4516767  52.0601099  37.6742262  90.6027927  51.8870066
  36.3241232  90.5400788  51.2049745  35.5438534  94.4767432  49.8299636
  35.4049619  94.1086216  50.7025574  34.7553130  94.9915071  49.6583594
  36.1386686  99.5776528  41.1725173  36.3138441  99.1064572  41.9870795
  35.4519474 100.2042295  41.4006434  37.0943749  93.8549035  47.2188474
  36.7593581  93.8149805  48.1146124  36.5947695  93.1893750  46.7458884
  31.0687993  89.2616665  52.7441055  30.9307791  88.5296903  53.3452594
  31.9792916  89.1725565  52.4625243  40.0302940  91.2005069  37.4925534
  39.4132111  90.4751897  37.3958586  39.5619429  91.9614429  37.1492608
  33.6970293  88.9736624  52.2324735  34.4069912  88.3329816  52.1911353
  33.6539602  89.2249519  53.1550916  41.6857072  95.9103977  55.1531314
  41.6269618  95.2263197  54.4861897  42.0876591  96.6522967  54.7011940
  32.4099227  85.9601842  54.0520374  31.8736584  85.5092580  54.7041971
  31.8215936  86.0947751  53.3090839  30.7047771 102.7265891  47.9465033
  30.9444369 103.3584415  48.6244052  29.8616967 102.3753931  48.2330392
  31.8201486  85.4190493  36.6146838  30.9430953  85.2979294  36.2509085
  32.2959239  84.6276571  36.3625727  41.6874479  93.8743561  53.3845294
  40.8001258  93.5369483  53.5071693  42.2573030  93.1426592  53.6214059
  23.3403627  90.2067653  46.7088345  24.0274666  89.8929383  46.1209360
  23.1851755  91.1109018  46.4355597  28.1438349  85.0957849  51.1373369
  28.0596537  84.4883519  50.4023779  27.3221055  85.5866868  51.1382865
  35.2175633  98.5345014  50.3506537  35.1445804  99.3399985  50.8625842
  34.7753026  98.7336979  49.5254558  35.0065412  97.7716784  43.8609358
  34.2232934  98.3138464  43.9547583  35.7058158  98.2890763  44.2603600
  38.3162063  83.5811413  46.5043564  38.8130762  82.8281375  46.1844634
  37.5449044  83.6175730  45.9386773  46.1691820  89.2851779  48.1461855
  46.1581696  90.1676494  47.7755788  45.3009199  88.9323329  47.9516392
  37.6774316  98.4331848  52.5064696  38.3902289  99.0679312  52.4340597
  37.1864345  98.5295714  51.6904697  39.3991843  92.3383100  44.0781987
  38.4648122  92.4584563  43.9086692  39.5768512  91.4355567  43.8141997
  34.8997031  85.7228796  46.2315248  34.5294819  85.1699836  46.9196154
  35.3956124  85.1186929  45.6790249  42.7864395  88.1800420  44.6132021
  43.2524847  89.0128411  44.5392324  43.2371895  87.7145401  45.3177280
  32.7286230  96.1826291  53.3270266  33.4295689  96.8162774  53.4799661
  32.2581345  96.5241023  52.5665906  40.8540626  94.5244241  41.6118173
  41.1300470  94.4100835  42.5212048  39.9845124  94.1261726  41.5730347
  40.7581057  80.5481006  48.6522923  39.8444137  80.7785233  48.8205130
  41.1874159  80.6319451  49.5036955  40.5287516  88.7370898  51.1522817
  39.8758966  88.9846806  50.4975270  40.9067896  87.9235037  50.8185294
  37.4894690  98.7730592  45.2550987  37.6717084  97.9552248  45.7178739
  38.3127676  98.9898284  44.8175877  37.8236855  97.6998777  42.5166036
  38.3524622  97.1891231  41.9036198  38.0865075  97.3841307  43.3811569
  36.5775089  89.4790710  57.6388854  35.9015726  89.3784839  58.3091229
  37.4002723  89.3229923  58.1024851  28.3253948  95.7162646  50.2601369
  28.9107385  94.9706334  50.3929273  28.1278786  96.0266603  51.1438033
  31.1792603  98.7513893  45.2763811  30.5102978  99.2360021  44.7927852
  31.0405473  98.9983114  46.1907190  22.9171603  88.2868246  48.9805812
  22.9555702  87.7531837  49.7742930  22.4111895  87.7603452  48.3616789
  35.3197872 100.7857637  51.8746470  35.8716180 100.9489258  52.6395555
  35.6604065 101.3762075  51.2026495  30.2962365  83.1332787  52.4768355
  30.3603691  83.9947618  52.0645752  30.2329485  82.5206788  51.7440713
  29.7714637  85.2055919  56.1241389  30.3986676  84.8232997  56.7378913
  28.9142556  84.9870121  56.4897081  40.1708746  95.6118894  57.7295124
  40.7148650  96.2248853  57.2350079  39.5895591  96.1698473  58.2462137
  26.5480180  87.0132348  42.0559744  26.8433621  86.1043027  42.0026797
  25.6468216  86.9920088  41.7340746  38.4566259  98.7339612  48.8610152
  38.3317398  97.9329352  48.3521098  39.1145350  99.2285806  48.3724122
  30.0774427  85.0888345  48.0387292  29.3561013  85.7024313  47.8994766
  30.8667683  85.6246110  47.9603938  40.5201167  96.5348633  50.4889702
  39.5731503  96.4153984  50.4168029  40.8683941  95.6471131  50.5715964
  32.8800741  82.4242772  54.3127944  33.4035143  82.6705068  55.0754253
  32.6613074  83.2562806  53.8931081  28.2768022  84.6946446  42.1799069
  27.9480728  83.8143825  41.9974175  28.6307393  84.6394115  43.0675458
  37.5247601  96.3301349  46.6894054  37.3772563  95.4018056  46.8701624
  38.3501094  96.3521440  46.2051130  31.3909845  84.9819416  42.5474546
  31.7305917  85.5105337  41.8253155  31.8381965  85.3199822  43.3233113
  41.1281723  97.1529908  47.7758927  42.0528270  96.9472769  47.6383378
  40.9597026  96.9046309  48.6848269  34.0853286  83.3656467  51.9977615
  33.7450106  82.5664280  52.3998294  33.3792292  83.6658177  51.4254448
  34.7369758  80.4505779  50.4504938  35.5595827  79.9766257  50.3283828
  34.9807821  81.2296263  50.9503624  33.3777992  83.4794037  40.7467839
  34.0986355  83.8575290  40.2431556  32.7543296  84.1982914  40.8502817
  37.5209115  84.1839186  41.6826172  37.7372729  85.0663824  41.3815000
  37.0403182  83.7925400  40.9531814  32.2608336  87.1424900  48.2596916
  32.1152917  87.4565203  49.1521198  31.7833540  87.7609800  47.7067815
  34.1204719  84.1327448  48.3077806  34.1066288  83.2368541  47.9710104
  34.8377147  84.1398111  48.9416092  35.9730850  84.5664788  50.3530933
  35.7148628  85.4881859  50.3515264  35.4415890  84.1695222  51.0431397
  40.9177039  97.6715575  43.1321019  41.0913916  97.1061997  42.3794871
  41.4105930  98.4716470  42.9500508  26.7353999  89.6830244  51.1984577
  26.1907467  90.4590052  51.3304852  27.6133348  90.0301049  51.0403699
  33.5241615  83.0141828  43.5765376  33.6457526  82.0858474  43.7756263
  33.2343658  83.0280514  42.6643691  36.3932806  80.6996738  46.7132096
  36.4154502  80.7636071  45.7584075  36.8100865  79.8601247  46.9072602
  46.7716430  90.4351998  44.7511318  47.2147576  89.6859323  44.3530442
  45.8942940  90.4262134  44.3685050  41.9052211  96.9882339  40.2317917
  42.6003116  97.6089032  40.4505231  42.2475361  96.1377691  40.5070295
  27.5220020  88.8100140  54.0914734  26.7801756  88.9582776  54.6779365
  27.2012765  89.0708406  53.2281484  43.8043634  94.4382045  41.7605248
  44.3294958  94.7769318  41.0354568  43.7165987  93.5029060  41.5768382
  35.4663683  98.3516119  53.8895124  35.7750809  98.1065265  54.7617824
  36.2639165  98.5562757  53.4013994  35.4884295 100.5054028  46.1200501
  35.0489285 100.0130407  46.8133357  36.2392412  99.9626996  45.8792576
  27.9676634  96.6965569  46.1225129  28.7934654  96.3969341  45.7423772
  27.6170686  95.9273191  46.5714918  32.9358167  96.0492037  48.1922802
  32.3138177  95.3862742  47.8925030  33.6063034  96.0753169  47.5096450
  26.1685239  94.6151896  47.0814062  25.3317147  94.1874070  46.8998064
  26.1408885  94.8084339  48.0184854  33.0082695  84.5273825  57.7855308
  33.0570850  85.4035948  57.4033078  33.5505209  83.9851218  57.2126952
  43.4937540  95.0714949  57.0656446  42.7033084  95.0539087  56.5260945
  43.2570895  95.6103242  57.8205482  43.6135415  91.9207415  54.3789174
  43.6633420  91.7557422  55.3204697  43.5049339  91.0534674  53.9887055
  32.4971674  94.5995961  41.6681263  32.6459795  95.2831425  41.0147936
  33.3038118  94.5801051  42.1830719  40.9039178  87.9038343  55.6948481
  41.8049041  87.7644808  55.4032479  40.9787152  88.0692798  56.6346658
  35.2381983  85.2805198  54.5401667  34.3685293  85.5738764  54.2684256
  35.4741464  85.8645643  55.2608931  45.1153612  94.3404356  54.6231196
  44.8238421  94.7034337  55.4594657  44.5025744  93.6271365  54.4444528
  46.3149295  91.9057236  47.1433766  47.1496186  92.3447040  47.3071326
  46.4508423  91.4295889  46.3242012  43.3640801  89.4636971  53.0911254
  43.8394922  89.6564617  52.2830105  42.4406366  89.5196157  52.8454637
  30.2524307  90.6261138  42.6742332  30.0070349  89.7223468  42.8722542
  30.4220222  90.6278289  41.7321810  37.9421017  81.4984815  52.0567088
  38.4602961  82.2345842  51.7313576  37.5876150  81.8048808  52.8913847
  29.5219955  86.3589496  40.1728493  28.8289200  86.4333851  39.5168529
  29.2771707  85.5949839  40.6950010  38.1933611  77.9185097  47.5767984
  38.4735365  77.2508286  48.2028411  38.9784218  78.1114193  47.0642648
  35.9967080  97.0944091  39.1393010  35.4241047  97.7134278  38.6863482
  36.5699873  97.6443453  39.6732932  42.0642470  86.3402731  51.3239559
  43.0159892  86.4400829  51.3451783  41.8945920  85.5481000  51.8337644
  40.0856849  83.4258314  51.5098960  39.4906781  83.7063327  50.8145449
  39.8006546  83.9152215  52.2815701  39.2164339  97.3781241  40.2701593
  40.1495013  97.3126803  40.4734468  39.1287552  98.2137508  39.8116125
  41.8452356  96.6947112  37.2305540  41.7665988  96.3606975  38.1241298
  42.6662023  97.1868879  37.2297013  44.5430547  89.5608851  50.4381859
  44.5106867  88.6224852  50.6241543  45.1531171  89.6392888  49.7047684
  36.3813878  88.4304904  36.4809063  37.3272983  88.3011112  36.5497481
  36.0028123  87.6919566  36.9578491  44.6925036  86.3519894  50.4840142
  44.1764084  85.5678351  50.2970071  45.5764984  86.0238611  50.6486662
  42.3535763  80.0960910  46.4435955  42.1560584  79.7875998  47.3279287
  42.9635468  80.8222549  46.5733885  50.3607097  90.6224858  49.5787896
  51.0910486  90.3610146  50.1395599  49.7514043  89.8853580  49.6189964
  48.4422394  88.7632720  50.1762347  47.7155558  88.6288685  49.5678838
  48.0269681  89.0709549  50.9819065  36.2652571  92.4822650  57.9409720
  37.1855580  92.6601249  58.1349766  36.2302154  91.5378695  57.7889419
  34.5656795  86.3554880  36.4163948  33.6588251  86.0587993  36.4926662
  34.8432776  86.0584698  35.5498234  25.4834736  87.6761244  46.8662995
  25.1637520  86.8226552  46.5737369  24.9368164  87.8909822  47.6220962
  29.2614643  90.3923685  50.5832501  29.4800653  91.3240792  50.6020535
  29.6740417  90.0331659  51.3687305  36.1818861  80.8991770  42.5708189
  35.3719589  80.5538855  42.9463436  36.8703278  80.5899314  43.1595801
  38.1109409  79.9769817  44.1932486  38.6640448  80.3965270  44.8522509
  38.3479496  79.0505565  44.2355442  34.1342509  85.9656890  59.9735250
  34.0339235  86.9151247  59.9047341  33.9164051  85.6375129  59.1011320
  33.3355580  83.2141815  36.5575927  34.1974744  83.5396714  36.8171745
  33.5205924  82.4273311  36.0448993  25.3522996  91.2964155  48.8356116
  24.6586467  90.8818108  48.3226071  26.0995987  91.3384692  48.2389535
  41.4888216  82.0870342  43.7011150  40.9086885  82.7455146  43.3189203
  41.2224149  81.2647686  43.2898568  39.9391783  81.4875400  45.9032471
  40.4391561  81.5991934  45.0946790  40.5827391  81.1836452  46.5433279
  33.9973779  89.3954029  58.7900312  33.5140860  90.1954389  58.9964201
  34.0834718  89.4061974  57.8367756  27.2659738  91.2282409  46.7122131
  27.2430426  91.3270096  45.7604014  27.5760375  92.0747560  47.0339297
  29.9247116  93.2858564  50.8268745  30.8790370  93.2542506  50.7598677
  29.7259640  92.8249188  51.6418971  30.5146498  91.8559680  53.3939543
  31.3339387  92.3503759  53.4174380  30.7883306  90.9391648  53.3657111
  40.2713094  84.2470432  42.7567499  39.3838949  84.5320083  42.5387693
  40.6867084  84.0864196  41.9094775  43.6227631  84.2716953  46.4721838
  44.3988021  84.7613406  46.7446455  42.8975765  84.6975007  46.9293707
  46.0600189  84.9844572  47.5295778  46.6544680  84.7440308  46.8189087
  46.1326773  84.2651703  48.1569315  28.2797345  98.8278183  47.8438943
  28.1451813  98.0678584  47.2776941  27.8629407  99.5519083  47.3767732
  39.4156308  94.0115107  36.8515519  40.1192158  94.2165109  37.4673174
  38.6918957  94.5791869  37.1164602  40.2454118  89.7624968  42.9717789
  40.1889320  90.2193520  42.1325421  40.7982461  89.0015653  42.7940632
  44.0558924  85.5514700  43.7967908  43.7995858  85.1511336  44.6276116
  43.4311792  86.2658494  43.6718047  48.3671262  88.2910773  46.3039200
  47.8070820  88.3603963  47.0770762  47.7614765  88.1151758  45.5838696
  31.4366471  99.7247500  48.0557386  31.3198855 100.6692933  47.9536076
  30.6158917  99.4221062  48.4443185  41.3243005  94.4497636  38.9013979
  42.1588609  94.0178835  38.7191453  41.1627348  94.2779650  39.8290873
  40.9788898  90.9529749  40.2670318  40.9237701  90.7874021  39.3258762
  40.3534953  91.6605782  40.4232508  25.7681412  86.1897814  54.0931740
  26.4140276  85.6796768  54.5818965  25.5598564  86.9266495  54.6675165
  38.2934805  93.2578661  59.5923881  39.1625964  93.4319314  59.2310516
  37.8141556  94.0773078  59.4699610  34.2885023  80.4537858  39.8455636
  34.2763693  81.3979698  40.0023907  35.1808445  80.2708004  39.5515098
  32.4620985 100.3775762  51.2713314  33.3648232 100.4099373  51.5879809
  32.2358355  99.4476213  51.2859650  34.2174587  99.1306749  47.9323393
  33.2670218  99.1308610  47.8187765  34.5207073  98.3839483  47.4159428
  38.1037142  77.0480635  44.1001573  37.3369538  76.4939122  44.2458255
  38.5147847  77.1202504  44.9615725  30.1078903  83.3365431  58.1906754
  30.9710365  82.9802236  58.4010079  29.5344314  82.9979326  58.8782159
  49.9527280 104.9667287  48.9969155  50.5905690 104.8474035  48.2932495
  49.8348123 105.9148131  49.0557108  46.7616987 104.9194715  48.9330680
  46.4235498 104.8035780  48.0451215  47.6306755 104.5185880  48.9131686
  42.6203802 106.7730192  44.9227571  42.0568668 106.6820129  44.1543859
  42.5056197 105.9530096  45.4030064  47.2436770 106.0729567  54.8916886
  47.2325410 105.6782365  54.0197389  47.4057409 105.3395640  55.4850657
  40.1668234 108.2681383  47.7611791  40.9589526 107.9272208  47.3458091
  40.4064884 108.3776358  48.6813945  48.2003361 110.4401159  40.2342036
  47.5491341 111.0255240  39.8476050  48.9947724 110.9707354  40.2937073
  42.1258988 107.5290297  40.6329170  42.8989864 106.9819284  40.4942046
  42.4784387 108.3934546  40.8443632  43.9644031 108.8566679  53.8396070
  43.6733897 109.7612310  53.7242736  44.6001015 108.8983207  54.5540139
  44.8900238 106.2343527  50.4297429  45.4863810 106.0099550  49.7154392
  44.9475209 105.4928273  51.0322877  44.4625266 103.6882963  38.2647620
  44.7150787 103.1664484  37.5031083  43.5249825 103.5249108  38.3674304
  49.5068549 102.6918741  46.0722363  50.2931638 102.2738164  45.7212780
  49.7707253 103.5964833  46.2404012  49.6778626 108.1291591  40.7711020
  49.0424459 108.2026218  41.4831925  49.3476033 108.7185190  40.0930099
  54.9076976 102.6293974  46.9755342  55.6402148 102.0593191  47.2093171
  54.1516332 102.2415575  47.4161848  44.1821555 105.5911069  40.4671995
  44.0657813 104.9155972  41.1353079  44.2923815 105.1043443  39.6504148
  46.5253096 105.0521216  44.1718684  46.1611303 104.5251837  44.8831606
  47.3820212 104.6619685  43.9985170  52.4302396  96.3415548  51.4349951
  52.0985721  97.2110959  51.2111166  51.8348010  96.0251832  52.1143981
  46.1658583 100.0811115  39.1680033  46.3332985 100.9491352  39.5350504
  45.9755752 100.2438397  38.2441322  48.9233916 108.5428094  50.8345863
  48.6234639 109.4453133  50.7261670  48.5784975 108.2760278  51.6867016
  42.3746397 104.9941891  46.8682568  41.4496894 104.8618105  47.0760259
  42.6230811 105.7736110  47.3652510  52.3231060 101.0610635  48.5143301
  51.4147937 100.9926043  48.2202062  52.2718655 101.5382580  49.3425126
  46.1447804 102.5368773  40.1526700  46.0247429 102.9825824  40.9912180
  45.4500392 102.8854091  39.5940238  39.7355208 104.6375165  47.7026357
  39.8647590 104.8909644  48.6165768  39.0552660 105.2302873  47.3831012
  43.9054696 115.3072415  43.8016831  43.8278725 116.2580240  43.8805312
  43.3016339 114.9618287  44.4591757  46.3971925 102.4800280  56.4578198
  45.6205260 103.0394200  56.4481062  47.0362489 102.9657063  56.9793068
  54.1892706  99.2627073  50.2921175  53.5467086  99.5559606  49.6460969
  53.6847635  99.1479993  51.0974371  51.8432870 103.0090246  40.9807034
  52.7550726 103.2417633  40.8054731  51.3342517 103.5927290  40.4182112
  44.6518298 105.2885734  56.0196165  45.3932982 105.8270778  55.7430988
  43.9455283 105.9152022  56.1767717  50.1273637 107.4314874  54.6168326
  50.5356993 106.9897285  53.8722959  49.4050899 106.8567502  54.8702519
  46.4804707 102.3687481  51.9901883  47.3265903 102.7926894  52.1336532
  46.4203345 101.7121105  52.6840446  50.4502452 107.9916065  48.3720615
  49.8211315 108.1561779  47.6696683  50.0628114 108.4057674  49.1431579
  54.3291684 108.9270502  45.7264979  53.6442722 109.3069404  45.1762012
  54.4135533 109.5365829  46.4596927  49.6304153 100.0291849  53.6483057
  49.3865085 100.7833910  53.1117333  49.9064083 100.4077197  54.4830304
  51.5842616 106.5730462  52.3260323  51.7959511 107.2162221  51.6494704
  51.5372364 105.7392778  51.8582253  49.1868845  99.1848282  49.2296895
  48.3253324  99.4829536  49.5213632  49.2131279  99.4018681  48.2977927
  46.0030414 107.7290473  45.6370700  46.4668759 108.0078176  44.8475323
  45.7387212 106.8273917  45.4543791  42.8954495 107.2761954  48.5750464
  43.4655852 107.7049223  47.9367948  43.4862607 106.9944539  49.2734649
  44.9399300 103.8513625  42.4460265  45.6423343 104.3034669  42.9134192
  44.6079929 103.2097444  43.0740159  43.3879662 102.4425382  56.8211475
  42.7578322 103.1241663  57.0546872  43.2815749 102.3308463  55.8764613
  38.6824634 102.1097178  47.7477399  37.8923688 102.3654706  47.2717510
  39.1735881 102.9245516  47.8529440  52.6988444 109.4502417  50.4982680
  53.5205887 109.0482604  50.2165361  52.6950846 109.3470651  51.4498796
  40.6339379 102.4741757  44.7060876  39.8370543 102.5860451  45.2244371
  40.4064972 102.8128409  43.8401766  46.4645047 108.9986460  52.6543390
  46.5289479 109.4606867  53.4901562  45.7555971 108.3683825  52.7825700
  36.9662337 102.3627668  50.1792390  37.2170375 103.2474678  50.4449966
  37.5021885 102.1832270  49.4067482  60.7894437 105.7941165  46.8467651
  60.0358145 105.2248563  46.6911656  60.9241978 105.7603830  47.7938286
  46.1793065 110.6654568  42.5222371  46.0438739 111.5106103  42.9507218
  46.7202877 110.8673845  41.7588304  42.6660404  96.7446148  59.1836726
  42.2727350  96.1912346  59.8584370  43.4826545  97.0556726  59.5743243
  39.6322462 108.1830006  43.0950296  40.1446983 108.9773256  43.2455860
  40.2845175 107.4856296  43.0283897  41.4417347 111.2995762  45.1773049
  41.6183975 112.2213727  44.9894033  42.2374180 110.9854181  45.6067429
  45.5828365  98.1604027  56.7756982  46.3238079  98.7611180  56.6961445
  45.8146288  97.4181664  56.2175025  40.7269703 103.3460394  55.0535212
  40.6123218 102.4445651  55.3542311  39.8714221 103.5924091  54.7020029
  47.8061541 111.2878134  56.6522713  47.3625395 110.5014513  56.3343617
  48.4678755 111.4757285  55.9866604  42.5648662 112.8173936  51.1783391
  43.1156087 112.6890999  50.4060385  41.7260138 113.1168825  50.8278284
  49.9042779 111.5680934  54.6804114  49.8861254 112.3889815  54.1884383
  50.8262699 111.4435009  54.9054255  46.3615833 109.0825064  55.5227622
  46.8944170 108.3213352  55.2926930  45.8329914 108.7898715  56.2651777
  49.5285528  94.1885130  51.0521264  49.1849798  95.0786771  50.9760375
  49.8964491  93.9986787  50.1890849  37.5971379 106.5118660  43.8709866
  38.4346601 106.9215668  43.6543574  37.7749647 105.5718102  43.8410060
  49.4935811 104.1793741  39.5593699  48.9782434 104.9498345  39.7982087
  49.2213119 103.5058877  40.1826761  47.0782922  99.0243441  44.6178938
  46.2224518  98.6350292  44.4384576  47.4909874  99.1035402  43.7578723
  48.6082069  96.5589785  49.0170497  48.1046864  96.5219920  48.2038303
  48.9012675  97.4682527  49.0767154  44.8524954  96.6428514  48.0236679
  45.7177951  96.4471323  47.6642569  44.9202463  96.4138866  48.9506036
  54.4670085 106.9326095  41.4946873  53.6899528 106.5937255  41.0502035
  55.1461566 106.9378719  40.8201838  49.2822114 102.0520833  41.3853480
  48.9772250 102.3666982  42.2363624  50.2352556 102.1302253  41.4280813
  47.7268546 108.2111056  43.0346434  47.1989908 107.4763816  42.7219672
  47.2256049 108.9885732  42.7886403  52.7061392 106.4060077  48.1513481
  52.0485066 107.0959338  48.2393609  53.5101791 106.7956509  48.4947467
  42.4587274  98.8730722  45.3953046  43.0331025  98.6505904  44.6626239
  43.0458256  98.9419417  46.1481647  51.5166851 104.7604449  46.2017422
  52.0298733 105.3934441  46.7039132  52.1668075 104.1605645  45.8360782
  42.7856861 100.9035183  39.4148931  41.9494173 101.2409870  39.7358206
  42.6461630 100.7684163  38.4776068  44.7609941  95.7471971  44.1228115
  44.1074354  95.4320988  43.4984730  44.7190415  95.1247712  44.8487938
  45.8721146 106.0291266  36.0381407  44.9648208 105.7980520  36.2372556
  46.3692178 105.2328886  36.2255389  48.7789225 114.7388774  38.9578094
  48.1050924 115.0420470  39.5663051  49.1655047 115.5417854  38.6083551
  47.9947682 102.2353905  48.4475763  47.0770243 102.4568852  48.2897451
  48.4107825 102.3100215  47.5887470  48.7782729 103.6345321  43.5778443
  49.5254548 104.1466718  43.2685565  49.0474319 103.3129373  44.4382837
  47.0509380 106.1303861  40.5605398  46.1420599 105.8462894  40.6577867
  47.0804463 106.5502940  39.7008704  52.2828647 109.7410451  44.3296565
  51.8290974 108.9001361  44.3861756  51.6522614 110.3771849  44.6671345
  51.2261567 100.6702437  45.5597233  50.4884323 100.1579823  45.8907475
  51.4788340 100.2302818  44.7480509  50.7261586 111.5786947  45.2646383
  51.0184561 112.1392005  44.5458749  51.2360207 111.8715508  46.0199542
  51.3273194  93.4478689  46.1539002  51.6332071  92.5876052  45.8664917
  52.0525799  94.0396309  45.9537996  37.6197550 103.8509375  44.5420600
  37.4221950 103.2578736  43.8171666  37.0644214 103.5461586  45.2596539
  45.5994274 103.7432482  46.6615193  45.6542883 102.7906318  46.5857669
  44.7885476 103.8991921  47.1456491  46.7485467 107.6712605  37.8993476
  46.3104897 106.9548464  37.4399113  47.4895908 107.8988720  37.3378568
  43.5386634 102.3609542  44.4205572  42.7254499 102.6603712  44.8270764
  44.0345628 101.9665230  45.1380054  45.6895211 112.3567299  46.3539836
  45.6471390 112.5828145  45.4248368  46.6057910 112.1230673  46.5025638
  49.1360845 102.8251366  53.2520466  49.4910233 103.0522839  54.1114931
  49.7832976 103.1569743  52.6297721  54.8658582 105.9469802  43.9569795
  54.7276481 106.1371398  43.0290984  54.5094801 106.7089185  44.4137846
  43.0300708  99.9327897  50.0366807  43.6700088  99.7916656  49.3389770
  42.1978239  99.6462411  49.6605409  54.8927962 108.0146329  48.9681066
  55.3264468 107.9221618  49.8164120  55.6059542 107.9903829  48.3301082
  43.8061012 109.2330328  46.1501799  44.6001611 108.7380648  45.9484374
  43.0952705 108.7048191  45.7869505  48.6255857 111.6148423  50.5014167
  48.6792879 112.1839359  51.2691883  47.7570638 111.7850308  50.1368204
  40.1143776 103.3773409  42.2261552  39.1841364 103.3157865  42.4431514
  40.2101248 102.8549362  41.4298193  40.0329325  99.9028222  44.8139794
  40.2936142 100.8173555  44.7048954  40.8546497  99.4352665  44.9636406
  41.5054250 101.3165979  51.9838618  42.1777303 101.1083341  51.3351267
  40.6784037 101.1188065  51.5443850  55.7543511 108.0570030  51.5013952
  55.9479401 108.9615840  51.7473227  55.6544129 107.5977449  52.3352537
  47.4079822  97.9427920  54.0004279  46.7607737  98.6417870  53.9068755
  48.1780837  98.3764064  54.3680527  50.8158620 108.2076772  57.0754832
  50.6644126 107.9787324  56.1584916  50.8063299 109.1647374  57.0886177
  47.5843956 105.7808685  52.0601099  48.5136016 105.9319845  51.8870066
  47.1634986 105.8692706  51.2049745  46.3832288 109.8059350  49.8299636
  46.2443374 109.4378134  50.7025574  45.5946884 110.3206989  49.6583594
  46.9780440 114.9068446  41.1725173  47.1532196 114.4356489  41.9870795
  46.2913228 115.5334212  41.4006434  47.9337503 109.1840952  47.2188474
  47.5987336 109.1441722  48.1146124  47.4341449 108.5185668  46.7458884
  41.9081747 104.5908582  52.7441055  41.7701545 103.8588821  53.3452594
  42.8186671 104.5017482  52.4625243  50.8696695 106.5296987  37.4925534
  50.2525866 105.8043815  37.3958586  50.4013183 107.2906347  37.1492608
  44.5364048 104.3028542  52.2324735  45.2463666 103.6621734  52.1911353
  44.4933356 104.5541436  53.1550916  52.5250827 111.2395895  55.1531314
  52.4663373 110.5555115  54.4861897  52.9270345 111.9814885  54.7011940
  43.2492982 101.2893759  54.0520374  42.7130339 100.8384498  54.7041971
  42.6609690 101.4239668  53.3090839  41.5441525 118.0557809  47.9465033
  41.7838124 118.6876333  48.6244052  40.7010722 117.7045849  48.2330392
  42.6595241 100.7482411  36.6146838  41.7824707 100.6271212  36.2509085
  43.1352994  99.9568489  36.3625727  52.5268234 109.2035479  53.3845294
  51.6395013 108.8661401  53.5071693  53.0966785 108.4718510  53.6214059
  34.1797381 105.5359571  46.7088345  34.8668421 105.2221301  46.1209360
  34.0245510 106.4400935  46.4355597  38.9832103 100.4249767  51.1373369
  38.8990292  99.8175437  50.4023779  38.1614810 100.9158785  51.1382865
  46.0569387 113.8636931  50.3506537  45.9839559 114.6691903  50.8625842
  45.6146780 114.0628897  49.5254558  45.8459167 113.1008701  43.8609358
  45.0626689 113.6430381  43.9547583  46.5451912 113.6182681  44.2603600
  49.1555817  98.9103331  46.5043564  49.6524517  98.1573293  46.1844634
  48.3842799  98.9467647  45.9386773  57.0085574 104.6143696  48.1461855
  56.9975451 105.4968412  47.7755788  56.1402954 104.2615247  47.9516392
  48.5168071 113.7623765  52.5064696  49.2296043 114.3971230  52.4340597
  48.0258099 113.8587631  51.6904697  50.2385598 107.6675018  44.0781987
  49.3041876 107.7876480  43.9086692  50.4162266 106.7647485  43.8141997
  45.7390786 101.0520714  46.2315248  45.3688573 100.4991754  46.9196154
  46.2349878 100.4478847  45.6790249  53.6258149 103.5092337  44.6132021
  54.0918601 104.3420329  44.5392324  54.0765650 103.0437319  45.3177280
  43.5679984 111.5118209  53.3270266  44.2689444 112.1454692  53.4799661
  43.0975099 111.8532940  52.5665906  51.6934380 109.8536158  41.6118173
  51.9694224 109.7392753  42.5212048  50.8238879 109.4553643  41.5730347
  51.5974812  95.8772924  48.6522923  50.6837892  96.1077151  48.8205130
  52.0267913  95.9611368  49.5036955  51.3681270 104.0662816  51.1522817
  50.7152721 104.3138724  50.4975270  51.7461650 103.2526954  50.8185294
  48.3288444 114.1022509  45.2550987  48.5110839 113.2844165  45.7178739
  49.1521430 114.3190202  44.8175877  48.6630610 113.0290694  42.5166036
  49.1918376 112.5183149  41.9036198  48.9258829 112.7133225  43.3811569
  47.4168843 104.8082627  57.6388854  46.7409480 104.7076757  58.3091229
  48.2396477 104.6521841  58.1024851  39.1647702 111.0454564  50.2601369
  39.7501139 110.2998252  50.3929273  38.9672541 111.3558520  51.1438033
  42.0186358 114.0805811  45.2763811  41.3496733 114.5651939  44.7927852
  41.8799227 114.3275032  46.1907190  33.7565357 103.6160164  48.9805812
  33.7949457 103.0823755  49.7742930  33.2505650 103.0895369  48.3616789
  46.1591626 116.1149555  51.8746470  46.7109934 116.2781176  52.6395555
  46.4997820 116.7053992  51.2026495  41.1356119  98.4624704  52.4768355
  41.1997446  99.3239535  52.0645752  41.0723240  97.8498706  51.7440713
  40.6108392 100.5347837  56.1241389  41.2380431 100.1524914  56.7378913
  39.7536311 100.3162039  56.4897081  51.0102501 110.9410812  57.7295124
  51.5542405 111.5540770  57.2350079  50.4289345 111.4990391  58.2462137
  37.3873935 102.3424266  42.0559744  37.6827376 101.4334945  42.0026797
  36.4861970 102.3212006  41.7340746  49.2960013 114.0631530  48.8610152
  49.1711153 113.2621270  48.3521098  49.9539105 114.5577724  48.3724122
  40.9168182 100.4180263  48.0387292  40.1954767 101.0316230  47.8994766
  41.7061437 100.9538028  47.9603938  51.3594922 111.8640550  50.4889702
  50.4125257 111.7445901  50.4168029  51.7077695 110.9763048  50.5715964
  43.7194495  97.7534689  54.3127944  44.2428897  97.9996986  55.0754253
  43.5006829  98.5854724  53.8931081  39.1161776 100.0238364  42.1799069
  38.7874482  99.1435743  41.9974175  39.4701147  99.9686032  43.0675458
  48.3641355 111.6593266  46.6894054  48.2166318 110.7309974  46.8701624
  49.1894849 111.6813357  46.2051130  42.2303599 100.3111334  42.5474546
  42.5699672 100.8397255  41.8253155  42.6775720 100.6491740  43.3233113
  51.9675477 112.4821825  47.7758927  52.8922024 112.2764687  47.6383378
  51.7990780 112.2338226  48.6848269  44.9247040  98.6948384  51.9977615
  44.5843861  97.8956197  52.3998294  44.2186047  98.9950095  51.4254448
  45.5763512  95.7797697  50.4504938  46.3989581  95.3058175  50.3283828
  45.8201576  96.5588180  50.9503624  44.2171747  98.8085955  40.7467839
  44.9380109  99.1867208  40.2431556  43.5937051  99.5274832  40.8502817
  48.3602869  99.5131104  41.6826172  48.5766484 100.3955742  41.3815000
  47.8796937  99.1217318  40.9531814  43.1002091 102.4716817  48.2596916
  42.9546672 102.7857120  49.1521198  42.6227295 103.0901718  47.7067815
  44.9598474  99.4619365  48.3077806  44.9460043  98.5660459  47.9710104
  45.6770902  99.4690029  48.9416092  46.8124604  99.8956706  50.3530933
  46.5542382 100.8173776  50.3515264  46.2809645  99.4987140  51.0431397
  51.7570793 113.0007493  43.1321019  51.9307671 112.4353915  42.3794871
  52.2499684 113.8008388  42.9500508  37.5747753 105.0122162  51.1984577
  37.0301221 105.7881970  51.3304852  38.4527103 105.3592966  51.0403699
  44.3635370  98.3433746  43.5765376  44.4851281  97.4150392  43.7756263
  44.0737412  98.3572432  42.6643691  47.2326560  96.0288656  46.7132096
  47.2548257  96.0927989  45.7584075  47.6494619  95.1893165  46.9072602
  57.6110184 105.7643916  44.7511318  58.0541330 105.0151241  44.3530442
  56.7336695 105.7554052  44.3685050  52.7445966 112.3174257  40.2317917
  53.4396870 112.9380950  40.4505231  53.0869116 111.4669608  40.5070295
  38.3613775 104.1392058  54.0914734  37.6195511 104.2874693  54.6779365
  38.0406519 104.4000324  53.2281484  54.6437389 109.7673963  41.7605248
  55.1688713 110.1061235  41.0354568  54.5559741 108.8320978  41.5768382
  46.3057438 113.6808036  53.8895124  46.6144564 113.4357183  54.7617824
  47.1032920 113.8854675  53.4013994  46.3278050 115.8345946  46.1200501
  45.8883040 115.3422325  46.8133357  47.0786167 115.2918914  45.8792576
  38.8070389 112.0257487  46.1225129  39.6328408 111.7261259  45.7423772
  38.4564441 111.2565109  46.5714918  43.7751922 111.3783955  48.1922802
  43.1531931 110.7154660  47.8925030  44.4456789 111.4045087  47.5096450
  37.0078994 109.9443813  47.0814062  36.1710902 109.5165988  46.8998064
  36.9802639 110.1376257  48.0184854  43.8476449  99.8565743  57.7855308
  43.8964605 100.7327866  57.4033078  44.3898963  99.3143136  57.2126952
  54.3331295 110.4006866  57.0656446  53.5426839 110.3831005  56.5260945
  54.0964649 110.9395160  57.8205482  54.4529170 107.2499333  54.3789174
  54.5027175 107.0849340  55.3204697  54.3443093 106.3826592  53.9887055
  43.3365429 109.9287878  41.6681263  43.4853549 110.6123343  41.0147936
  44.1431872 109.9092968  42.1830719  51.7432932 103.2330261  55.6948481
  52.6442795 103.0936725  55.4032479  51.8180907 103.3984715  56.6346658
  46.0775738 100.6097115  54.5401667  45.2079047 100.9030681  54.2684256
  46.3135218 101.1937560  55.2608931  55.9547367 109.6696274  54.6231196
  55.6632175 110.0326255  55.4594657  55.3419498 108.9563282  54.4444528
  57.1543049 107.2349154  47.1433766  57.9889940 107.6738958  47.3071326
  57.2902178 106.7587807  46.3242012  54.2034555 104.7928889  53.0911254
  54.6788677 104.9856535  52.2830105  53.2800120 104.8488075  52.8454637
  41.0918062 105.9553056  42.6742332  40.8464104 105.0515386  42.8722542
  41.2613976 105.9570206  41.7321810  48.7814772  96.8276732  52.0567088
  49.2996715  97.5637759  51.7313576  48.4269904  97.1340726  52.8913847
  40.3613709 101.6881414  40.1728493  39.6682954 101.7625768  39.5168529
  40.1165461 100.9241757  40.6950010  49.0327366  93.2477015  47.5767984
  49.3129119  92.5800204  48.2028411  49.8177973  93.4406110  47.0642648
  46.8360834 112.4236009  39.1393010  46.2634801 113.0426196  38.6863482
  47.4093628 112.9735370  39.6732932  52.9036224 101.6694649  51.3239559
  53.8553647 101.7692747  51.3451783  52.7339674 100.8772917  51.8337644
  50.9250603  98.7550232  51.5098960  50.3300536  99.0355245  50.8145449
  50.6400300  99.2444133  52.2815701  50.0558094 112.7073159  40.2701593
  50.9888767 112.6418721  40.4734468  49.9681307 113.5429426  39.8116125
  52.6846111 112.0239029  37.2305540  52.6059742 111.6898893  38.1241298
  53.5055777 112.5160797  37.2297013  55.3824302 104.8900769  50.4381859
  55.3500622 103.9516769  50.6241543  55.9924925 104.9684805  49.7047684
  47.2207633 103.7596822  36.4809063  48.1666737 103.6303030  36.5497481
  46.8421878 103.0211483  36.9578491  55.5318790 101.6811812  50.4840142
  55.0157839 100.8970269  50.2970071  56.4158739 101.3530529  50.6486662
  53.1929517  95.4252828  46.4435955  52.9954338  95.1167916  47.3279287
  53.8029223  96.1514466  46.5733885  61.2000852 105.9516775  49.5787896
  61.9304240 105.6902064  50.1395599  60.5907797 105.2145497  49.6189964
  59.2816149 104.0924638  50.1762347  58.5549312 103.9580603  49.5678838
  58.8663436 104.4001467  50.9819065  47.1046325 107.8114568  57.9409720
  48.0249335 107.9893167  58.1349766  47.0695908 106.8670613  57.7889419
  45.4050550 101.6846798  36.4163948  44.4982005 101.3879911  36.4926662
  45.6826531 101.3876616  35.5498234  36.3228490 103.0053161  46.8662995
  36.0031275 102.1518469  46.5737369  35.7761918 103.2201739  47.6220962
  40.1008398 105.7215602  50.5832501  40.3194408 106.6532710  50.6020535
  40.5134172 105.3623577  51.3687305  47.0212616  96.2283688  42.5708189
  46.2113344  95.8830773  42.9463436  47.7097032  95.9191231  43.1595801
  48.9503164  95.3061734  44.1932486  49.5034202  95.7257188  44.8522509
  49.1873250  94.3797483  44.2355442  44.9736263 101.2948808  59.9735250
  44.8732990 102.2443165  59.9047341  44.7557805 100.9667047  59.1011320
  44.1749334  98.5433733  36.5575927  45.0368498  98.8688631  36.8171745
  44.3599679  97.7565229  36.0448993  36.1916750 106.6256073  48.8356116
  35.4980222 106.2110026  48.3226071  36.9389741 106.6676609  48.2389535
  52.3281971  97.4162260  43.7011150  51.7480640  98.0747064  43.3189203
  52.0617904  96.5939604  43.2898568  50.7785537  96.8167317  45.9032471
  51.2785316  96.9283852  45.0946790  51.4221145  96.5128370  46.5433279
  44.8367533 104.7245947  58.7900312  44.3534615 105.5246307  58.9964201
  44.9228472 104.7353892  57.8367756  38.1053493 106.5574327  46.7122131
  38.0824181 106.6562014  45.7604014  38.4154129 107.4039477  47.0339297
  40.7640871 108.6150482  50.8268745  41.7184124 108.5834424  50.7598677
  40.5653394 108.1541105  51.6418971  41.3540253 107.1851598  53.3939543
  42.1733142 107.6795676  53.4174380  41.6277060 106.2683566  53.3657111
  51.1106849  99.5762350  42.7567499  50.2232704  99.8612001  42.5387693
  51.5260838  99.4156113  41.9094775  54.4621385  99.6008871  46.4721838
  55.2381775 100.0905323  46.7446455  53.7369519 100.0266925  46.9293707
  56.8993944 100.3136490  47.5295778  57.4938435 100.0732226  46.8189087
  56.9720527  99.5943621  48.1569315  39.1191099 114.1570101  47.8438943
  38.9845567 113.3970502  47.2776941  38.7023162 114.8811001  47.3767732
  50.2550062 109.3407025  36.8515519  50.9585913 109.5457027  37.4673174
  49.5312711 109.9083787  37.1164602  51.0847873 105.0916886  42.9717789
  51.0283074 105.5485437  42.1325421  51.6376215 104.3307570  42.7940632
  54.8952679 100.8806618  43.7967908  54.6389613 100.4803253  44.6276116
  54.2705547 101.5950412  43.6718047  59.2065016 103.6202691  46.3039200
  58.6464574 103.6895880  47.0770762  58.6008520 103.4443676  45.5838696
  42.2760225 115.0539418  48.0557386  42.1592609 115.9984851  47.9536076
  41.4552672 114.7512980  48.4443185  52.1636760 109.7789554  38.9013979
  52.9982364 109.3470752  38.7191453  52.0021103 109.6071568  39.8290873
  51.8182652 106.2821667  40.2670318  51.7631456 106.1165939  39.3258762
  51.1928707 106.9897700  40.4232508  36.6075167 101.5189732  54.0931740
  37.2534031 101.0088685  54.5818965  36.3992318 102.2558413  54.6675165
  49.1328559 108.5870579  59.5923881  50.0019719 108.7611231  59.2310516
  48.6535311 109.4064996  59.4699610  45.1278777  95.7829776  39.8455636
  45.1157447  96.7271616  40.0023907  46.0202199  95.5999922  39.5515098
  43.3014739 115.7067680  51.2713314  44.2041986 115.7391290  51.5879809
  43.0752109 114.7768131  51.2859650  45.0568341 114.4598667  47.9323393
  44.1063972 114.4600528  47.8187765  45.3600828 113.7131401  47.4159428
  48.9430897  92.3772553  44.1001573  48.1763293  91.8231039  44.2458255
  49.3541602  92.4494422  44.9615725  40.9472658  98.6657349  58.1906754
  41.8104120  98.3094153  58.4010079  40.3738069  98.3271243  58.8782159
  60.7921035 120.2959205  48.9969155  61.4299445 120.1765952  48.2932495
  60.6741878 121.2440049  49.0557108  57.6010741 120.2486633  48.9330680
  57.2629253 120.1327698  48.0451215  58.4700509 119.8477798  48.9131686
  53.4597557 122.1022109  44.9227571  52.8962422 122.0112046  44.1543859
  53.3449952 121.2822014  45.4030064  58.0830524 121.4021485  54.8916886
  58.0719165 121.0074283  54.0197389  58.2451164 120.6687557  55.4850657
  51.0061989 123.5973301  47.7611791  51.7983281 123.2564126  47.3458091
  51.2458639 123.7068276  48.6813945  59.0397116 125.7693077  40.2342036
  58.3885095 126.3547158  39.8476050  59.8341478 126.2999272  40.2937073
  52.9652743 122.8582214  40.6329170  53.7383619 122.3111201  40.4942046
  53.3178142 123.7226464  40.8443632  54.8037785 124.1858597  53.8396070
  54.5127651 125.0904227  53.7242736  55.4394770 124.2275124  54.5540139
  55.7293992 121.5635445  50.4297429  56.3257564 121.3391467  49.7154392
  55.7868964 120.8220191  51.0322877  55.3019021 119.0174880  38.2647620
  55.5544541 118.4956402  37.5031083  54.3643580 118.8541026  38.3674304
  60.3462303 118.0210659  46.0722363  61.1325393 117.6030082  45.7212780
  60.6101008 118.9256751  46.2404012  60.5172381 123.4583509  40.7711020
  59.8818214 123.5318136  41.4831925  60.1869787 124.0477108  40.0930099
  65.7470731 117.9585892  46.9755342  66.4795902 117.3885109  47.2093171
  64.9910086 117.5707492  47.4161848  55.0215309 120.9202986  40.4671995
  54.9051567 120.2447890  41.1353079  55.1317569 120.4335360  39.6504148
  57.3646850 120.3813133  44.1718684  57.0005057 119.8543754  44.8831606
  58.2213966 119.9911603  43.9985170  63.2696151 111.6707466  51.4349951
  62.9379476 112.5402877  51.2111166  62.6741764 111.3543750  52.1143981
  57.0052337 115.4103033  39.1680033  57.1726740 116.2783270  39.5350504
  56.8149506 115.5730315  38.2441322  59.7627670 123.8720012  50.8345863
  59.4628393 124.7745051  50.7261670  59.4178730 123.6052195  51.6867016
  53.2140152 120.3233809  46.8682568  52.2890648 120.1910023  47.0760259
  53.4624565 121.1028028  47.3652510  63.1624814 116.3902552  48.5143301
  62.2541692 116.3217961  48.2202062  63.1112410 116.8674497  49.3425126
  56.9841558 117.8660691  40.1526700  56.8641183 118.3117741  40.9912180
  56.2894146 118.2146008  39.5940238  50.5748963 119.9667082  47.7026357
  50.7041344 120.2201561  48.6165768  49.8946414 120.5594790  47.3831012
  54.7448450 130.6364332  43.8016831  54.6672480 131.5872158  43.8805312
  54.1410094 130.2910205  44.4591757  57.2365680 117.8092198  56.4578198
  56.4599014 118.3686118  56.4481062  57.8756243 118.2948981  56.9793068
  65.0286461 114.5918991  50.2921175  64.3860841 114.8851524  49.6460969
  64.5241389 114.4771911  51.0974371  62.6826624 118.3382164  40.9807034
  63.5944480 118.5709551  40.8054731  62.1736271 118.9219208  40.4182112
  55.4912052 120.6177651  56.0196165  56.2326737 121.1562695  55.7430988
  54.7849038 121.2443940  56.1767717  60.9667392 122.7606792  54.6168326
  61.3750748 122.3189202  53.8722959  60.2444653 122.1859419  54.8702519
  57.3198462 117.6979398  51.9901883  58.1659657 118.1218812  52.1336532
  57.2597100 117.0413023  52.6840446  61.2896207 123.3207982  48.3720615
  60.6605069 123.4853696  47.6696683  60.9021869 123.7349592  49.1431579
  65.1685438 124.2562420  45.7264979  64.4836477 124.6361322  45.1762012
  65.2529288 124.8657747  46.4596927  60.4697907 115.3583767  53.6483057
  60.2258839 116.1125827  53.1117333  60.7457838 115.7369114  54.4830304
  62.4236370 121.9022379  52.3260323  62.6353265 122.5454139  51.6494704
  62.3766118 121.0684696  51.8582253  60.0262599 114.5140200  49.2296895
  59.1647078 114.8121453  49.5213632  60.0525034 114.7310599  48.2977927
  56.8424168 123.0582390  45.6370700  57.3062514 123.3370093  44.8475323
  56.5780967 122.1565835  45.4543791  53.7348250 122.6053872  48.5750464
  54.3049607 123.0341140  47.9367948  54.3256361 122.3236457  49.2734649
  55.7793055 119.1805543  42.4460265  56.4817098 119.6326586  42.9134192
  55.4473683 118.5389362  43.0740159  54.2273416 117.7717299  56.8211475
  53.5972077 118.4533580  57.0546872  54.1209504 117.6600381  55.8764613
  49.5218388 117.4389095  47.7477399  48.7317442 117.6946624  47.2717510
  50.0129636 118.2537433  47.8529440  63.5382198 124.7794335  50.4982680
  64.3599642 124.3774522  50.2165361  63.5344601 124.6762569  51.4498796
  51.4733134 117.8033675  44.7060876  50.6764297 117.9152369  45.2244371
  51.2458726 118.1420327  43.8401766  57.3038801 124.3278378  52.6543390
  57.3683234 124.7898785  53.4901562  56.5949725 123.6975743  52.7825700
  47.8056091 117.6919586  50.1792390  48.0564130 118.5766596  50.4449966
  48.3415640 117.5124187  49.4067482  71.6288191 121.1233083  46.8467651
  70.8751899 120.5540481  46.6911656  71.7635732 121.0895748  47.7938286
  57.0186819 125.9946485  42.5222371  56.8832494 126.8398021  42.9507218
  57.5596632 126.1965763  41.7588304  53.5054159 112.0738065  59.1836726
  53.1121104 111.5204264  59.8584370  54.3220299 112.3848644  59.5743243
  50.4716217 123.5121923  43.0950296  50.9840737 124.3065174  43.2455860
  51.1238929 122.8148214  43.0283897  52.2811101 126.6287680  45.1773049
  52.4577730 127.5505644  44.9894033  53.0767935 126.3146099  45.6067429
  56.4222120 113.4895944  56.7756982  57.1631833 114.0903097  56.6961445
  56.6540043 112.7473582  56.2175025  51.5663458 118.6752312  55.0535212
  51.4516973 117.7737569  55.3542311  50.7107976 118.9216008  54.7020029
  58.6455296 126.6170052  56.6522713  58.2019150 125.8306430  56.3343617
  59.3072509 126.8049202  55.9866604  53.4042417 128.1465853  51.1783391
  53.9549842 128.0182917  50.4060385  52.5653893 128.4460743  50.8278284
  60.7436534 126.8972852  54.6804114  60.7255009 127.7181733  54.1884383
  61.6656454 126.7726927  54.9054255  57.2009588 124.4116981  55.5227622
  57.7337925 123.6505269  55.2926930  56.6723669 124.1190633  56.2651777
  60.3679283 109.5177047  51.0521264  60.0243552 110.4078689  50.9760375
  60.7358245 109.3278705  50.1890849  48.4365133 121.8410578  43.8709866
  49.2740355 122.2507586  43.6543574  48.6143401 120.9010020  43.8410060
  60.3329565 119.5085658  39.5593699  59.8176189 120.2790263  39.7982087
  60.0606874 118.8350795  40.1826761  57.9176676 114.3535359  44.6178938
  57.0618273 113.9642210  44.4384576  58.3303628 114.4327320  43.7578723
  59.4475823 111.8881702  49.0170497  58.9440619 111.8511838  48.2038303
  59.7406430 112.7974445  49.0767154  55.6918709 111.9720432  48.0236679
  56.5571706 111.7763241  47.6642569  55.7596218 111.7430784  48.9506036
  65.3063840 122.2618013  41.4946873  64.5293282 121.9229173  41.0502035
  65.9855321 122.2670636  40.8201838  60.1215869 117.3812750  41.3853480
  59.8166004 117.6958900  42.2363624  61.0746311 117.4594170  41.4280813
  58.5662300 123.5402974  43.0346434  58.0383662 122.8055733  42.7219672
  58.0649803 124.3177650  42.7886403  63.5455146 121.7351994  48.1513481
  62.8878821 122.4251256  48.2393609  64.3495546 122.1248426  48.4947467
  53.2981028 114.2022640  45.3953046  53.8724780 113.9797822  44.6626239
  53.8852010 114.2711335  46.1481647  62.3560605 120.0896367  46.2017422
  62.8692487 120.7226359  46.7039132  63.0061829 119.4897562  45.8360782
  53.6250615 116.2327101  39.4148931  52.7887927 116.5701788  39.7358206
  53.4855385 116.0976081  38.4776068  55.6003696 111.0763889  44.1228115
  54.9468108 110.7612906  43.4984730  55.5584170 110.4539629  44.8487938
  56.7114901 121.3583184  36.0381407  55.8041962 121.1272438  36.2372556
  57.2085933 120.5620803  36.2255389  59.6182979 130.0680691  38.9578094
  58.9444678 130.3712388  39.5663051  60.0048801 130.8709772  38.6083551
  58.8341436 117.5645823  48.4475763  57.9163997 117.7860770  48.2897451
  59.2501580 117.6392133  47.5887470  59.6176484 118.9637238  43.5778443
  60.3648303 119.4758635  43.2685565  59.8868073 118.6421291  44.4382837
  57.8903134 121.4595779  40.5605398  56.9814353 121.1754812  40.6577867
  57.9198218 121.8794857  39.7008704  63.1222401 125.0702368  44.3296565
  62.6684729 124.2293278  44.3861756  62.4916368 125.7063767  44.6671345
  62.0655321 115.9994354  45.5597233  61.3278078 115.4871741  45.8907475
  62.3182095 115.5594736  44.7480509  61.5655341 126.9078865  45.2646383
  61.8578315 127.4683922  44.5458749  62.0753961 127.2007426  46.0199542
  62.1666948 108.7770606  46.1539002  62.4725825 107.9167970  45.8664917
  62.8919553 109.3688227  45.9537996  48.4591304 119.1801293  44.5420600
  48.2615704 118.5870654  43.8171666  47.9037968 118.8753503  45.2596539
  56.4388028 119.0724400  46.6615193  56.4936638 118.1198236  46.5857669
  55.6279230 119.2283839  47.1456491  57.5879222 123.0004523  37.8993476
  57.1498652 122.2840382  37.4399113  58.3289663 123.2280637  37.3378568
  54.3780388 117.6901459  44.4205572  53.5648254 117.9895630  44.8270764
  54.8739382 117.2957148  45.1380054  56.5288966 127.6859216  46.3539836
  56.4865145 127.9120063  45.4248368  57.4451665 127.4522591  46.5025638
  59.9754600 118.1543284  53.2520466  60.3303987 118.3814757  54.1114931
  60.6226731 118.4861661  52.6297721  65.7052337 121.2761720  43.9569795
  65.5670235 121.4663316  43.0290984  65.3488555 122.0381102  44.4137846
  53.8694463 115.2619815  50.0366807  54.5093842 115.1208574  49.3389770
  53.0371993 114.9754328  49.6605409  65.7321716 123.3438247  48.9681066
  66.1658223 123.2513536  49.8164120  66.4453297 123.3195747  48.3301082
  54.6454767 124.5622245  46.1501799  55.4395365 124.0672565  45.9484374
  53.9346459 124.0340108  45.7869505  59.4649611 126.9440341  50.5014167
  59.5186633 127.5131277  51.2691883  58.5964393 127.1142226  50.1368204
  50.9537530 118.7065327  42.2261552  50.0235118 118.6449782  42.4431514
  51.0495002 118.1841280  41.4298193  50.8723079 115.2320140  44.8139794
  51.1329896 116.1465473  44.7048954  51.6940252 114.7644582  44.9636406
  52.3448005 116.6457897  51.9838618  53.0171058 116.4375259  51.3351267
  51.5177791 116.4479983  51.5443850  66.5937266 123.3861947  51.5013952
  66.7873156 124.2907758  51.7473227  66.4937884 122.9269366  52.3352537
  58.2473577 113.2719838  54.0004279  57.6001492 113.9709788  53.9068755
  59.0174592 113.7055982  54.3680527  61.6552374 123.5368690  57.0754832
  61.5037881 123.3079242  56.1584916  61.6457054 124.4939291  57.0886177
  58.4237711 121.1100603  52.0601099  59.3529771 121.2611762  51.8870066
  58.0028741 121.1984624  51.2049745  57.2226043 125.1351267  49.8299636
  57.0837128 124.7670052  50.7025574  56.4340639 125.6498907  49.6583594
  57.8174195 130.2360364  41.1725173  57.9925950 129.7648407  41.9870795
  57.1306983 130.8626130  41.4006434  58.7731258 124.5132870  47.2188474
  58.4381090 124.4733640  48.1146124  58.2735203 123.8477586  46.7458884
  52.7475502 119.9200500  52.7441055  52.6095300 119.1880739  53.3452594
  53.6580425 119.8309400  52.4625243  61.7090449 121.8588904  37.4925534
  61.0919620 121.1335732  37.3958586  61.2406938 122.6198265  37.1492608
  55.3757802 119.6320459  52.2324735  56.0857421 118.9913651  52.1911353
  55.3327111 119.8833354  53.1550916  63.3644581 126.5687813  55.1531314
  63.3057127 125.8847033  54.4861897  63.7664100 127.3106803  54.7011940
  54.0886736 116.6185677  54.0520374  53.5524093 116.1676416  54.7041971
  53.5003445 116.7531586  53.3090839  52.3835280 133.3849726  47.9465033
  52.6231878 134.0168251  48.6244052  51.5404476 133.0337766  48.2330392
  53.4988995 116.0774329  36.6146838  52.6218462 115.9563129  36.2509085
  53.9746748 115.2860407  36.3625727  63.3661988 124.5327397  53.3845294
  62.4788767 124.1953318  53.5071693  63.9360539 123.8010428  53.6214059
  45.0191136 120.8651488  46.7088345  45.7062175 120.5513218  46.1209360
  44.8639264 121.7692853  46.4355597  49.8225858 115.7541685  51.1373369
  49.7384046 115.1467354  50.4023779  49.0008564 116.2450703  51.1382865
  56.8963142 129.1928849  50.3506537  56.8233313 129.9983820  50.8625842
  56.4540535 129.3920815  49.5254558  56.6852921 128.4300619  43.8609358
  55.9020443 128.9722299  43.9547583  57.3845667 128.9474599  44.2603600
  59.9949572 114.2395248  46.5043564  60.4918271 113.4865211  46.1844634
  59.2236553 114.2759565  45.9386773  67.8479329 119.9435614  48.1461855
  67.8369205 120.8260329  47.7755788  66.9796708 119.5907165  47.9516392
  59.3561825 129.0915683  52.5064696  60.0689798 129.7263148  52.4340597
  58.8651854 129.1879549  51.6904697  61.0779352 122.9966936  44.0781987
  60.1435631 123.1168398  43.9086692  61.2556021 122.0939402  43.8141997
  56.5784540 116.3812631  46.2315248  56.2082328 115.8283672  46.9196154
  57.0743633 115.7770765  45.6790249  64.4651904 118.8384255  44.6132021
  64.9312356 119.6712246  44.5392324  64.9159404 118.3729236  45.3177280
  54.4073739 126.8410126  53.3270266  55.1083198 127.4746609  53.4799661
  53.9368854 127.1824858  52.5665906  62.5328135 125.1828076  41.6118173
  62.8087979 125.0684671  42.5212048  61.6632633 124.7845561  41.5730347
  62.4368566 111.2064842  48.6522923  61.5231646 111.4369069  48.8205130
  62.8661668 111.2903286  49.5036955  62.2075025 119.3954734  51.1522817
  61.5546475 119.6430641  50.4975270  62.5855405 118.5818872  50.8185294
  59.1682199 129.4314427  45.2550987  59.3504593 128.6136083  45.7178739
  59.9915185 129.6482119  44.8175877  59.5024364 128.3582612  42.5166036
  60.0312131 127.8475067  41.9036198  59.7652584 128.0425142  43.3811569
  58.2562598 120.1374545  57.6388854  57.5803235 120.0368674  58.3091229
  59.0790232 119.9813759  58.1024851  50.0041457 126.3746481  50.2601369
  50.5894894 125.6290169  50.3929273  49.8066295 126.6850438  51.1438033
  52.8580112 129.4097729  45.2763811  52.1890487 129.8943856  44.7927852
  52.7192982 129.6566949  46.1907190  44.5959112 118.9452082  48.9805812
  44.6343211 118.4115672  49.7742930  44.0899404 118.4187287  48.3616789
  56.9985381 131.4441472  51.8746470  57.5503689 131.6073094  52.6395555
  57.3391574 132.0345910  51.2026495  51.9749874 113.7916622  52.4768355
  52.0391200 114.6531453  52.0645752  51.9116994 113.1790624  51.7440713
  51.4502146 115.8639755  56.1241389  52.0774185 115.4816832  56.7378913
  50.5930065 115.6453957  56.4897081  61.8496255 126.2702730  57.7295124
  62.3936159 126.8832688  57.2350079  61.2683100 126.8282308  58.2462137
  48.2267689 117.6716184  42.0559744  48.5221130 116.7626862  42.0026797
  47.3255725 117.6503923  41.7340746  60.1353768 129.3923448  48.8610152
  60.0104907 128.5913188  48.3521098  60.7932859 129.8869641  48.3724122
  51.7561936 115.7472180  48.0387292  51.0348522 116.3608148  47.8994766
  52.5455192 116.2829945  47.9603938  62.1988676 127.1932468  50.4889702
  61.2519012 127.0737819  50.4168029  62.5471449 126.3054966  50.5715964
  54.5588250 113.0826607  54.3127944  55.0822652 113.3288903  55.0754253
  54.3400583 113.9146642  53.8931081  49.9555531 115.3530281  42.1799069
  49.6268237 114.4727660  41.9974175  50.3094901 115.2977950  43.0675458
  59.2035110 126.9885184  46.6894054  59.0560072 126.0601892  46.8701624
  60.0288603 127.0105275  46.2051130  53.0697354 115.6403251  42.5474546
  53.4093426 116.1689172  41.8253155  53.5169474 115.9783657  43.3233113
  62.8069232 127.8113743  47.7758927  63.7315779 127.6056604  47.6383378
  62.6384535 127.5630144  48.6848269  55.7640795 114.0240302  51.9977615
  55.4237615 113.2248115  52.3998294  55.0579801 114.3242013  51.4254448
  56.4157267 111.1089614  50.4504938  57.2383336 110.6350093  50.3283828
  56.6595330 111.8880098  50.9503624  55.0565501 114.1377873  40.7467839
  55.7773864 114.5159126  40.2431556  54.4330805 114.8566750  40.8502817
  59.1996624 114.8423022  41.6826172  59.4160238 115.7247660  41.3815000
  58.7190691 114.4509235  40.9531814  53.9395845 117.8008735  48.2596916
  53.7940426 118.1149038  49.1521198  53.4621049 118.4193635  47.7067815
  55.7992228 114.7911283  48.3077806  55.7853797 113.8952376  47.9710104
  56.5164656 114.7981947  48.9416092  57.6518359 115.2248623  50.3530933
  57.3936137 116.1465694  50.3515264  57.1203399 114.8279058  51.0431397
  62.5964548 128.3299410  43.1321019  62.7701425 127.7645833  42.3794871
  63.0893439 129.1300305  42.9500508  48.4141508 120.3414079  51.1984577
  47.8694976 121.1173887  51.3304852  49.2920857 120.6884884  51.0403699
  55.2029124 113.6725663  43.5765376  55.3245035 112.7442309  43.7756263
  54.9131167 113.6864349  42.6643691  58.0720315 111.3580574  46.7132096
  58.0942011 111.4219907  45.7584075  58.4888374 110.5185082  46.9072602
  68.4503939 121.0935833  44.7511318  68.8935085 120.3443158  44.3530442
  67.5730449 121.0845970  44.3685050  63.5839720 127.6466175  40.2317917
  64.2790625 128.2672867  40.4505231  63.9262870 126.7961526  40.5070295
  49.2007529 119.4683976  54.0914734  48.4589265 119.6166611  54.6779365
  48.8800274 119.7292241  53.2281484  65.4831143 125.0965880  41.7605248
  66.0082467 125.4353153  41.0354568  65.3953496 124.1612896  41.5768382
  57.1451192 129.0099954  53.8895124  57.4538318 128.7649101  54.7617824
  57.9426674 129.2146592  53.4013994  57.1671804 131.1637864  46.1200501
  56.7276794 130.6714242  46.8133357  57.9179921 130.6210831  45.8792576
  49.6464143 127.3549404  46.1225129  50.4722163 127.0553176  45.7423772
  49.2958195 126.5857027  46.5714918  54.6145676 126.7075873  48.1922802
  53.9925686 126.0446578  47.8925030  55.2850543 126.7337005  47.5096450
  47.8472748 125.2735731  47.0814062  47.0104656 124.8457905  46.8998064
  47.8196394 125.4668174  48.0184854  54.6870204 115.1857661  57.7855308
  54.7358359 116.0619783  57.4033078  55.2292718 114.6435054  57.2126952
  65.1725049 125.7298784  57.0656446  64.3820593 125.7122923  56.5260945
  64.9358404 126.2687078  57.8205482  65.2922924 122.5791250  54.3789174
  65.3420929 122.4141258  55.3204697  65.1836848 121.7118509  53.9887055
  54.1759183 125.2579796  41.6681263  54.3247304 125.9415260  41.0147936
  54.9825627 125.2384886  42.1830719  62.5826687 118.5622178  55.6948481
  63.4836550 118.4228643  55.4032479  62.6574661 118.7276633  56.6346658
  56.9169492 115.9389033  54.5401667  56.0472802 116.2322599  54.2684256
  57.1528973 116.5229478  55.2608931  66.7941121 124.9988192  54.6231196
  66.5025930 125.3618172  55.4594657  66.1813253 124.2855200  54.4444528
  67.9936804 122.5641072  47.1433766  68.8283695 123.0030876  47.3071326
  68.1295932 122.0879725  46.3242012  65.0428310 120.1220806  53.0911254
  65.5182431 120.3148453  52.2830105  64.1193875 120.1779992  52.8454637
  51.9311816 121.2844974  42.6742332  51.6857858 120.3807304  42.8722542
  52.1007731 121.2862124  41.7321810  59.6208526 112.1568650  52.0567088
  60.1390470 112.8929677  51.7313576  59.2663659 112.4632643  52.8913847
  51.2007464 117.0173331  40.1728493  50.5076709 117.0917686  39.5168529
  50.9559216 116.2533675  40.6950010  59.8721120 108.5768933  47.5767984
  60.1522874 107.9092122  48.2028411  60.6571727 108.7698028  47.0642648
  57.6754589 127.7527926  39.1393010  57.1028556 128.3718114  38.6863482
  58.2487382 128.3027288  39.6732932  63.7429979 116.9986567  51.3239559
  64.6947401 117.0984664  51.3451783  63.5733429 116.2064835  51.8337644
  61.7644358 114.0842150  51.5098960  61.1694290 114.3647162  50.8145449
  61.4794055 114.5736051  52.2815701  60.8951848 128.0365077  40.2701593
  61.8282522 127.9710638  40.4734468  60.8075061 128.8721343  39.8116125
  63.5239865 127.3530947  37.2305540  63.4453497 127.0190811  38.1241298
  64.3449532 127.8452715  37.2297013  66.2218056 120.2192686  50.4381859
  66.1894376 119.2808687  50.6241543  66.8318680 120.2976723  49.7047684
  58.0601387 119.0888739  36.4809063  59.0060492 118.9594947  36.5497481
  57.6815632 118.3503401  36.9578491  66.3712545 117.0103730  50.4840142
  65.8551593 116.2262186  50.2970071  67.2552493 116.6822446  50.6486662
  64.0323272 110.7544745  46.4435955  63.8348093 110.4459833  47.3279287
  64.6422977 111.4806384  46.5733885  72.0394606 121.2808693  49.5787896
  72.7697995 121.0193981  50.1395599  71.4301552 120.5437415  49.6189964
  70.1209903 119.4216556  50.1762347  69.3943067 119.2872521  49.5678838
  69.7057190 119.7293384  50.9819065  57.9440080 123.1406485  57.9409720
  58.8643089 123.3185084  58.1349766  57.9089663 122.1962531  57.7889419
  56.2444304 117.0138716  36.4163948  55.3375760 116.7171828  36.4926662
  56.5220285 116.7168534  35.5498234  47.1622245 118.3345079  46.8662995
  46.8425029 117.4810387  46.5737369  46.6155673 118.5493657  47.6220962
  50.9402152 121.0507520  50.5832501  51.1588162 121.9824628  50.6020535
  51.3527926 120.6915494  51.3687305  57.8606370 111.5575605  42.5708189
  57.0507098 111.2122690  42.9463436  58.5490787 111.2483149  43.1595801
  59.7896918 110.6353652  44.1932486  60.3427957 111.0549106  44.8522509
  60.0267005 109.7089400  44.2355442  55.8130018 116.6240726  59.9735250
  55.7126744 117.5735083  59.9047341  55.5951560 116.2958965  59.1011320
  55.0143089 113.8725651  36.5575927  55.8762253 114.1980549  36.8171745
  55.1993433 113.0857147  36.0448993  47.0310505 121.9547990  48.8356116
  46.3373976 121.5401943  48.3226071  47.7783496 121.9968527  48.2389535
  63.1675725 112.7454177  43.7011150  62.5874394 113.4038981  43.3189203
  62.9011658 111.9231522  43.2898568  61.6179292 112.1459235  45.9032471
  62.1179070 112.2575769  45.0946790  62.2614900 111.8420288  46.5433279
  55.6761288 120.0537865  58.7900312  55.1928369 120.8538225  58.9964201
  55.7622227 120.0645809  57.8367756  48.9447247 121.8866244  46.7122131
  48.9217935 121.9853932  45.7604014  49.2547884 122.7331395  47.0339297
  51.6034625 123.9442399  50.8268745  52.5577879 123.9126342  50.7598677
  51.4047149 123.4833023  51.6418971  52.1934007 122.5143515  53.3939543
  53.0126896 123.0087594  53.4174380  52.4670815 121.5975483  53.3657111
  61.9500603 114.9054268  42.7567499  61.0626458 115.1903918  42.5387693
  62.3654593 114.7448031  41.9094775  65.3015140 114.9300789  46.4721838
  66.0775530 115.4197241  46.7446455  64.5763274 115.3558843  46.9293707
  67.7387698 115.6428408  47.5295778  68.3332189 115.4024144  46.8189087
  67.8114282 114.9235538  48.1569315  49.9584854 129.4862019  47.8438943
  49.8239322 128.7262420  47.2776941  49.5416916 130.2102919  47.3767732
  61.0943817 124.6698942  36.8515519  61.7979667 124.8748945  37.4673174
  60.3706466 125.2375704  37.1164602  61.9241627 120.4208804  42.9717789
  61.8676829 120.8777355  42.1325421  62.4769970 119.6599488  42.7940632
  65.7346433 116.2098535  43.7967908  65.4783367 115.8095171  44.6276116
  65.1099301 116.9242329  43.6718047  70.0458771 118.9494609  46.3039200
  69.4858329 119.0187798  47.0770762  69.4402274 118.7735593  45.5838696
  53.1153980 130.3831336  48.0557386  52.9986364 131.3276768  47.9536076
  52.2946426 130.0804897  48.4443185  63.0030514 125.1081472  38.9013979
  63.8376118 124.6762670  38.7191453  62.8414857 124.9363485  39.8290873
  62.6576406 121.6113585  40.2670318  62.6025210 121.4457856  39.3258762
  62.0322462 122.3189618  40.4232508  47.4468921 116.8481649  54.0931740
  48.0927785 116.3380603  54.5818965  47.2386073 117.5850331  54.6675165
  59.9722314 123.9162497  59.5923881  60.8413473 124.0903149  59.2310516
  59.4929065 124.7356913  59.4699610  55.9672532 111.1121694  39.8455636
  55.9551202 112.0563534  40.0023907  56.8595954 110.9291839  39.5515098
  54.1408494 131.0359598  51.2713314  55.0435741 131.0683208  51.5879809
  53.9145864 130.1060049  51.2859650  55.8962096 129.7890584  47.9323393
  54.9457727 129.7892446  47.8187765  56.1994582 129.0423319  47.4159428
  59.7824651 107.7064470  44.1001573  59.0157047 107.1522957  44.2458255
  60.1935356 107.7786339  44.9615725  51.7866412 113.9949266  58.1906754
  52.6497874 113.6386071  58.4010079  51.2131823 113.6563161  58.8782159
  71.6314789 135.6251123  48.9969155  72.2693199 135.5057870  48.2932495
  71.5135632 136.5731967  49.0557108  68.4404496 135.5778551  48.9330680
  68.1023007 135.4619615  48.0451215  69.3094264 135.1769716  48.9131686
  64.2991311 137.4314027  44.9227571  63.7356177 137.3403964  44.1543859
  64.1843706 136.6113932  45.4030064  68.9224279 136.7313402  54.8916886
  68.9112919 136.3366201  54.0197389  69.0844918 135.9979475  55.4850657
  61.8455743 138.9265219  47.7611791  62.6377035 138.5856043  47.3458091
  62.0852393 139.0360194  48.6813945  69.8790870 141.0984995  40.2342036
  69.2278850 141.6839075  39.8476050  70.6735233 141.6291190  40.2937073
  63.8046497 138.1874132  40.6329170  64.5777373 137.6403119  40.4942046
  64.1571896 139.0518381  40.8443632  65.6431540 139.5150514  53.8396070
  65.3521406 140.4196145  53.7242736  66.2788524 139.5567042  54.5540139
  66.5687747 136.8927363  50.4297429  67.1651319 136.6683385  49.7154392
  66.6262718 136.1512108  51.0322877  66.1412775 134.3466798  38.2647620
  66.3938296 133.8248319  37.5031083  65.2037334 134.1832944  38.3674304
  71.1856058 133.3502576  46.0722363  71.9719147 132.9322000  45.7212780
  71.4494762 134.2548669  46.2404012  71.3566135 138.7875427  40.7711020
  70.7211968 138.8610053  41.4831925  71.0263542 139.3769026  40.0930099
  76.5864485 133.2877810  46.9755342  77.3189657 132.7177026  47.2093171
  75.8303841 132.8999410  47.4161848  65.8609064 136.2494904  40.4671995
  65.7445322 135.5739807  41.1353079  65.9711324 135.7627278  39.6504148
  68.2040605 135.7105051  44.1718684  67.8398812 135.1835672  44.8831606
  69.0607721 135.3203520  43.9985170  74.1089905 126.9999384  51.4349951
  73.7773230 127.8694795  51.2111166  73.5135519 126.6835668  52.1143981
  67.8446092 130.7394951  39.1680033  68.0120494 131.6075187  39.5350504
  67.6543261 130.9022233  38.2441322  70.6021425 139.2011930  50.8345863
  70.3022148 140.1036969  50.7261670  70.2572484 138.9344113  51.6867016
  64.0533906 135.6525727  46.8682568  63.1284403 135.5201941  47.0760259
  64.3018320 136.4319946  47.3652510  74.0018569 131.7194470  48.5143301
  73.0935446 131.6509878  48.2202062  73.9506164 132.1966415  49.3425126
  67.8235313 133.1952608  40.1526700  67.7034938 133.6409659  40.9912180
  67.1287901 133.5437926  39.5940238  61.4142717 135.2959000  47.7026357
  61.5435099 135.5493479  48.6165768  60.7340169 135.8886708  47.3831012
  65.5842205 145.9656250  43.8016831  65.5066234 146.9164075  43.8805312
  64.9803848 145.6202123  44.4591757  68.0759434 133.1384116  56.4578198
  67.2992769 133.6978036  56.4481062  68.7149998 133.6240899  56.9793068
  75.8680215 129.9210908  50.2921175  75.2254595 130.2143442  49.6460969
  75.3635144 129.8063829  51.0974371  73.5220379 133.6674082  40.9807034
  74.4338235 133.9001468  40.8054731  73.0130026 134.2511126  40.4182112
  66.3305807 135.9469569  56.0196165  67.0720491 136.4854613  55.7430988
  65.6242792 136.5735858  56.1767717  71.8061146 138.0898709  54.6168326
  72.2144502 137.6481120  53.8722959  71.0838408 137.5151337  54.8702519
  68.1592216 133.0271316  51.9901883  69.0053412 133.4510730  52.1336532
  68.0990854 132.3704940  52.6840446  72.1289961 138.6499900  48.3720615
  71.4998824 138.8145614  47.6696683  71.7415623 139.0641510  49.1431579
  76.0079193 139.5854338  45.7264979  75.3230231 139.9653239  45.1762012
  76.0923042 140.1949664  46.4596927  71.3091662 130.6875684  53.6483057
  71.0652594 131.4417745  53.1117333  71.5851592 131.0661032  54.4830304
  73.2630125 137.2314297  52.3260323  73.4747020 137.8746057  51.6494704
  73.2159873 136.3976613  51.8582253  70.8656354 129.8432118  49.2296895
  70.0040833 130.1413371  49.5213632  70.8918788 130.0602516  48.2977927
  67.6817923 138.3874308  45.6370700  68.1456268 138.6662011  44.8475323
  67.4174721 137.4857753  45.4543791  64.5742004 137.9345790  48.5750464
  65.1443361 138.3633058  47.9367948  65.1650116 137.6528374  49.2734649
  66.6186809 134.5097460  42.4460265  67.3210852 134.9618504  42.9134192
  66.2867437 133.8681279  43.0740159  65.0667171 133.1009217  56.8211475
  64.4365831 133.7825498  57.0546872  64.9603258 132.9892299  55.8764613
  60.3612143 132.7681013  47.7477399  59.5711197 133.0238542  47.2717510
  60.8523390 133.5829351  47.8529440  74.3775953 140.1086252  50.4982680
  75.1993396 139.7066440  50.2165361  74.3738355 140.0054486  51.4498796
  62.3126888 133.1325592  44.7060876  61.5158052 133.2444287  45.2244371
  62.0852481 133.4712245  43.8401766  68.1432556 139.6570296  52.6543390
  68.2076988 140.1190703  53.4901562  67.4343480 139.0267660  52.7825700
  58.6449846 133.0211504  50.1792390  58.8957884 133.9058513  50.4449966
  59.1809394 132.8416105  49.4067482  82.4681946 136.4525001  46.8467651
  81.7145654 135.8832399  46.6911656  82.6029487 136.4187665  47.7938286
  67.8580574 141.3238403  42.5222371  67.7226248 142.1689939  42.9507218
  68.3990386 141.5257681  41.7588304  64.3447913 127.4029983  59.1836726
  63.9514859 126.8496181  59.8584370  65.1614054 127.7140561  59.5743243
  61.3109971 138.8413841  43.0950296  61.8234492 139.6357091  43.2455860
  61.9632684 138.1440132  43.0283897  63.1204856 141.9579597  45.1773049
  63.2971484 142.8797562  44.9894033  63.9161689 141.6438017  45.6067429
  67.2615874 128.8187862  56.7756982  68.0025588 129.4195015  56.6961445
  67.4933797 128.0765500  56.2175025  62.4057212 134.0044229  55.0535212
  62.2910727 133.1029487  55.3542311  61.5501730 134.2507926  54.7020029
  69.4849050 141.9461970  56.6522713  69.0412904 141.1598348  56.3343617
  70.1466264 142.1341120  55.9866604  64.2436171 143.4757771  51.1783391
  64.7943596 143.3474835  50.4060385  63.4047647 143.7752660  50.8278284
  71.5830288 142.2264770  54.6804114  71.5648763 143.0473651  54.1884383
  72.5050208 142.1018845  54.9054255  68.0403342 139.7408899  55.5227622
  68.5731679 138.9797187  55.2926930  67.5117423 139.4482551  56.2651777
  71.2073037 124.8468965  51.0521264  70.8637307 125.7370607  50.9760375
  71.5752000 124.6570623  50.1890849  59.2758888 137.1702495  43.8709866
  60.1134110 137.5799504  43.6543574  59.4537155 136.2301938  43.8410060
  71.1723320 134.8377576  39.5593699  70.6569943 135.6082181  39.7982087
  70.9000628 134.1642712  40.1826761  68.7570431 129.6827277  44.6178938
  67.9012027 129.2934127  44.4384576  69.1697383 129.7619238  43.7578723
  70.2869578 127.2173620  49.0170497  69.7834373 127.1803755  48.2038303
  70.5800184 128.1266363  49.0767154  66.5312463 127.3012350  48.0236679
  67.3965460 127.1055159  47.6642569  66.5989972 127.0722702  48.9506036
  76.1457594 137.5909931  41.4946873  75.3687037 137.2521090  41.0502035
  76.8249075 137.5962554  40.8201838  70.9609623 132.7104668  41.3853480
  70.6559759 133.0250817  42.2363624  71.9140065 132.7886088  41.4280813
  69.4056055 138.8694891  43.0346434  68.8777416 138.1347651  42.7219672
  68.9043558 139.6469568  42.7886403  74.3848901 137.0643912  48.1513481
  73.7272575 137.7543173  48.2393609  75.1889300 137.4540344  48.4947467
  64.1374783 129.5314558  45.3953046  64.7118534 129.3089739  44.6626239
  64.7245765 129.6003252  46.1481647  73.1954360 135.4188285  46.2017422
  73.7086241 136.0518276  46.7039132  73.8455584 134.8189480  45.8360782
  64.4644370 131.5619019  39.4148931  63.6281682 131.8993705  39.7358206
  64.3249139 131.4267999  38.4776068  66.4397450 126.4055807  44.1228115
  65.7861863 126.0904824  43.4984730  66.3977924 125.7831547  44.8487938
  67.5508655 136.6875102  36.0381407  66.6435717 136.4564355  36.2372556
  68.0479687 135.8912721  36.2255389  70.4576734 145.3972609  38.9578094
  69.7838433 145.7004306  39.5663051  70.8442556 146.2001689  38.6083551
  69.6735191 132.8937740  48.4475763  68.7557752 133.1152687  48.2897451
  70.0895334 132.9684051  47.5887470  70.4570238 134.2929156  43.5778443
  71.2042057 134.8050553  43.2685565  70.7261828 133.9713209  44.4382837
  68.7296889 136.7887697  40.5605398  67.8208108 136.5046729  40.6577867
  68.7591972 137.2086775  39.7008704  73.9616156 140.3994286  44.3296565
  73.5078483 139.5585196  44.3861756  73.3310123 141.0355684  44.6671345
  72.9049076 131.3286272  45.5597233  72.1671832 130.8163658  45.8907475
  73.1575849 130.8886654  44.7480509  72.4049095 142.2370783  45.2646383
  72.6972070 142.7975840  44.5458749  72.9147716 142.5299344  46.0199542
  73.0060703 124.1062524  46.1539002  73.3119580 123.2459888  45.8664917
  73.7313308 124.6980144  45.9537996  59.2985059 134.5093211  44.5420600
  59.1009459 133.9162571  43.8171666  58.7431723 134.2045421  45.2596539
  67.2781783 134.4016317  46.6615193  67.3330392 133.4490154  46.5857669
  66.4672985 134.5575756  47.1456491  68.4272976 138.3296440  37.8993476
  67.9892406 137.6132299  37.4399113  69.1683417 138.5572555  37.3378568
  65.2174143 133.0193377  44.4205572  64.4042008 133.3187547  44.8270764
  65.7133137 132.6249066  45.1380054  67.3682720 143.0151134  46.3539836
  67.3258899 143.2411980  45.4248368  68.2845419 142.7814508  46.5025638
  70.8148354 133.4835201  53.2520466  71.1697742 133.7106675  54.1114931
  71.4620485 133.8153578  52.6297721  76.5446091 136.6053637  43.9569795
  76.4063990 136.7955233  43.0290984  76.1882310 137.3673020  44.4137846
  64.7088217 130.5911732  50.0366807  65.3487597 130.4500492  49.3389770
  63.8765748 130.3046246  49.6605409  76.5715471 138.6730164  48.9681066
  77.0051977 138.5805453  49.8164120  77.2847051 138.6487665  48.3301082
  65.4848521 139.8914163  46.1501799  66.2789120 139.3964483  45.9484374
  64.7740214 139.3632026  45.7869505  70.3043366 142.2732258  50.5014167
  70.3580388 142.8423195  51.2691883  69.4358147 142.4434143  50.1368204
  61.7931285 134.0357245  42.2261552  60.8628873 133.9741700  42.4431514
  61.8888757 133.5133197  41.4298193  61.7116834 130.5612057  44.8139794
  61.9723651 131.4757391  44.7048954  62.5334006 130.0936500  44.9636406
  63.1841759 131.9749815  51.9838618  63.8564812 131.7667177  51.3351267
  62.3571546 131.7771901  51.5443850  77.4331020 138.7153865  51.5013952
  77.6266910 139.6199675  51.7473227  77.3331638 138.2561284  52.3352537
  69.0867331 128.6011756  54.0004279  68.4395246 129.3001705  53.9068755
  69.8568346 129.0347899  54.3680527  72.4946129 138.8660608  57.0754832
  72.3431635 138.6371159  56.1584916  72.4850808 139.8231209  57.0886177
  69.2631465 136.4392520  52.0601099  70.1923525 136.5903680  51.8870066
  68.8422495 136.5276541  51.2049745  68.0619797 140.4643185  49.8299636
  67.9230883 140.0961969  50.7025574  67.2734393 140.9790824  49.6583594
  68.6567949 145.5652281  41.1725173  68.8319705 145.0940325  41.9870795
  67.9700737 146.1918048  41.4006434  69.6125012 139.8424788  47.2188474
  69.2774845 139.8025558  48.1146124  69.1128958 139.1769503  46.7458884
  63.5869256 135.2492418  52.7441055  63.4489054 134.5172656  53.3452594
  64.4974180 135.1601318  52.4625243  72.5484204 137.1880822  37.4925534
  71.9313375 136.4627650  37.3958586  72.0800692 137.9490182  37.1492608
  66.2151557 134.9612377  52.2324735  66.9251175 134.3205569  52.1911353
  66.1720865 135.2125272  53.1550916  74.2038336 141.8979730  55.1531314
  74.1450882 141.2138950  54.4861897  74.6057854 142.6398720  54.7011940
  64.9280491 131.9477595  54.0520374  64.3917848 131.4968333  54.7041971
  64.3397199 132.0823504  53.3090839  64.3382750 131.4066246  36.6146838
  63.4612216 131.2855047  36.2509085  64.8140503 130.6152325  36.3625727
  74.2055743 139.8619314  53.3845294  73.3182522 139.5245236  53.5071693
  74.7754294 139.1302345  53.6214059  55.8584890 136.1943406  46.7088345
  56.5455930 135.8805136  46.1209360  55.7033019 137.0984771  46.4355597
  60.6619612 131.0833603  51.1373369  60.5777801 130.4759272  50.4023779
  59.8402319 131.5742621  51.1382865  67.7356896 144.5220767  50.3506537
  67.6627068 145.3275738  50.8625842  67.2934289 144.7212732  49.5254558
  67.5246676 143.7592537  43.8609358  66.7414198 144.3014217  43.9547583
  68.2239421 144.2766516  44.2603600  70.8343326 129.5687166  46.5043564
  71.3312026 128.8157128  46.1844634  70.0630308 129.6051483  45.9386773
  78.6873083 135.2727532  48.1461855  78.6762960 136.1552247  47.7755788
  77.8190463 134.9199082  47.9516392  70.1955580 144.4207601  52.5064696
  70.9083552 145.0555065  52.4340597  69.7045608 144.5171467  51.6904697
  71.9173107 138.3258853  44.0781987  70.9829385 138.4460316  43.9086692
  72.0949775 137.4231320  43.8141997  67.4178295 131.7104549  46.2315248
  67.0476082 131.1575589  46.9196154  67.9137387 131.1062683  45.6790249
  75.3045658 134.1676173  44.6132021  75.7706110 135.0004164  44.5392324
  75.7553159 133.7021154  45.3177280  65.2467493 142.1702044  53.3270266
  65.9476953 142.8038527  53.4799661  64.7762608 142.5116776  52.5665906
  73.3721889 140.5119994  41.6118173  73.6481733 140.3976588  42.5212048
  72.5026388 140.1137479  41.5730347  73.2762321 126.5356760  48.6522923
  72.3625401 126.7660986  48.8205130  73.7055422 126.6195204  49.5036955
  73.0468779 134.7246651  51.1522817  72.3940230 134.9722559  50.4975270
  73.4249159 133.9110790  50.8185294  70.0075953 144.7606345  45.2550987
  70.1898348 143.9428001  45.7178739  70.8308939 144.9774037  44.8175877
  70.3418119 143.6874530  42.5166036  70.8705885 143.1766984  41.9036198
  70.6046338 143.3717060  43.3811569  69.0956352 135.4666463  57.6388854
  68.4196989 135.3660592  58.3091229  69.9183986 135.3105676  58.1024851
  60.8435211 141.7038399  50.2601369  61.4288648 140.9582087  50.3929273
  60.6460050 142.0142356  51.1438033  63.6973867 144.7389646  45.2763811
  63.0284242 145.2235774  44.7927852  63.5586736 144.9858867  46.1907190
  55.4352866 134.2743999  48.9805812  55.4736966 133.7407590  49.7742930
  54.9293159 133.7479205  48.3616789  67.8379135 146.7733390  51.8746470
  68.3897443 146.9365012  52.6395555  68.1785329 147.3637828  51.2026495
  62.8143628 129.1208540  52.4768355  62.8784955 129.9823371  52.0645752
  62.7510749 128.5082541  51.7440713  62.2895901 131.1931672  56.1241389
  62.9167940 130.8108750  56.7378913  61.4323820 130.9745874  56.4897081
  72.6890010 141.5994648  57.7295124  73.2329914 142.2124606  57.2350079
  72.1076854 142.1574226  58.2462137  59.0661444 133.0008101  42.0559744
  59.3614885 132.0918780  42.0026797  58.1649479 132.9795841  41.7340746
  70.9747522 144.7215366  48.8610152  70.8498662 143.9205105  48.3521098
  71.6326614 145.2161559  48.3724122  62.5955691 131.0764098  48.0387292
  61.8742276 131.6900066  47.8994766  63.3848946 131.6121863  47.9603938
  73.0382431 142.5224386  50.4889702  72.0912766 142.4029737  50.4168029
  73.3865204 141.6346884  50.5715964  65.3982004 128.4118525  54.3127944
  65.9216406 128.6580821  55.0754253  65.1794338 129.2438559  53.8931081
  60.7949285 130.6822199  42.1799069  60.4661991 129.8019578  41.9974175
  61.1488656 130.6269868  43.0675458  70.0428864 142.3177102  46.6894054
  69.8953827 141.3893809  46.8701624  70.8682358 142.3397193  46.2051130
  63.9091108 130.9695169  42.5474546  64.2487181 131.4981090  41.8253155
  64.3563229 131.3075575  43.3233113  73.6462986 143.1405661  47.7758927
  74.5709533 142.9348522  47.6383378  73.4778289 142.8922062  48.6848269
  66.6034549 129.3532220  51.9977615  66.2631370 128.5540033  52.3998294
  65.8973556 129.6533930  51.4254448  67.2551021 126.4381532  50.4504938
  68.0777090 125.9642010  50.3283828  67.4989085 127.2172016  50.9503624
  65.8959256 129.4669791  40.7467839  66.6167618 129.8451043  40.2431556
  65.2724560 130.1858667  40.8502817  70.0390378 130.1714939  41.6826172
  70.2553993 131.0539577  41.3815000  69.5584446 129.7801153  40.9531814
  64.7789600 133.1300653  48.2596916  64.6334181 133.4440956  49.1521198
  64.3014803 133.7485553  47.7067815  66.6385983 130.1203201  48.3077806
  66.6247551 129.2244294  47.9710104  67.3558411 130.1273864  48.9416092
  68.4912113 130.5540541  50.3530933  68.2329891 131.4757612  50.3515264
  67.9597154 130.1570975  51.0431397  73.4358302 143.6591328  43.1321019
  73.6095180 143.0937750  42.3794871  73.9287193 144.4592223  42.9500508
  59.2535262 135.6705997  51.1984577  58.7088730 136.4465805  51.3304852
  60.1314612 136.0176802  51.0403699  66.0422879 129.0017581  43.5765376
  66.1638790 128.0734227  43.7756263  65.7524921 129.0156267  42.6643691
  68.9114069 126.6872491  46.7132096  68.9335766 126.7511824  45.7584075
  69.3282128 125.8477000  46.9072602  79.2897693 136.4227751  44.7511318
  79.7328839 135.6735076  44.3530442  78.4124204 136.4137887  44.3685050
  74.4233475 142.9758092  40.2317917  75.1184379 143.5964785  40.4505231
  74.7656625 142.1253444  40.5070295  60.0401284 134.7975893  54.0914734
  59.2983020 134.9458529  54.6779365  59.7194028 135.0584159  53.2281484
  76.3224898 140.4257798  41.7605248  76.8476222 140.7645071  41.0354568
  76.2347250 139.4904813  41.5768382  67.9844947 144.3391872  53.8895124
  68.2932073 144.0941018  54.7617824  68.7820429 144.5438510  53.4013994
  68.0065559 146.4929781  46.1200501  67.5670549 146.0006160  46.8133357
  68.7573676 145.9502749  45.8792576  60.4857898 142.6841322  46.1225129
  61.3115917 142.3845094  45.7423772  60.1351950 141.9148945  46.5714918
  65.4539431 142.0367790  48.1922802  64.8319440 141.3738495  47.8925030
  66.1244298 142.0628922  47.5096450  58.6866503 140.6027649  47.0814062
  57.8498411 140.1749823  46.8998064  58.6590148 140.7960092  48.0184854
  65.5263958 130.5149578  57.7855308  65.5752114 131.3911701  57.4033078
  66.0686472 129.9726971  57.2126952  76.0118804 141.0590702  57.0656446
  75.2214348 141.0414840  56.5260945  75.7752158 141.5978995  57.8205482
  76.1316679 137.9083168  54.3789174  76.1814684 137.7433175  55.3204697
  76.0230602 137.0410427  53.9887055  65.0152938 140.5871714  41.6681263
  65.1641058 141.2707178  41.0147936  65.8219381 140.5676804  42.1830719
  73.4220441 133.8914096  55.6948481  74.3230304 133.7520561  55.4032479
  73.4968416 134.0568551  56.6346658  67.7563247 131.2680951  54.5401667
  66.8866556 131.5614517  54.2684256  67.9922727 131.8521396  55.2608931
  77.6334876 140.3280109  54.6231196  77.3419684 140.6910090  55.4594657
  77.0207007 139.6147118  54.4444528  78.8330558 137.8932989  47.1433766
  79.6677449 138.3322793  47.3071326  78.9689687 137.4171642  46.3242012
  75.8822064 135.4512724  53.0911254  76.3576186 135.6440370  52.2830105
  74.9587629 135.5071910  52.8454637  62.7705571 136.6136891  42.6742332
  62.5251613 135.7099221  42.8722542  62.9401485 136.6154042  41.7321810
  70.4602280 127.4860568  52.0567088  70.9784224 128.2221595  51.7313576
  70.1057413 127.7924561  52.8913847  62.0401218 132.3465249  40.1728493
  61.3470463 132.4209604  39.5168529  61.7952970 131.5825593  40.6950010
  70.7114875 123.9060850  47.5767984  70.9916628 123.2384039  48.2028411
  71.4965482 124.0989946  47.0642648  68.5148343 143.0819844  39.1393010
  67.9422310 143.7010031  38.6863482  69.0881137 143.6319206  39.6732932
  74.5823733 132.3278484  51.3239559  75.5341156 132.4276582  51.3451783
  74.4127183 131.5356753  51.8337644  72.6038112 129.4134067  51.5098960
  72.0088045 129.6939080  50.8145449  72.3187809 129.9027968  52.2815701
  71.7345603 143.3656994  40.2701593  72.6676276 143.3002556  40.4734468
  71.6468816 144.2013261  39.8116125  74.3633620 142.6822865  37.2305540
  74.2847251 142.3482728  38.1241298  75.1843286 143.1744632  37.2297013
  77.0611811 135.5484604  50.4381859  77.0288131 134.6100605  50.6241543
  77.6712434 135.6268641  49.7047684  68.8995142 134.4180657  36.4809063
  69.8454246 134.2886865  36.5497481  68.5209387 133.6795319  36.9578491
  77.2106299 132.3395647  50.4840142  76.6945348 131.5554104  50.2970071
  78.0946248 132.0114364  50.6486662  74.8717026 126.0836663  46.4435955
  74.6741847 125.7751751  47.3279287  75.4816732 126.8098302  46.5733885
  82.8788361 136.6100611  49.5787896  83.6091749 136.3485899  50.1395599
  82.2695306 135.8729333  49.6189964  80.9603658 134.7508473  50.1762347
  80.2336821 134.6164438  49.5678838  80.5450945 135.0585302  50.9819065
  68.7833834 138.4698403  57.9409720  69.7036844 138.6477002  58.1349766
  68.7483417 137.5254448  57.7889419  67.0838059 132.3430633  36.4163948
  66.1769514 132.0463746  36.4926662  67.3614040 132.0460451  35.5498234
  58.0015999 133.6636997  46.8662995  57.6818784 132.8102305  46.5737369
  57.4549427 133.8785575  47.6220962  61.7795907 136.3799438  50.5832501
  61.9981917 137.3116545  50.6020535  62.1921681 136.0207412  51.3687305
  68.7000125 126.8867523  42.5708189  67.8900853 126.5414608  42.9463436
  69.3884541 126.5775067  43.1595801  70.6290673 125.9645570  44.1932486
  71.1821711 126.3841023  44.8522509  70.8660759 125.0381318  44.2355442
  66.6523772 131.9532643  59.9735250  66.5520499 132.9027000  59.9047341
  66.4345314 131.6250882  59.1011320  65.8536843 129.2017568  36.5575927
  66.7156007 129.5272467  36.8171745  66.0387188 128.4149064  36.0448993
  57.8704259 137.2839908  48.8356116  57.1767731 136.8693861  48.3226071
  58.6177250 137.3260445  48.2389535  74.0069480 128.0746095  43.7011150
  73.4268149 128.7330899  43.3189203  73.7405413 127.2523440  43.2898568
  72.4573046 127.4751153  45.9032471  72.9572825 127.5867687  45.0946790
  73.1008654 127.1712205  46.5433279  66.5155042 135.3829782  58.7900312
  66.0322124 136.1830142  58.9964201  66.6015981 135.3937727  57.8367756
  59.7841002 137.2158162  46.7122131  59.7611690 137.3145849  45.7604014
  60.0941638 138.0623313  47.0339297  62.4428380 139.2734317  50.8268745
  63.3971633 139.2418259  50.7598677  62.2440903 138.8124941  51.6418971
  63.0327762 137.8435433  53.3939543  63.8520651 138.3379512  53.4174380
  63.3064569 136.9267401  53.3657111  72.7894358 130.2346185  42.7567499
  71.9020213 130.5195836  42.5387693  73.2048347 130.0739949  41.9094775
  76.1408894 130.2592706  46.4721838  76.9169284 130.7489159  46.7446455
  75.4157028 130.6850760  46.9293707  78.5781453 130.9720326  47.5295778
  79.1725943 130.7316061  46.8189087  78.6508036 130.2527456  48.1569315
  60.7978608 144.8153936  47.8438943  60.6633076 144.0554337  47.2776941
  60.3810671 145.5394836  47.3767732  71.9337571 139.9990860  36.8515519
  72.6373422 140.2040862  37.4673174  71.2100220 140.5667622  37.1164602
  72.7635382 135.7500721  42.9717789  72.7070583 136.2069273  42.1325421
  73.3163724 134.9891406  42.7940632  76.5740188 131.5390453  43.7967908
  76.3177122 131.1387089  44.6276116  75.9493056 132.2534247  43.6718047
  80.8852525 134.2786526  46.3039200  80.3252083 134.3479716  47.0770762
  80.2796029 134.1027511  45.5838696  63.9547734 145.7123253  48.0557386
  63.8380118 146.6568686  47.9536076  63.1340181 145.4096815  48.4443185
  73.8424269 140.4373389  38.9013979  74.6769873 140.0054588  38.7191453
  73.6808612 140.2655403  39.8290873  73.4970161 136.9405502  40.2670318
  73.4418965 136.7749774  39.3258762  72.8716216 137.6481535  40.4232508
  58.2862676 132.1773567  54.0931740  58.9321540 131.6672521  54.5818965
  58.0779827 132.9142249  54.6675165  70.8116068 139.2454414  59.5923881
  71.6807228 139.4195067  59.2310516  70.3322820 140.0648831  59.4699610
  66.8066286 126.4413611  39.8455636  66.7944956 127.3855451  40.0023907
  67.6989708 126.2583757  39.5515098  64.9802248 146.3651515  51.2713314
  65.8829495 146.3975126  51.5879809  64.7539618 145.4351966  51.2859650
  66.7355850 145.1182502  47.9323393  65.7851481 145.1184364  47.8187765
  67.0388337 144.3715236  47.4159428  70.6218406 123.0356388  44.1001573
  69.8550802 122.4814875  44.2458255  71.0329111 123.1078257  44.9615725
  62.6260167 129.3241184  58.1906754  63.4891629 128.9677989  58.4010079
  62.0525578 128.9855079  58.8782159  82.4708544 150.9543040  48.9969155
  83.1086954 150.8349788  48.2932495  82.3529387 151.9023884  49.0557108
  79.2798250 150.9070468  48.9330680  78.9416762 150.7911533  48.0451215
  80.1488018 150.5061633  48.9131686  75.1385066 152.7605945  44.9227571
  74.5749931 152.6695882  44.1543859  75.0237461 151.9405849  45.4030064
  79.7618033 152.0605320  54.8916886  79.7506674 151.6658118  54.0197389
  79.9238673 151.3271393  55.4850657  77.4081501 152.2219280  50.4297429
  78.0045073 151.9975303  49.7154392  77.4656473 151.4804026  51.0322877
  76.9806530 149.6758716  38.2647620  77.2332050 149.1540237  37.5031083
  76.0431089 149.5124861  38.3674304  82.0249812 148.6794494  46.0722363
  82.8112902 148.2613917  45.7212780  82.2888517 149.5840586  46.2404012
  82.1959890 154.1167344  40.7711020  81.5605723 154.1901971  41.4831925
  81.8657296 154.7060943  40.0930099  87.4258240 148.6169727  46.9755342
  88.1583411 148.0468944  47.2093171  86.6697595 148.2291328  47.4161848
  76.7002818 151.5786822  40.4671995  76.5839076 150.9031725  41.1353079
  76.8105078 151.0919196  39.6504148  79.0434359 151.0396969  44.1718684
  78.6792566 150.5127590  44.8831606  79.9001475 150.6495438  43.9985170
  84.9483660 142.3291301  51.4349951  84.6166985 143.1986712  51.2111166
  84.3529273 142.0127585  52.1143981  78.6839846 146.0686869  39.1680033
  78.8514249 146.9367105  39.5350504  78.4937015 146.2314150  38.2441322
  74.8927661 150.9817644  46.8682568  73.9678157 150.8493858  47.0760259
  75.1412074 151.7611864  47.3652510  84.8412323 147.0486388  48.5143301
  83.9329201 146.9801796  48.2202062  84.7899919 147.5258333  49.3425126
  78.6629067 148.5244526  40.1526700  78.5428692 148.9701577  40.9912180
  77.9681655 148.8729844  39.5940238  72.2536472 150.6250918  47.7026357
  72.3828853 150.8785397  48.6165768  71.5733923 151.2178626  47.3831012
  78.9153189 148.4676033  56.4578198  78.1386523 149.0269953  56.4481062
  79.5543752 148.9532816  56.9793068  86.7073970 145.2502826  50.2921175
  86.0648350 145.5435359  49.6460969  86.2028898 145.1355746  51.0974371
  84.3614133 148.9965999  40.9807034  85.2731989 149.2293386  40.8054731
  83.8523780 149.5803043  40.4182112  77.1699561 151.2761487  56.0196165
  77.9114246 151.8146531  55.7430988  76.4636547 151.9027775  56.1767717
  82.6454901 153.4190627  54.6168326  83.0538257 152.9773038  53.8722959
  81.9232162 152.8443255  54.8702519  78.9985971 148.3563234  51.9901883
  79.8447166 148.7802647  52.1336532  78.9384609 147.6996858  52.6840446
  82.9683716 153.9791818  48.3720615  82.3392578 154.1437532  47.6696683
  82.5809378 154.3933427  49.1431579  86.8472947 154.9146256  45.7264979
  86.1623986 155.2945157  45.1762012  86.9316797 155.5241582  46.4596927
  82.1485416 146.0167602  53.6483057  81.9046348 146.7709663  53.1117333
  82.4245347 146.3952950  54.4830304  84.1023879 152.5606215  52.3260323
  84.3140774 153.2037974  51.6494704  84.0553627 151.7268531  51.8582253
  81.7050108 145.1724035  49.2296895  80.8434587 145.4705289  49.5213632
  81.7312543 145.3894434  48.2977927  78.5211677 153.7166226  45.6370700
  78.9850023 153.9953929  44.8475323  78.2568476 152.8149670  45.4543791
  77.4580563 149.8389378  42.4460265  78.1604607 150.2910422  42.9134192
  77.1261192 149.1973197  43.0740159  75.9060925 148.4301135  56.8211475
  75.2759586 149.1117416  57.0546872  75.7997013 148.3184216  55.8764613
  71.2005897 148.0972931  47.7477399  70.4104951 148.3530459  47.2717510
  71.6917145 148.9121269  47.8529440  85.2169707 155.4378170  50.4982680
  86.0387151 155.0358357  50.2165361  85.2132110 155.3346404  51.4498796
  73.1520643 148.4617510  44.7060876  72.3551806 148.5736204  45.2244371
  72.9246235 148.8004162  43.8401766  69.4843600 148.3503421  50.1792390
  69.7351639 149.2350431  50.4449966  70.0203149 148.1708023  49.4067482
  93.3075700 151.7816918  46.8467651  92.5539408 151.2124317  46.6911656
  93.4423241 151.7479583  47.7938286  75.1841668 142.7321901  59.1836726
  74.7908613 142.1788099  59.8584370  76.0007808 143.0432479  59.5743243
  78.1009629 144.1479780  56.7756982  78.8419342 144.7486933  56.6961445
  78.3327552 143.4057417  56.2175025  73.2450967 149.3336147  55.0535212
  73.1304482 148.4321404  55.3542311  72.3895484 149.5799844  54.7020029
  82.0466792 140.1760883  51.0521264  81.7031061 141.0662524  50.9760375
  82.4145754 139.9862540  50.1890849  82.0117074 150.1669494  39.5593699
  81.4963698 150.9374098  39.7982087  81.7394383 149.4934630  40.1826761
  79.5964185 145.0119195  44.6178938  78.7405782 144.6226045  44.4384576
  80.0091137 145.0911155  43.7578723  81.1263332 142.5465538  49.0170497
  80.6228128 142.5095673  48.2038303  81.4193939 143.4558280  49.0767154
  77.3706218 142.6304267  48.0236679  78.2359215 142.4347076  47.6642569
  77.4383727 142.4014619  48.9506036  86.9851349 152.9201848  41.4946873
  86.2080791 152.5813008  41.0502035  87.6642829 152.9254472  40.8201838
  81.8003378 148.0396586  41.3853480  81.4953513 148.3542735  42.2363624
  82.7533820 148.1178006  41.4280813  85.2242655 152.3935830  48.1513481
  84.5666330 153.0835091  48.2393609  86.0283055 152.7832262  48.4947467
  74.9768537 144.8606475  45.3953046  75.5512289 144.6381657  44.6626239
  75.5639519 144.9295170  46.1481647  84.0348114 150.7480202  46.2017422
  84.5479996 151.3810194  46.7039132  84.6849338 150.1481398  45.8360782
  75.3038124 146.8910936  39.4148931  74.4675436 147.2285623  39.7358206
  75.1642894 146.7559916  38.4776068  77.2791205 141.7347724  44.1228115
  76.6255617 141.4196741  43.4984730  77.2371679 141.1123465  44.8487938
  78.3902410 152.0167019  36.0381407  77.4829471 151.7856273  36.2372556
  78.8873442 151.2204639  36.2255389  80.5128945 148.2229658  48.4475763
  79.5951506 148.4444605  48.2897451  80.9289089 148.2975968  47.5887470
  81.2963993 149.6221074  43.5778443  82.0435812 150.1342471  43.2685565
  81.5655582 149.3005126  44.4382837  79.5690643 152.1179614  40.5605398
  78.6601862 151.8338647  40.6577867  79.5985727 152.5378693  39.7008704
  83.7442830 146.6578190  45.5597233  83.0065587 146.1455576  45.8907475
  83.9969604 146.2178571  44.7480509  83.8454457 139.4354442  46.1539002
  84.1513334 138.5751805  45.8664917  84.5707062 140.0272062  45.9537996
  70.1378813 149.8385128  44.5420600  69.9403213 149.2454489  43.8171666
  69.5825477 149.5337339  45.2596539  78.1175537 149.7308235  46.6615193
  78.1724147 148.7782071  46.5857669  77.3066739 149.8867674  47.1456491
  79.2666731 153.6588358  37.8993476  78.8286161 152.9424217  37.4399113
  80.0077172 153.8864473  37.3378568  76.0567897 148.3485295  44.4205572
  75.2435763 148.6479465  44.8270764  76.5526891 147.9540983  45.1380054
  81.6542109 148.8127119  53.2520466  82.0091496 149.0398592  54.1114931
  82.3014240 149.1445496  52.6297721  87.3839846 151.9345555  43.9569795
  87.2457744 152.1247151  43.0290984  87.0276064 152.6964938  44.4137846
  75.5481972 145.9203650  50.0366807  76.1881351 145.7792409  49.3389770
  74.7159502 145.6338164  49.6605409  87.4109225 154.0022082  48.9681066
  87.8445732 153.9097371  49.8164120  88.1240806 153.9779582  48.3301082
  72.6325039 149.3649162  42.2261552  71.7022627 149.3033618  42.4431514
  72.7282511 148.8425115  41.4298193  72.5510588 145.8903975  44.8139794
  72.8117405 146.8049308  44.7048954  73.3727760 145.4228418  44.9636406
  74.0235514 147.3041732  51.9838618  74.6958567 147.0959094  51.3351267
  73.1965300 147.1063818  51.5443850  88.2724775 154.0445783  51.5013952
  88.4660665 154.9491593  51.7473227  88.1725393 153.5853202  52.3352537
  79.9261086 143.9303673  54.0004279  79.2789001 144.6293623  53.9068755
  80.6962101 144.3639817  54.3680527  83.3339883 154.1952525  57.0754832
  83.1825390 153.9663077  56.1584916  83.3244563 155.1523127  57.0886177
  80.1025220 151.7684438  52.0601099  81.0317280 151.9195598  51.8870066
  79.6816250 151.8568459  51.2049745  74.4263011 150.5784335  52.7441055
  74.2882809 149.8464574  53.3452594  75.3367934 150.4893235  52.4625243
  83.3877958 152.5172740  37.4925534  82.7707129 151.7919568  37.3958586
  82.9194447 153.2782100  37.1492608  77.0545311 150.2904295  52.2324735
  77.7644930 149.6497487  52.1911353  77.0114620 150.5417189  53.1550916
  75.7674245 147.2769512  54.0520374  75.2311602 146.8260251  54.7041971
  75.1790954 147.4115421  53.3090839  75.1776504 146.7358164  36.6146838
  74.3005971 146.6146965  36.2509085  75.6534257 145.9444242  36.3625727
  85.0449497 155.1911232  53.3845294  84.1576276 154.8537154  53.5071693
  85.6148048 154.4594263  53.6214059  71.5013367 146.4125520  51.1373369
  71.4171555 145.8051190  50.4023779  70.6796073 146.9034538  51.1382865
  81.6737081 144.8979084  46.5043564  82.1705780 144.1449046  46.1844634
  80.9024062 144.9343400  45.9386773  89.5266838 150.6019449  48.1461855
  89.5156714 151.4844165  47.7755788  88.6584217 150.2491000  47.9516392
  82.7566861 153.6550771  44.0781987  81.8223140 153.7752233  43.9086692
  82.9343530 152.7523238  43.8141997  78.2572049 147.0396467  46.2315248
  77.8869837 146.4867507  46.9196154  78.7531142 146.4354600  45.6790249
  86.1439413 149.4968090  44.6132021  86.6099865 150.3296082  44.5392324
  86.5946913 149.0313072  45.3177280  84.2115644 155.8411912  41.6118173
  84.4875488 155.7268506  42.5212048  83.3420142 155.4429396  41.5730347
  84.1156075 141.8648677  48.6522923  83.2019155 142.0952904  48.8205130
  84.5449177 141.9487121  49.5036955  83.8862534 150.0538569  51.1522817
  83.2333984 150.3014477  50.4975270  84.2642914 149.2402707  50.8185294
  79.9350107 150.7958380  57.6388854  79.2590744 150.6952510  58.3091229
  80.7577741 150.6397594  58.1024851  66.2746621 149.6035917  48.9805812
  66.3130720 149.0699508  49.7742930  65.7686913 149.0771122  48.3616789
  73.6537383 144.4500457  52.4768355  73.7178709 145.3115288  52.0645752
  73.5904503 143.8374459  51.7440713  73.1289655 146.5223590  56.1241389
  73.7561694 146.1400667  56.7378913  72.2717574 146.3037792  56.4897081
  69.9055198 148.3300019  42.0559744  70.2008639 147.4210698  42.0026797
  69.0043234 148.3087759  41.7340746  73.4349445 146.4056016  48.0387292
  72.7136031 147.0191983  47.8994766  74.2242701 146.9413781  47.9603938
  76.2375759 143.7410442  54.3127944  76.7610161 143.9872739  55.0754253
  76.0188092 144.5730477  53.8931081  71.6343040 146.0114117  42.1799069
  71.3055746 145.1311496  41.9974175  71.9882410 145.9561785  43.0675458
  74.7484863 146.2987087  42.5474546  75.0880935 146.8273008  41.8253155
  75.1956983 146.6367493  43.3233113  77.4428304 144.6824137  51.9977615
  77.1025124 143.8831950  52.3998294  76.7367310 144.9825848  51.4254448
  78.0944776 141.7673450  50.4504938  78.9170845 141.2933928  50.3283828
  78.3382839 142.5463933  50.9503624  76.7353010 144.7961708  40.7467839
  77.4561373 145.1742961  40.2431556  76.1118314 145.5150585  40.8502817
  80.8784133 145.5006857  41.6826172  81.0947747 146.3831495  41.3815000
  80.3978200 145.1093071  40.9531814  75.6183354 148.4592570  48.2596916
  75.4727935 148.7732873  49.1521198  75.1408558 149.0777471  47.7067815
  77.4779737 145.4495118  48.3077806  77.4641306 144.5536212  47.9710104
  78.1952165 145.4565782  48.9416092  79.3305868 145.8832459  50.3530933
  79.0723646 146.8049529  50.3515264  78.7990908 145.4862893  51.0431397
  76.8816633 144.3309499  43.5765376  77.0032544 143.4026145  43.7756263
  76.5918676 144.3448185  42.6643691  79.7507824 142.0164409  46.7132096
  79.7729520 142.0803742  45.7584075  80.1675883 141.1768918  46.9072602
  90.1291448 151.7519669  44.7511318  90.5722594 151.0026994  44.3530442
  89.2517958 151.7429805  44.3685050  70.8795038 150.1267811  54.0914734
  70.1376774 150.2750446  54.6779365  70.5587783 150.3876077  53.2281484
  87.1618652 155.7549716  41.7605248  87.6869976 156.0936988  41.0354568
  87.0741005 154.8196731  41.5768382  76.3657713 145.8441496  57.7855308
  76.4145868 146.7203619  57.4033078  76.9080227 145.3018889  57.2126952
  86.8512558 156.3882619  57.0656446  86.0608102 156.3706758  56.5260945
  86.6145913 156.9270913  57.8205482  86.9710433 153.2375086  54.3789174
  87.0208438 153.0725093  55.3204697  86.8624357 152.3702345  53.9887055
  84.2614196 149.2206014  55.6948481  85.1624059 149.0812479  55.4032479
  84.3362170 149.3860468  56.6346658  78.5957001 146.5972868  54.5401667
  77.7260311 146.8906434  54.2684256  78.8316482 147.1813313  55.2608931
  88.4728630 155.6572027  54.6231196  88.1813439 156.0202008  55.4594657
  87.8600762 154.9439035  54.4444528  89.6724313 153.2224907  47.1433766
  90.5071204 153.6614711  47.3071326  89.8083441 152.7463560  46.3242012
  86.7215819 150.7804642  53.0911254  87.1969940 150.9732288  52.2830105
  85.7981384 150.8363828  52.8454637  73.6099325 151.9428809  42.6742332
  73.3645367 151.0391139  42.8722542  73.7795240 151.9445959  41.7321810
  81.2996035 142.8152485  52.0567088  81.8177979 143.5513512  51.7313576
  80.9451168 143.1216479  52.8913847  72.8794973 147.6757167  40.1728493
  72.1864218 147.7501522  39.5168529  72.6346725 146.9117510  40.6950010
  81.5508629 139.2352768  47.5767984  81.8310383 138.5675957  48.2028411
  82.3359236 139.4281863  47.0642648  85.4217487 147.6570402  51.3239559
  86.3734910 147.7568500  51.3451783  85.2520938 146.8648670  51.8337644
  83.4431867 144.7425985  51.5098960  82.8481799 145.0230998  50.8145449
  83.1581564 145.2319886  52.2815701  87.9005565 150.8776522  50.4381859
  87.8681885 149.9392522  50.6241543  88.5106189 150.9560558  49.7047684
  79.7388896 149.7472575  36.4809063  80.6848001 149.6178783  36.5497481
  79.3603141 149.0087236  36.9578491  88.0500054 147.6687565  50.4840142
  87.5339102 146.8846022  50.2970071  88.9340002 147.3406282  50.6486662
  85.7110781 141.4128581  46.4435955  85.5135602 141.1043669  47.3279287
  86.3210486 142.1390219  46.5733885  93.7182115 151.9392528  49.5787896
  94.4485504 151.6777817  50.1395599  93.1089061 151.2021250  49.6189964
  91.7997412 150.0800391  50.1762347  91.0730576 149.9456356  49.5678838
  91.3844699 150.3877220  50.9819065  79.6227589 153.7990321  57.9409720
  80.5430598 153.9768920  58.1349766  79.5877172 152.8546366  57.7889419
  77.9231813 147.6722551  36.4163948  77.0163269 147.3755664  36.4926662
  78.2007794 147.3752369  35.5498234  68.8409754 148.9928914  46.8662995
  68.5212538 148.1394223  46.5737369  68.2943182 149.2077492  47.6220962
  79.5393879 142.2159441  42.5708189  78.7294607 141.8706526  42.9463436
  80.2278296 141.9066984  43.1595801  81.4684427 141.2937487  44.1932486
  82.0215466 141.7132941  44.8522509  81.7054514 140.3673236  44.2355442
  77.4917527 147.2824561  59.9735250  77.3914253 148.2318918  59.9047341
  77.2739069 146.9542800  59.1011320  76.6930598 144.5309486  36.5575927
  77.5549762 144.8564384  36.8171745  76.8780942 143.7440982  36.0448993
  84.8463234 143.4038013  43.7011150  84.2661903 144.0622817  43.3189203
  84.5799167 142.5815357  43.2898568  83.2966801 142.8043070  45.9032471
  83.7966579 142.9159605  45.0946790  83.9402409 142.5004123  46.5433279
  77.3548797 150.7121700  58.7900312  76.8715878 151.5122060  58.9964201
  77.4409736 150.7229645  57.8367756  83.6288112 145.5638103  42.7567499
  82.7413967 145.8487754  42.5387693  84.0442101 145.4031866  41.9094775
  86.9802649 145.5884624  46.4721838  87.7563039 146.0781076  46.7446455
  86.2550783 146.0142678  46.9293707  89.4175207 146.3012243  47.5295778
  90.0119698 146.0607979  46.8189087  89.4901791 145.5819374  48.1569315
  83.6029136 151.0792639  42.9717789  83.5464338 151.5361190  42.1325421
  84.1557479 150.3183324  42.7940632  87.4133942 146.8682371  43.7967908
  87.1570876 146.4679006  44.6276116  86.7886810 147.5826165  43.6718047
  91.7246280 149.6078444  46.3039200  91.1645838 149.6771633  47.0770762
  91.1189783 149.4319429  45.5838696  84.6818023 155.7665307  38.9013979
  85.5163627 155.3346505  38.7191453  84.5202366 155.5947321  39.8290873
  84.3363915 152.2697420  40.2670318  84.2812719 152.1041692  39.3258762
  83.7109971 152.9773453  40.4232508  69.1256430 147.5065485  54.0931740
  69.7715294 146.9964439  54.5818965  68.9173582 148.2434166  54.6675165
  77.6460041 141.7705529  39.8455636  77.6338711 142.7147369  40.0023907
  78.5383463 141.5875675  39.5515098  81.4612160 138.3648306  44.1001573
  80.6944556 137.8106793  44.2458255  81.8722865 138.4370175  44.9615725
  73.4653921 144.6533102  58.1906754  74.3285383 144.2969906  58.4010079
  72.8919332 144.3146996  58.8782159  95.7877414 157.6583219  51.4349951
  95.4560739 158.5278630  51.2111166  95.1923028 157.3419503  52.1143981
  92.8860546 155.5052800  51.0521264  92.5424816 156.3954442  50.9760375
  93.2539509 155.3154458  50.1890849  91.9657087 157.8757455  49.0170497
  91.4621882 157.8387591  48.2038303  92.2587693 158.7850198  49.0767154
  88.1184959 157.0639642  44.1228115  87.4649372 156.7488659  43.4984730
  88.0765433 156.4415382  44.8487938  94.6848212 154.7646359  46.1539002
  94.9907089 153.9043723  45.8664917  95.4100817 155.3563980  45.9537996
  94.9549830 157.1940595  48.6522923  94.0412910 157.4244822  48.8205130
  95.3842931 157.2779039  49.5036955  88.9338530 157.0965367  50.4504938
  89.7564599 156.6225846  50.3283828  89.1776594 157.8755851  50.9503624
  90.5901578 157.3456327  46.7132096  90.6123275 157.4095660  45.7584075
  91.0069637 156.5060835  46.9072602  92.1389789 158.1444403  52.0567088
  92.6571733 158.8805430  51.7313576  91.7844922 158.4508396  52.8913847
  92.3902384 154.5644686  47.5767984  92.6704137 153.8967875  48.2028411
  93.1752991 154.7573781  47.0642648  96.5504535 156.7420498  46.4435955
  96.3529356 156.4335586  47.3279287  97.1604241 157.4682137  46.5733885
  90.3787634 157.5451358  42.5708189  89.5688362 157.1998443  42.9463436
  91.0672050 157.2358902  43.1595801  92.3078182 156.6229405  44.1932486
  92.8609220 157.0424859  44.8522509  92.5448268 155.6965153  44.2355442
  95.6856989 158.7329930  43.7011150  95.1055658 159.3914734  43.3189203
  95.4192922 157.9107275  43.2898568  94.1360555 158.1334988  45.9032471
  94.6360334 158.2451523  45.0946790  94.7796163 157.8296041  46.5433279
  92.3005915 153.6940223  44.1001573  91.5338311 153.1398710  44.2458255
  92.7116620 153.7662092  44.9615725   4.4486524  26.9772586  43.3768019
   4.0050378  26.1908965  43.0588924   5.1103738  27.1651737  42.7111910
   6.5467762  27.2575386  41.4049421   6.5286238  28.0784267  40.9129690
   7.4687682  27.1329461  41.6299562   3.0040817  24.7719516  42.2472929
   3.5369153  24.0107804  42.0172237   2.4754898  24.4793167  42.9897084
   7.4583603  23.8971224  43.8000139   7.3069110  23.6681776  42.8830223
   7.4488283  24.8541826  43.8131484   9.1675810  26.9290347  41.8776621
   9.1088356  26.2449567  41.2107204   9.5695328  27.6709337  41.4257247
   9.1693217  24.8929931  40.1090600   8.2819996  24.5555853  40.2316999
   9.7391768  24.1612962  40.3459366   5.1593054  29.4518217  39.2310002
   5.8721026  30.0865682  39.1585904   4.6683083  29.5482083  38.4150004
   4.0593827  20.4977079  44.3634161   3.3834464  20.3971208  45.0336536
   4.8821461  20.3416293  44.8270158   2.8016610  31.8044007  38.5991777
   3.3534918  31.9675628  39.3640862   3.1422803  32.3948444  37.9271801
   7.6527484  26.6305264  44.4540431   8.1967388  27.2435222  43.9595386
   7.0714329  27.1884842  44.9707444   2.9482421  29.3702488  40.6140431
   3.2569547  29.1251635  41.4863130   3.7457903  29.5749127  40.1259301
  10.9756278  26.0901318  43.7901752  10.1851822  26.0725457  43.2506252
  10.7389633  26.6289612  44.5450789  11.0954153  22.9393784  41.1034481
  11.1452158  22.7743792  42.0450004  10.9868077  22.0721044  40.7132361
  12.5972350  25.3590726  41.3476502  12.3057158  25.7220707  42.1839963
  11.9844481  24.6457734  41.1689834   3.7471309  23.5009020  44.6655027
   4.6674318  23.6787619  44.8595073   3.7120892  22.5565065  44.5134726
   5.7753542  24.2765031  46.3169187   6.6444702  24.4505683  45.9555822
   5.2960294  25.0959448  46.1944917  17.4346018  35.9853657  35.7214462
  18.0724428  35.8660404  35.0177802  17.3166861  36.9334501  35.7802414
  14.2435724  35.9381085  35.6575987  13.9054236  35.8222150  34.7696522
  15.1125493  35.5372250  35.6376993  14.7255507  37.0915937  41.6162192
  14.7144148  36.6968735  40.7442696  14.8876147  36.3582009  42.2095964
   7.6486972  39.2867753  34.4857098   8.4408264  38.9458578  34.0703397
   7.8883622  39.3962728  35.4059251  11.4462769  39.8753048  40.5641376
  11.1552635  40.7798679  40.4488043  12.0819753  39.9169576  41.2785446
  12.3718975  37.2529897  37.1542736  12.9682548  37.0285919  36.4399699
  12.4293947  36.5114642  37.7568184  16.9887287  33.7105111  32.7967670
  17.7750376  33.2924534  32.4458087  17.2525991  34.6151203  32.9649318
  22.3895714  33.6480344  33.7000649  23.1220886  33.0779561  33.9338478
  21.6335070  33.2601944  34.1407154  14.0071834  36.0707585  30.8963991
  13.6430041  35.5438206  31.6076912  14.8638949  35.6806054  30.7230476
  19.9121134  27.3601918  38.1595257  19.5804459  28.2297329  37.9356472
  19.3166748  27.0438202  38.8389288  16.4052654  39.5614464  37.5591170
  16.1053377  40.4639503  37.4506977  16.0603713  39.2946647  38.4112323
   9.8565135  36.0128261  33.5927874   8.9315632  35.8804475  33.8005566
  10.1049548  36.7922480  34.0897817  19.8049798  32.0797004  35.2388607
  18.8966675  32.0112413  34.9447368  19.7537393  32.5568949  36.0670433
   7.2173946  35.6561534  34.4271663   7.3466327  35.9096013  35.3411075
   6.5371398  36.2489242  34.1076318  11.3873434  46.3258784  30.5262138
  11.3097463  47.2766609  30.6050618  10.7835077  45.9804657  31.1837064
  13.8790663  33.4986650  43.1823505  13.1023997  34.0580570  43.1726369
  14.5181226  33.9843433  43.7038375  21.6711444  30.2813443  37.0166481
  21.0285824  30.5745976  36.3706276  21.1666372  30.1666363  37.8219678
  12.1337036  36.3072103  42.7441472  12.8751720  36.8457147  42.4676295
  11.4274021  36.9338392  42.9013023  17.6092375  38.4501244  41.3413633
  18.0175731  38.0083654  40.5968265  16.8869637  37.8753871  41.5947826
  13.9623445  33.3873850  38.7147190  14.8084640  33.8113264  38.8581839
  13.9022083  32.7307475  39.4085753  17.9321190  39.0102434  35.0965922
  17.3030052  39.1748148  34.3941990  17.5446852  39.4244044  35.8676886
  21.8110422  39.9456872  32.4510286  21.1261460  40.3255773  31.9007319
  21.8954271  40.5552199  33.1842233  17.1122891  31.0478219  40.3728364
  16.8683822  31.8020279  39.8362639  17.3882821  31.4263566  41.2075611
  19.0661353  37.5916831  39.0505629  19.2778249  38.2348591  38.3740010
  19.0191102  36.7579148  38.5827559  16.6687582  30.2034652  35.9542201
  15.8072061  30.5015905  36.2458939  16.6950017  30.4205051  35.0223234
  13.4849152  38.7476842  32.3616007  13.9487497  39.0264545  31.5720629
  13.2205950  37.8460287  32.1789098  10.3773233  38.2948324  35.2995770
  10.9474590  38.7235592  34.6613255  10.9681345  38.0130909  35.9979956
  10.8698399  33.4611751  43.5456781  10.2397060  34.1428032  43.7792178
  10.7634487  33.3494833  42.6009920  20.1807181  40.4688787  37.2227986
  21.0024625  40.0668974  36.9410668  20.1769584  40.3657021  38.1744102
  13.9463785  40.0172830  39.3788697  14.0108217  40.4793237  40.2146869
  13.2374709  39.3870195  39.5071007   4.4481075  33.3814038  36.9037696
   4.6989113  34.2661048  37.1695272   4.9840623  33.2018639  36.1312788
  28.2713174  36.8127535  33.5712958  27.5176883  36.2434933  33.4156962
  28.4060716  36.7790199  34.5183593  13.6611802  41.6840937  29.2467677
  13.5257477  42.5292473  29.6752525  14.2021615  41.8860215  28.4833611
  10.1479142  27.7632517  45.9082033   9.7546088  27.2098716  46.5829677
  10.9645282  28.0743096  46.2988550   8.9236085  42.3182132  31.9018356
   9.1002713  43.2400096  31.7139339   9.7192918  42.0040551  32.3312735
  13.0647103  29.1790396  43.5002289  13.8056816  29.7797549  43.4206752
  13.2965026  28.4368034  42.9420332   8.2088441  34.3646763  41.7780519
   8.0941956  33.4632021  42.0787618   7.3532959  34.6110460  41.4265335
  15.2880279  42.3064504  43.3768019  14.8444133  41.5200882  43.0588924
  15.9497492  42.4943654  42.7111910  10.0467400  43.8360305  37.9028698
  10.5974825  43.7077369  37.1305692   9.2078876  44.1355194  37.5523591
  17.3861517  42.5867304  41.4049421  17.3679992  43.4076185  40.9129690
  18.3081437  42.4621379  41.6299562  13.8434571  40.1011433  42.2472929
  14.3762908  39.3399721  42.0172237  13.3148652  39.8085085  42.9897084
  17.0104266  25.2071499  37.7766571  16.6668535  26.0973141  37.7005681
  17.3783229  25.0173157  36.9136156  16.0900806  27.5776154  35.7415804
  15.5865602  27.5406289  34.9283609  16.3831413  28.4868897  35.8012461
  21.9488823  37.9512465  28.2192179  21.1718266  37.6123624  27.7747341
  22.6280304  37.9565088  27.5447144  15.2087284  39.2297426  29.7591741
  14.6808645  38.4950185  29.4464979  14.7074786  40.0072102  29.5131709
  20.1880130  37.4246446  34.8758787  19.5303804  38.1145708  34.9638916
  20.9920529  37.8142878  35.2192774  18.9985589  35.7790819  32.9262729
  19.5117470  36.4120811  33.4284439  19.6486812  35.1792014  32.5606089
  16.2607963  45.7575143  25.6823400  15.5869662  46.0606840  26.2908358
  16.6473785  46.5604223  25.3328857  15.4766419  33.2540274  35.1721070
  14.5588981  33.4755221  35.0142758  15.8926563  33.3286585  34.3132777
  19.7647385  40.7596820  31.0541872  19.3109712  39.9187730  31.1107062
  19.1341351  41.3958219  31.3916652  18.7080304  31.6888806  32.2842539
  17.9703061  31.1766193  32.6152782  18.9607078  31.2489188  31.4725816
  18.2080324  42.5973317  31.9891690  18.5003298  43.1578374  31.2704056
  18.7178945  42.8901878  32.7444849  13.0813011  34.7618851  33.3860500
  13.1361621  33.8092688  33.3102976  12.2704213  34.9178291  33.8701798
  13.1713949  43.3753668  33.0785143  13.1290128  43.6014514  32.1493675
  14.0876648  43.1417043  33.2270944  16.6179583  33.8437736  39.9765772
  16.9728971  34.0709209  40.8360238  17.2651714  34.1756112  39.3543028
  22.3477320  36.9656172  30.6815101  22.2095219  37.1557767  29.7536291
  21.9913539  37.7275554  31.1383152  10.5119446  30.9514267  36.7612113
  11.1518825  30.8103026  36.0635077   9.6796977  30.6648780  36.3850715
  22.3746700  39.0332699  35.6926373  22.8083206  38.9407988  36.5409427
  23.0878280  39.0090199  35.0546389  11.2879750  40.2516697  32.8747106
  12.0820348  39.7567017  32.6729681  10.5771442  39.7234560  32.5114811
  16.1074594  42.6334793  37.2259473  16.1611617  43.2025729  37.9937189
  15.2389376  42.8036678  36.8613511   8.9872988  32.3352349  38.7083925
   9.6596041  32.1269711  38.0596574   8.1602774  32.1374435  38.2689157
  23.2362249  39.0756399  38.2259258  23.4298139  39.9802210  38.4718533
  23.1362867  38.6163818  39.0597843  14.8898560  28.9614290  40.7249586
  14.2426475  29.6604239  40.6314062  15.6599575  29.3950434  41.0925834
  18.2977358  39.2263142  43.8000139  18.1462864  38.9973694  42.8830223
  18.2882037  40.1833743  43.8131484  15.0662694  36.7995055  38.7846405
  15.9954754  36.9506214  38.6115373  14.6453724  36.8879075  37.9295052
  13.8651026  40.8245719  36.5544943  13.7262112  40.4564503  37.4270881
  13.0765622  41.3393359  36.3828901  14.4599178  45.9254816  27.8970479
  14.6350934  45.4542859  28.7116102  13.7731966  46.5520582  28.1251740
  15.4156241  40.2027322  33.9433781  15.0806074  40.1628092  34.8391431
  14.9160187  39.5372038  33.4704191   9.3900485  35.6094952  39.4686362
   9.2520283  34.8775191  40.0697901  10.3005409  35.5203852  39.1870550
  12.0182786  35.3214911  38.9570042  12.7282404  34.6808103  38.9156660
  11.9752094  35.5727806  39.8796222  20.0069564  42.2582264  41.8776621
  19.9482111  41.5741485  41.2107204  20.4089083  43.0001254  41.4257247
  10.7311720  32.3080129  40.7765681  10.1949077  31.8570867  41.4287277
  10.1428428  32.4426038  40.0336145   9.0260263  49.0744178  34.6710340
   9.2656861  49.7062702  35.3489358   8.1829460  48.7232218  34.9575699
  20.0086972  40.2221848  40.1090600  19.1213750  39.8847770  40.2316999
  20.5785523  39.4904880  40.3459366   6.4650841  31.4436137  37.8618675
   6.3809030  30.8361806  37.1269085   5.6433547  31.9345155  37.8628172
  13.5388125  44.8823301  37.0751844  13.4658297  45.6878272  37.5871148
  13.0965518  45.0815267  36.2499865  13.3277905  44.1195071  30.5854665
  12.5445427  44.6616751  30.6792890  14.0270650  44.6369050  30.9848906
  24.4904312  35.6330066  34.8707162  24.4794188  36.5154781  34.5001095
  23.6221692  35.2801617  34.6761699  15.9986809  44.7810135  39.2310002
  16.7114781  45.4157600  39.1585904  15.5076837  44.8774001  38.4150004
  17.7204336  38.6861387  30.8027294  16.7860614  38.8062850  30.6331998
  17.8981004  37.7833854  30.5387304  21.1076887  34.5278707  31.3377328
  21.5737339  35.3606698  31.2637631  21.5584387  34.0623688  32.0422587
  11.0498722  42.5304578  40.0515573  11.7508182  43.1641061  40.2044967
  10.5793837  42.8719310  39.2911212  19.1753118  40.8722528  28.3363480
  19.4512962  40.7579123  29.2457354  18.3057617  40.4740013  28.2975653
  19.0793550  26.8959294  35.3768229  18.1656629  27.1263521  35.5450436
  19.5086651  26.9797738  36.2282262  18.8500008  35.0849186  37.8768123
  18.1971458  35.3325093  37.2220576  19.2280388  34.2713324  37.5430601
  15.8107182  45.1208879  31.9796294  15.9929577  44.3030535  32.4424046
  16.6340168  45.3376571  31.5421184  16.1449347  44.0477064  29.2411342
  16.6737114  43.5369519  28.6281504  16.4077567  43.7319594  30.1056875
  14.8987581  35.8268997  44.3634161  14.2228218  35.7263126  45.0336536
  15.7215215  35.6708211  44.8270158   6.6466440  42.0640933  36.9846676
   7.2319877  41.3184621  37.1174580   6.4491279  42.3744890  37.8683340
   9.5005095  45.0992181  32.0009118   8.8315471  45.5838308  31.5173158
   9.3617965  45.3461401  32.9152497  13.6410364  47.1335924  38.5991777
  14.1928672  47.2967546  39.3640862  13.9816557  47.7240362  37.9271801
   8.6174857  29.4811074  39.2013661   8.6816184  30.3425905  38.7891059
   8.5541977  28.8685076  38.4686020   8.0927130  31.5534207  42.8486695
   8.7199169  31.1711284  43.4624220   7.2355049  31.3348408  43.2142388
  18.4921238  41.9597182  44.4540431  19.0361142  42.5727140  43.9595386
  17.9108083  42.5176760  44.9707444  16.7778751  45.0817900  35.5855459
  16.6529891  44.2807640  35.0766404  17.4357842  45.5764093  35.0969429
  18.8413660  42.8826920  37.2135009  17.8943995  42.7632271  37.1413335
  19.1896433  41.9949418  37.2961270  11.2013233  28.7721059  41.0373251
  11.7247635  29.0183355  41.7999560  10.9825566  29.6041094  40.6176388
  15.8460093  42.6779636  33.4139361  15.6985055  41.7496343  33.5946931
  16.6713586  42.6999727  32.9296436  19.4494215  43.5008195  34.5004234
  20.3740762  43.2951056  34.3628685  19.2809518  43.2524596  35.4093575
  12.4065778  29.7134754  38.7222921  12.0662598  28.9142567  39.1243601
  11.7004784  30.0136465  38.1499754  13.0582250  26.7984066  37.1750244
  13.8808319  26.3244544  37.0529135  13.3020313  27.5774550  37.6748930
  10.5820829  33.4903187  34.9842223  10.4365409  33.8043490  35.8766504
  10.1046032  34.1088087  34.4313121  14.2943342  30.9143075  37.0776240
  14.0361120  31.8360146  37.0760570  13.7628383  30.5173510  37.7676704
  19.2389531  44.0193862  29.8566325  19.4126409  43.4540285  29.1040178
  19.7318422  44.8194757  29.6745815   5.0566491  36.0308531  37.9229884
   4.5119959  36.8068339  38.0550158   5.9345841  36.3779336  37.7649005
  25.0928922  36.7830285  31.4756625  25.5360068  36.0337610  31.0775748
  24.2155432  36.7740422  31.0930357  20.2264704  43.3360627  26.9563223
  20.9215608  43.9567319  27.1750538  20.5687854  42.4855978  27.2315601
   5.8432513  35.1578428  40.8160041   5.1014249  35.3061063  41.4024671
   5.5225257  35.4186693  39.9526790  22.1256127  40.7860332  28.4850554
  22.6507451  41.1247605  27.7599874  22.0378479  39.8507347  28.3013689
  13.7876175  44.6994406  40.6140431  14.0963302  44.4543553  41.4863130
  14.5851657  44.9041044  40.1259301  13.8096787  46.8532315  32.8445807
  13.3701778  46.3608694  33.5378664  14.5604904  46.3105283  32.6037883
   6.2889126  43.0443856  32.8470435   7.1147146  42.7447628  32.4669079
   5.9383178  42.2751479  33.2960224  11.2570660  42.3970325  34.9168109
  10.6350669  41.7341030  34.6170337  11.9275526  42.4231456  34.2341757
   4.4897731  40.9630183  33.8059369   3.6529640  40.5352357  33.6243370
   4.4621377  41.1562626  34.7430160  11.3295187  30.8752113  44.5100615
  11.3783342  31.7514235  44.1278385  11.8717701  30.3329506  43.9372258
  21.8150033  41.4193236  43.7901752  21.0245576  41.4017375  43.2506252
  21.5783387  41.9581529  44.5450789  21.9347908  38.2685702  41.1034481
  21.9845913  38.1035710  42.0450004  21.8261831  37.4012961  40.7132361
  19.2251670  34.2516630  42.4193787  20.1261533  34.1123095  42.1277785
  19.2999645  34.4171085  43.3591965  13.5594475  31.6283485  41.2646974
  12.6897785  31.9217051  40.9929562  13.7953956  32.2123930  41.9854237
  23.4366105  40.6882644  41.3476502  23.1450913  41.0512624  42.1839963
  22.8238236  39.9749652  41.1689834  24.6361787  38.2535523  33.8679072
  25.4708678  38.6925328  34.0316633  24.7720916  37.7774177  33.0487318
  21.6853293  35.8115258  39.8156560  22.1607414  36.0042905  39.0075412
  20.7618858  35.8674444  39.5699944  16.2633509  27.8463102  38.7812394
  16.7815453  28.5824129  38.4558883  15.9088642  28.1527095  39.6159153
  20.3854962  32.6881018  38.0484866  21.3372385  32.7879116  38.0697090
  20.2158412  31.8959287  38.5582950  18.4069341  29.7736602  38.2344267
  17.8119273  30.0541614  37.5390755  18.1219038  30.2630503  39.0061008
  17.5376832  43.7259528  26.9946899  18.4707505  43.6605090  27.1979775
  17.4500045  44.5615795  26.5361432  22.8643040  35.9087138  37.1627165
  22.8319360  34.9703139  37.3486849  23.4743663  35.9871175  36.4292990
  23.0137528  32.6998182  37.2085449  22.4976577  31.9156638  37.0215378
  23.8977477  32.3716898  37.3731968  28.6819589  36.9703145  36.3033202
  29.4122978  36.7088433  36.8640906  28.0726535  36.2331867  36.3435270
  26.7634887  35.1111008  36.9007653  26.0368050  34.9766972  36.2924145
  26.3482173  35.4187836  37.7064372  14.5865063  38.8300937  44.6655027
  15.5068072  39.0079536  44.8595073  14.5514646  37.8856983  44.5134726
   7.5827136  36.7401972  37.3077808   7.8013145  37.6719080  37.3265841
   7.9952909  36.3809946  38.0932612  12.4555001  32.3135178  46.6980557
  12.3551728  33.2629535  46.6292648  12.2376543  31.9853417  45.8256627
   3.6735488  37.6442442  35.5601423   2.9798959  37.2296395  35.0471377
   4.4208479  37.6862979  34.9634842  12.3186271  35.7432316  45.5145618
  11.8353353  36.5432677  45.7209507  12.4047210  35.7540261  44.5613062
   8.2459608  39.6336851  37.5514052   9.2002862  39.6020793  37.4843984
   8.0472132  39.1727475  38.3664278   8.8358991  38.2037967  40.1184850
   9.6551880  38.6982046  40.1419687   9.1095798  37.2869935  40.0902417
  21.9440123  30.6195240  33.1967144  22.7200513  31.1091693  33.4691761
  21.2188257  31.0453295  33.6539014  24.3812681  31.3322860  34.2541085
  24.9757172  31.0918596  33.5434393  24.4539265  30.6129990  34.8814621
   6.6009837  45.1756471  34.5684250   6.4664305  44.4156872  34.0022248
   6.1841899  45.8997371  34.1013039  18.5666610  36.1103255  29.6963095
  18.5101812  36.5671807  28.8570728  19.1194953  35.3493940  29.5185938
  22.3771416  31.8992987  30.5213215  22.1208351  31.4989623  31.3521423
  21.7524284  32.6136781  30.3963354  26.6883754  34.6389061  33.0284506
  26.1283312  34.7082250  33.8016068  26.0827258  34.4630045  32.3084003
   9.7578963  46.0725788  34.7802693   9.6411347  47.0171220  34.6781383
   8.9371409  45.7699349  35.1688492  19.6455498  40.7975923  25.6259285
  20.4801102  40.3657122  25.4436760  19.4839841  40.6257937  26.5536180
   4.0893905  32.5376101  40.8177047   4.7352768  32.0275055  41.3064272
   3.8811056  33.2744783  41.3920472  16.6147297  39.6056949  46.3169187
  17.4838457  39.7797601  45.9555822  16.1354048  40.4251365  46.1944917
  10.7833477  46.7254050  37.9958621  11.6860724  46.7577660  38.3125116
  10.5570847  45.7954501  38.0104957  12.5387079  45.4785036  34.6568700
  11.5882710  45.4786898  34.5433072  12.8419565  44.7317771  34.1404734
   8.4291396  29.6843718  44.9152061   9.2922857  29.3280523  45.1255386
   7.8556806  29.3457613  45.6027465  28.2739773  51.3145575  35.7214462
  28.9118183  51.1952322  35.0177802  28.1560616  52.2626418  35.7802414
  25.0829479  51.2673003  35.6575987  24.7447991  51.1514067  34.7696522
  25.9519247  50.8664168  35.6376993  20.9416295  53.1208479  31.6472878
  20.3781160  53.0298416  30.8789165  20.8268690  52.3008383  32.1275370
  25.5649262  52.4207854  41.6162192  25.5537903  52.0260653  40.7442696
  25.7269901  51.6873927  42.2095964  18.4880727  54.6159671  34.4857098
  19.2802019  54.2750495  34.0703397  18.7277377  54.7254646  35.4059251
  26.5215853  56.7879447  26.9587343  25.8703833  57.3733527  26.5721356
  27.3160216  57.3185642  27.0182380  20.4471481  53.8768584  27.3574477
  21.2202357  53.3297571  27.2187353  20.7996879  54.7412833  27.5688938
  22.2856523  55.2044966  40.5641376  21.9946389  56.1090597  40.4488043
  22.9213507  55.2461494  41.2785446  23.2112730  52.5821815  37.1542736
  23.8076302  52.3577837  36.4399699  23.2687701  51.8406560  37.7568184
  22.7837758  50.0361250  24.9892927  23.0363279  49.5142771  24.2276390
  21.8462317  49.8727395  25.0919610  27.8281041  49.0397028  32.7967670
  28.6144130  48.6216452  32.4458087  28.0919746  49.9443121  32.9649318
  27.9991119  54.4769879  27.4956327  27.3636952  54.5504505  28.2077232
  27.6688525  55.0663477  26.8175406  33.2289468  48.9772262  33.7000649
  33.9614640  48.4071478  33.9338478  32.4728824  48.5893862  34.1407154
  22.5034047  51.9389356  27.1917302  22.3870305  51.2634259  27.8598386
  22.6136307  51.4521730  26.3749455  24.8465588  51.3999503  30.8963991
  24.4823795  50.8730124  31.6076912  25.7032704  51.0097972  30.7230476
  30.7514889  42.6893836  38.1595257  30.4198213  43.5589247  37.9356472
  30.1560502  42.3730120  38.8389288  24.4871075  46.4289403  25.8925340
  24.6545477  47.2969639  26.2595811  24.2968244  46.5916684  24.9686629
  27.2446408  54.8906382  37.5591170  26.9447131  55.7931420  37.4506977
  26.8997468  54.6238565  38.4112323  20.6958890  51.3420178  33.5927874
  19.7709386  51.2096393  33.8005566  20.9443303  52.1214398  34.0897817
  30.6443552  47.4088922  35.2388607  29.7360429  47.3404330  34.9447368
  30.5931148  47.8860867  36.0670433  24.4660296  48.8847060  26.8772006
  24.3459921  49.3304111  27.7157487  23.7712884  49.2332378  26.3185545
  18.0567701  50.9853452  34.4271663  18.1860082  51.2387931  35.3411075
  17.3765152  51.5781160  34.1076318  22.2267188  61.6550702  30.5262138
  22.1491218  62.6058527  30.6050618  21.6228832  61.3096574  31.1837064
  24.7184418  48.8278567  43.1823505  23.9417752  49.3872488  43.1726369
  25.3574981  49.3135350  43.7038375  32.5105198  45.6105360  37.0166481
  31.8679579  45.9037893  36.3706276  32.0060127  45.4958281  37.8219678
  30.1645362  49.3568533  27.7052340  31.0763218  49.5895920  27.5300038
  29.6555009  49.9405578  27.1427419  22.9730790  51.6364021  42.7441472
  23.7145474  52.1749065  42.4676295  22.2667776  52.2630310  42.9013023
  28.4486130  53.7793161  41.3413633  28.8569486  53.3375572  40.5968265
  27.7263391  53.2045789  41.5947826  24.8017200  48.7165768  38.7147190
  25.6478395  49.1405182  38.8581839  24.7415837  48.0599392  39.4085753
  28.7714944  54.3394352  35.0965922  28.1423807  54.5040066  34.3941990
  28.3840606  54.7535961  35.8676886  32.6504176  55.2748790  32.4510286
  31.9655214  55.6547691  31.9007319  32.7348026  55.8844116  33.1842233
  27.9516645  46.3770136  40.3728364  27.7077577  47.1312197  39.8362639
  28.2276576  46.7555484  41.2075611  29.9055108  52.9208749  39.0505629
  30.1172003  53.5640509  38.3740010  29.8584856  52.0871065  38.5827559
  27.5081337  45.5326569  35.9542201  26.6465816  45.8307823  36.2458939
  27.5343771  45.7496968  35.0223234  24.3242906  54.0768760  32.3616007
  24.7881252  54.3556463  31.5720629  24.0599704  53.1752205  32.1789098
  21.2166987  53.6240242  35.2995770  21.7868344  54.0527510  34.6613255
  21.8075099  53.3422826  35.9979956  23.2611792  50.1991912  29.1705572
  23.9635836  50.6512956  29.6379498  22.9292421  49.5575731  29.7985465
  21.7092154  48.7903669  43.5456781  21.0790814  49.4719950  43.7792178
  21.6028242  48.6786751  42.6009920  17.0037126  48.4575465  34.4722706
  16.2136180  48.7132994  33.9962816  17.4948374  49.2723803  34.5774746
  31.0200936  55.7980704  37.2227986  31.8418380  55.3960891  36.9410668
  31.0163339  55.6948938  38.1744102  18.9551872  48.8220044  31.4306182
  18.1583035  48.9338738  31.9489678  18.7277464  49.1606696  30.5647073
  24.7857539  55.3464747  39.3788697  24.8501972  55.8085155  40.2146869
  24.0768463  54.7162112  39.5071007  15.2874829  48.7105955  36.9037696
  15.5382868  49.5952965  37.1695272  15.8234378  48.5310557  36.1312788
  39.1106929  52.1419453  33.5712958  38.3570637  51.5726851  33.4156962
  39.2454470  52.1082117  34.5183593  24.5005557  57.0132855  29.2467677
  24.3651232  57.8584391  29.6752525  25.0415369  57.2152133  28.4833611
  20.9872897  43.0924435  45.9082033  20.5939842  42.5390633  46.5829677
  21.8039037  43.4035013  46.2988550  17.9534954  54.5308293  29.8195602
  18.4659475  55.3251543  29.9701167  18.6057667  53.8334583  29.7529204
  19.7629839  57.6474049  31.9018356  19.9396467  58.5692014  31.7139339
  20.5586673  57.3332468  32.3312735  23.9040858  44.5082314  43.5002289
  24.6450571  45.1089467  43.4206752  24.1358780  43.7659952  42.9420332
  19.0482196  49.6938681  41.7780519  18.9335711  48.7923938  42.0787618
  18.1926713  49.9402378  41.4265335  26.1274033  57.6356421  43.3768019
  25.6837887  56.8492800  43.0588924  26.7891247  57.8235572  42.7111910
  20.8861154  59.1652223  37.9028698  21.4368580  59.0369286  37.1305692
  20.0472630  59.4647112  37.5523591  28.2255271  57.9159221  41.4049421
  28.2073747  58.7368102  40.9129690  29.1475191  57.7913297  41.6299562
  24.6828326  55.4303351  42.2472929  25.2156662  54.6691639  42.0172237
  24.1542407  55.1377003  42.9897084  27.8498020  40.5363417  37.7766571
  27.5062290  41.4265059  37.7005681  28.2176983  40.3465074  36.9136156
  15.9183871  52.8596947  30.5955173  16.7559093  53.2693956  30.3788881
  16.0962139  51.9196389  30.5655367  27.8148303  50.5272028  26.2839006
  27.2994927  51.2976633  26.5227393  27.5425612  49.8537164  26.9072067
  25.3995414  45.3721729  31.3424244  24.5437011  44.9828579  31.1629883
  25.8122366  45.4513690  30.4824030  26.9294561  42.9068072  35.7415804
  26.4259356  42.8698207  34.9283609  27.2225168  43.8160815  35.8012461
  23.1737447  42.9906802  34.7481986  24.0390444  42.7949610  34.3887875
  23.2414956  42.7617153  35.6751343  32.7882577  53.2804383  28.2192179
  32.0112020  52.9415542  27.7747341  33.4674058  53.2857006  27.5447144
  27.6034606  48.3999120  28.1098787  27.2984742  48.7145269  28.9608930
  28.5565048  48.4780540  28.1526120  26.0481038  54.5589343  29.7591741
  25.5202400  53.8242103  29.4464979  25.5468541  55.3364020  29.5131709
  31.0273884  52.7538364  34.8758787  30.3697559  53.4437625  34.9638916
  31.8314283  53.1434796  35.2192774  20.7799766  45.2209010  32.1198353
  21.3543518  44.9984191  31.3871546  21.3670748  45.2897704  32.8726954
  29.8379343  51.1082737  32.9262729  30.3511225  51.7412728  33.4284439
  30.4880567  50.5083932  32.5606089  21.1069353  47.2513471  26.1394238
  20.2706665  47.5888157  26.4603513  20.9674123  47.1162450  25.2021375
  23.0822434  42.0950259  30.8473422  22.4286846  41.7799276  30.2230037
  23.0402908  41.4725999  31.5733245  24.1933638  52.3769554  22.7626714
  23.2860700  52.1458807  22.9617863  24.6904670  51.5807173  22.9500696
  27.1001717  61.0867061  25.6823400  26.4263416  61.3898758  26.2908358
  27.4867539  61.8896141  25.3328857  26.3160174  48.5832192  35.1721070
  25.3982735  48.8047139  35.0142758  26.7320318  48.6578503  34.3132777
  27.0995222  49.9823608  30.3023750  27.8467041  50.4945005  29.9930872
  27.3686811  49.6607660  31.1628143  25.3721872  52.4782148  27.2850704
  24.4633091  52.1941181  27.3823174  25.4016956  52.8981227  26.4254011
  30.6041139  56.0888738  31.0541872  30.1503466  55.2479648  31.1107062
  29.9735106  56.7250136  31.3916652  29.5474059  47.0180724  32.2842539
  28.8096816  46.5058110  32.6152782  29.8000832  46.5781106  31.4725816
  29.0474078  57.9265235  31.9891690  29.3397053  58.4870292  31.2704056
  29.5572699  58.2193796  32.7444849  29.6485686  39.7956976  32.8784308
  29.9544563  38.9354339  32.5910224  30.3738291  40.3874596  32.6783302
  15.9410042  50.1987663  31.2665906  15.7434442  49.6057023  30.5416973
  15.3856706  49.8939873  31.9841845  23.9206766  50.0910769  33.3860500
  23.9755376  49.1384605  33.3102976  23.1097968  50.2470208  33.8701798
  25.0697960  54.0190892  24.6238783  24.6317390  53.3026751  24.1644420
  25.8108401  54.2467007  24.0623874  21.8599126  48.7087829  31.1450878
  21.0466991  49.0081999  31.5516071  22.3558120  48.3143518  31.8625361
  24.0107704  58.7045586  33.0785143  23.9683882  58.9306432  32.1493675
  24.9270403  58.4708960  33.2270944  27.4573337  49.1729653  39.9765772
  27.8122725  49.4001126  40.8360238  28.1045469  49.5048030  39.3543028
  33.1871074  52.2948089  30.6815101  33.0488973  52.4849685  29.7536291
  32.8307293  53.0567472  31.1383152  21.3513201  46.2806184  36.7612113
  21.9912580  46.1394943  36.0635077  20.5190731  45.9940698  36.3850715
  33.2140454  54.3624616  35.6926373  33.6476961  54.2699905  36.5409427
  33.9272035  54.3382117  35.0546389  22.1273504  55.5808615  32.8747106
  22.9214103  55.0858935  32.6729681  21.4165197  55.0526478  32.5114811
  26.9468349  57.9626710  37.2259473  27.0005371  58.5317647  37.9937189
  26.0783130  58.1328595  36.8613511  18.4356268  49.7251697  28.9506859
  17.5053856  49.6636152  29.1676821  18.5313740  49.2027649  28.1543500
  18.3541817  46.2506509  31.5385100  18.6148634  47.1651843  31.4294261
  19.1758989  45.7830952  31.6881713  19.8266742  47.6644267  38.7083925
  20.4989796  47.4561629  38.0596574  18.9996529  47.4666353  38.2689157
  34.0756004  54.4048317  38.2259258  34.2691894  55.3094127  38.4718533
  33.9756622  53.9455736  39.0597843  25.7292314  44.2906207  40.7249586
  25.0820229  44.9896157  40.6314062  26.4993330  44.7242351  41.0925834
  29.1371112  54.5555060  43.8000139  28.9856619  54.3265611  42.8830223
  29.1275792  55.5125661  43.8131484  25.9056449  52.1286972  38.7846405
  26.8348509  52.2798132  38.6115373  25.4847479  52.2170993  37.9295052
  24.7044780  56.1537637  36.5544943  24.5655866  55.7856421  37.4270881
  23.9159377  56.6685276  36.3828901  25.2992932  61.2546733  27.8970479
  25.4744688  60.7834776  28.7116102  24.6125720  61.8812499  28.1251740
  26.2549996  55.5319239  33.9433781  25.9199828  55.4920009  34.8391431
  25.7553941  54.8663955  33.4704191  20.2294240  50.9386869  39.4686362
  20.0914038  50.2067108  40.0697901  21.1399163  50.8495770  39.1870550
  29.1909187  52.8775274  24.2170840  28.5738358  52.1522102  24.1203893
  28.7225676  53.6384634  23.8737915  22.8576540  50.6506829  38.9570042
  23.5676159  50.0100021  38.9156660  22.8145848  50.9019724  39.8796222
  30.8463319  57.5874182  41.8776621  30.7875865  56.9033402  41.2107204
  31.2482837  58.3293172  41.4257247  21.5705474  47.6372047  40.7765681
  21.0342831  47.1862785  41.4287277  20.9822183  47.7717956  40.0336145
  19.8654018  64.4036096  34.6710340  20.1050616  65.0354620  35.3489358
  19.0223214  64.0524136  34.9575699  20.9807733  47.0960698  23.3392145
  20.1037199  46.9749499  22.9754391  21.4565486  46.3046776  23.0871033
  30.8480726  55.5513766  40.1090600  29.9607505  55.2139688  40.2316999
  31.4179277  54.8196797  40.3459366  12.5009873  51.8837858  33.4333652
  13.1880913  51.5699588  32.8454667  12.3458002  52.7879222  33.1600903
  17.3044595  46.7728054  37.8618675  17.2202784  46.1653724  37.1269085
  16.4827302  47.2637073  37.8628172  24.3781880  60.2115218  37.0751844
  24.3052051  61.0170190  37.5871148  23.9359273  60.4107184  36.2499865
  24.1671659  59.4486988  30.5854665  23.3839181  59.9908669  30.6792890
  24.8664404  59.9660968  30.9848906  27.4768309  45.2581618  33.2288871
  27.9737009  44.5051580  32.9089941  26.7055291  45.2945935  32.6632080
  35.3298067  50.9621983  34.8707162  35.3187943  51.8446699  34.5001095
  34.4615446  50.6093534  34.6761699  26.8380563  60.1102052  39.2310002
  27.5508535  60.7449517  39.1585904  26.3470592  60.2065918  38.4150004
  28.5598090  54.0153305  30.8027294  27.6254369  54.1354768  30.6331998
  28.7374758  53.1125772  30.5387304  24.0603278  47.3999001  32.9560555
  23.6901066  46.8470041  33.6441461  24.5562371  46.7957134  32.4035555
  31.9470641  49.8570624  31.3377328  32.4131094  50.6898616  31.2637631
  32.3978142  49.3915606  32.0422587  21.8892477  57.8596496  40.0515573
  22.5901936  58.4932979  40.2044967  21.4187592  58.2011227  39.2911212
  30.0146872  56.2014446  28.3363480  30.2906716  56.0871040  29.2457354
  29.1451371  55.8031931  28.2975653  29.9187304  42.2251211  35.3768229
  29.0050384  42.4555438  35.5450436  30.3480406  42.3089655  36.2282262
  29.6893763  50.4141103  37.8768123  29.0365213  50.6617011  37.2220576
  30.0674142  49.6005242  37.5430601  26.6500936  60.4500797  31.9796294
  26.8323331  59.6322452  32.4424046  27.4733922  60.6668489  31.5421184
  26.9843102  59.3768982  29.2411342  27.5130868  58.8661436  28.6281504
  27.2471322  59.0611512  30.1056875  25.7381336  51.1560914  44.3634161
  25.0621973  51.0555044  45.0336536  26.5608970  51.0000128  44.8270158
  17.4860195  57.3932851  36.9846676  18.0713632  56.6476539  37.1174580
  17.2885033  57.7036808  37.8683340  20.3398850  60.4284098  32.0009118
  19.6709225  60.9130226  31.5173158  20.2011720  60.6753319  32.9152497
  12.0777849  49.9638451  35.7051119  12.1161949  49.4302042  36.4988237
  11.5718142  49.4373657  35.0862096  24.4804119  62.4627842  38.5991777
  25.0322427  62.6259463  39.3640862  24.8210312  63.0532280  37.9271801
  19.4568612  44.8102992  39.2013661  19.5209938  45.6717823  38.7891059
  19.3935732  44.1976993  38.4686020  18.9320884  46.8826124  42.8486695
  19.5592923  46.5003202  43.4624220  18.0748803  46.6640326  43.2142388
  29.3314993  57.2889099  44.4540431  29.8754897  57.9019058  43.9595386
  28.7501838  57.8468678  44.9707444  15.7086427  48.6902553  28.7805050
  16.0039868  47.7813232  28.7272104  14.8074463  48.6690293  28.4586053
  27.6172506  60.4109817  35.5855459  27.4923645  59.6099557  35.0766404
  28.2751597  60.9056011  35.0969429  19.2380674  46.7658550  34.7632599
  18.5167260  47.3794518  34.6240072  20.0273930  47.3016315  34.6849245
  29.6807414  58.2118838  37.2135009  28.7337750  58.0924189  37.1413335
  30.0290187  57.3241336  37.2961270  22.0406988  44.1012976  41.0373251
  22.5641389  44.3475273  41.7999560  21.8219321  44.9333011  40.6176388
  17.4374269  46.3716651  28.9044375  17.1086975  45.4914030  28.7219481
  17.7913639  46.3164320  29.7920765  26.6853847  58.0071554  33.4139361
  26.5378810  57.0788261  33.5946931  27.5107341  58.0291644  32.9296436
  20.5516092  46.6589621  29.2719853  20.8912164  47.1875542  28.5498461
  20.9988212  46.9970027  30.0478420  30.2887969  58.8300112  34.5004234
  31.2134517  58.6242974  34.3628685  30.1203273  58.5816514  35.4093575
  23.2459533  45.0426672  38.7222921  22.9056353  44.2434485  39.1243601
  22.5398539  45.3428382  38.1499754  23.8976004  42.1275984  37.1750244
  24.7202074  41.6536462  37.0529135  24.1414068  42.9066468  37.6748930
  22.5384239  45.1564242  27.4713146  23.2592601  45.5345495  26.9676863
  21.9149543  45.8753119  27.5748124  26.6815362  45.8609391  28.4071478
  26.8978976  46.7434029  28.1060306  26.2009429  45.4695605  27.6777120
  21.4214583  48.8195105  34.9842223  21.2759164  49.1335408  35.8766504
  20.9439787  49.4380005  34.4313121  23.2810966  45.8097653  35.0323112
  23.2672535  44.9138746  34.6955410  23.9983394  45.8168316  35.6661398
  25.1337097  46.2434993  37.0776240  24.8754875  47.1652063  37.0760570
  24.6022137  45.8465427  37.7676704  30.0783286  59.3485780  29.8566325
  30.2520163  58.7832202  29.1040178  30.5712177  60.1486675  29.6745815
  15.8960245  51.3600449  37.9229884  15.3513713  52.1360257  38.0550158
  16.7739595  51.7071253  37.7649005  22.6847862  44.6912033  30.3010683
  22.8063773  43.7628679  30.5001570  22.3949904  44.7050719  29.3888998
  25.5539052  42.3766943  33.4377402  25.5760749  42.4406276  32.4829382
  25.9707111  41.5371452  33.6317909  35.9322677  52.1122203  31.4756625
  36.3753823  51.3629528  31.0775748  35.0549187  52.1032339  31.0930357
  31.0658458  58.6652544  26.9563223  31.7609363  59.2859237  27.1750538
  31.4081608  57.8147896  27.2315601  16.6826267  50.4870345  40.8160041
  15.9408003  50.6352981  41.4024671  16.3619011  50.7478611  39.9526790
  32.9649881  56.1152250  28.4850554  33.4901205  56.4539523  27.7599874
  32.8772234  55.1799265  28.3013689  24.6269930  60.0286323  40.6140431
  24.9357056  59.7835470  41.4863130  25.4245412  60.2332962  40.1259301
  24.6490542  62.1824233  32.8445807  24.2095532  61.6900612  33.5378664
  25.3998659  61.6397201  32.6037883  17.1282881  58.3735774  32.8470435
  17.9540901  58.0739546  32.4669079  16.7776933  57.6043396  33.2960224
  22.0964414  57.7262242  34.9168109  21.4744423  57.0632947  34.6170337
  22.7669281  57.7523374  34.2341757  15.3291486  56.2922100  33.8059369
  14.4923394  55.8644275  33.6243370  15.3015131  56.4854544  34.7430160
  22.1688942  46.2044030  44.5100615  22.2177097  47.0806153  44.1278385
  22.7111456  45.6621423  43.9372258  32.6543787  56.7485153  43.7901752
  31.8639331  56.7309292  43.2506252  32.4177142  57.2873447  44.5450789
  32.7741662  53.5977620  41.1034481  32.8239667  53.4327627  42.0450004
  32.6655586  52.7304879  40.7132361  21.6577921  56.2766166  28.3926570
  21.8066041  56.9601630  27.7393242  22.4644364  56.2571256  28.9076025
  30.0645425  49.5808548  42.4193787  30.9655287  49.4415013  42.1277785
  30.1393399  49.7463003  43.3591965  24.3988230  46.9575403  41.2646974
  23.5291539  47.2508969  40.9929562  24.6347710  47.5415848  41.9854237
  34.2759859  56.0174561  41.3476502  33.9844667  56.3804542  42.1839963
  33.6631990  55.3041570  41.1689834  35.4755541  53.5827441  33.8679072
  36.3102433  54.0217245  34.0316633  35.6114670  53.1066094  33.0487318
  32.5247047  51.1407176  39.8156560  33.0001169  51.3334822  39.0075412
  31.6012613  51.1966362  39.5699944  19.4130554  52.3031343  29.3987639
  19.1676596  51.3993673  29.5967849  19.5826468  52.3048494  28.4567117
  27.1027264  43.1755020  38.7812394  27.6209208  43.9116046  38.4558883
  26.7482397  43.4819013  39.6159153  18.6826201  48.0359701  26.8973800
  17.9895446  48.1104056  26.2413836  18.4377953  47.2720044  27.4195317
  27.3539858  39.5955302  34.3013291  27.6341612  38.9278491  34.9273717
  28.1390465  39.7884398  33.7887955  25.1573326  58.7714296  25.8638317
  24.5847294  59.3904483  25.4108789  25.7306120  59.3213658  26.3978239
  31.2248716  48.0172936  38.0484866  32.1766139  48.1171034  38.0697090
  31.0552167  47.2251205  38.5582950  29.2463096  45.1028519  38.2344267
  28.6513028  45.3833532  37.5390755  28.9612792  45.5922420  39.0061008
  28.3770586  59.0551446  26.9946899  29.3101259  58.9897008  27.1979775
  28.2893799  59.8907713  26.5361432  31.0058603  58.3717316  23.9550847
  30.9272234  58.0377180  24.8486605  31.8268270  58.8639084  23.9542319
  33.7036794  51.2379056  37.1627165  33.6713114  50.2995057  37.3486849
  34.3137418  51.3163092  36.4292990  25.5420125  50.1075109  23.2054370
  26.4879230  49.9781317  23.2742788  25.1634370  49.3689771  23.6823798
  33.8531283  48.0290099  37.2085449  33.3370331  47.2448556  37.0215378
  34.7371231  47.7008816  37.3731968  31.5142009  41.7731115  33.1681261
  31.3166831  41.4646203  34.0524593  32.1241715  42.4992754  33.2979191
  39.5213344  52.2995063  36.3033202  40.2516732  52.0380351  36.8640906
  38.9120289  51.5623785  36.3435270  37.6028641  50.4402925  36.9007653
  36.8761805  50.3058890  36.2924145  37.1875928  50.7479754  37.7064372
  25.4258817  54.1592855  44.6655027  26.3461827  54.3371454  44.8595073
  25.3908401  53.2148900  44.5134726  23.7263042  48.0325085  23.1409255
  22.8194497  47.7358198  23.2171968  24.0039023  47.7354903  22.2743541
  14.6440982  49.3531449  33.5908301  14.3243767  48.4996757  33.2982675
  14.0974411  49.5680027  34.3466268  18.4220890  52.0693890  37.3077808
  18.6406900  53.0010997  37.3265841  18.8346664  51.7101864  38.0932612
  25.3425108  42.5761975  29.2953496  24.5325836  42.2309060  29.6708742
  26.0309525  42.2669519  29.8841108  27.2715656  41.6540022  30.9177793
  27.8246695  42.0735475  31.5767816  27.5085742  40.7275770  30.9600749
  23.2948755  47.6427095  46.6980557  23.1945482  48.5921452  46.6292648
  23.0770297  47.3145334  45.8256627  22.4961827  44.8912020  23.2821234
  23.3580991  45.2166919  23.5417051  22.6812171  44.1043516  22.7694300
  14.5129242  52.9734360  35.5601423  13.8192714  52.5588313  35.0471377
  15.2602233  53.0154897  34.9634842  30.6494463  43.7640547  30.4256457
  30.0693132  44.4225351  30.0434509  30.3830396  42.9417891  30.0143874
  29.0998030  43.1645605  32.6277777  29.5997808  43.2762139  31.8192096
  29.7433637  42.8606657  33.2678586  23.1580025  51.0724234  45.5145618
  22.6747107  51.8724594  45.7209507  23.2440964  51.0832179  44.5613062
  16.4265985  52.9052614  33.4367438  16.4036673  53.0040301  32.4849321
  16.7366622  53.7517765  33.7584604  19.0853363  54.9628769  37.5514052
  20.0396616  54.9312711  37.4843984  18.8865886  54.5019393  38.3664278
  19.6752745  53.5329885  40.1184850  20.4945634  54.0273964  40.1419687
  19.9489553  52.6161853  40.0902417  29.4319341  45.9240637  29.4812805
  28.5445196  46.2090288  29.2633000  29.8473330  45.7634401  28.6340082
  32.7833877  45.9487158  33.1967144  33.5594267  46.4383611  33.4691761
  32.0582012  46.3745212  33.6539014  35.2206436  46.6614777  34.2541085
  35.8150927  46.4210513  33.5434393  35.2933020  45.9421908  34.8814621
  17.4403592  60.5048388  34.5684250  17.3058060  59.7448789  34.0022248
  17.0235654  61.2289288  34.1013039  28.5762555  55.6885312  23.5760825
  29.2798405  55.8935314  24.1918481  27.8525203  56.2562074  23.8409909
  29.4060365  51.4395173  29.6963095  29.3495566  51.8963725  28.8570728
  29.9588707  50.6785858  29.5185938  33.2165171  47.2284905  30.5213215
  32.9602105  46.8281541  31.3521423  32.5918039  47.9428699  30.3963354
  37.5277509  49.9680978  33.0284506  36.9677067  50.0374168  33.8016068
  36.9221012  49.7921963  32.3084003  20.5972718  61.4017705  34.7802693
  20.4805102  62.3463138  34.6781383  19.7765164  61.0991267  35.1688492
  30.4849252  56.1267841  25.6259285  31.3194856  55.6949040  25.4436760
  30.3233595  55.9549855  26.5536180  30.1395144  52.6299954  26.9915625
  30.0843948  52.4644226  26.0504069  29.5141200  53.3375987  27.1477814
  14.9287659  47.8668019  40.8177047  15.5746523  47.3566973  41.3064272
  14.7204810  48.6036700  41.3920472  27.4541051  54.9348866  46.3169187
  28.3232211  55.1089519  45.9555822  26.9747803  55.7543283  46.1944917
  23.4491270  42.1308063  26.5700943  23.4369940  43.0749903  26.7269214
  24.3414692  41.9478209  26.2760404  21.6227232  62.0545967  37.9958621
  22.5254478  62.0869578  38.3125116  21.3964602  61.1246418  38.0104957
  23.3780834  60.8076954  34.6568700  22.4276465  60.8078815  34.5433072
  23.6813320  60.0609688  34.1404734  27.2643389  38.7250840  30.8246880
  26.4975785  38.1709327  30.9703562  27.6754094  38.7972709  31.6861031
  19.2685150  45.0135636  44.9152061  20.1316612  44.6572441  45.1255386
  18.6950561  44.6749531  45.6027465  39.1133527  66.6437492  35.7214462
  39.7511937  66.5244240  35.0177802  38.9954370  67.5918336  35.7802414
  35.9223233  66.5964920  35.6575987  35.5841745  66.4805985  34.7696522
  36.7913002  66.1956085  35.6376993  31.7810049  68.4500397  31.6472878
  31.2174914  68.3590334  30.8789165  31.6662444  67.6300301  32.1275370
  36.4043016  67.7499772  41.6162192  36.3931657  67.3552570  40.7442696
  36.5663656  67.0165845  42.2095964  29.3274481  69.9451588  34.4857098
  30.1195773  69.6042413  34.0703397  29.5671131  70.0546563  35.4059251
  37.3609608  72.1171364  26.9587343  36.7097588  72.7025445  26.5721356
  38.1553971  72.6477559  27.0182380  31.2865235  69.2060502  27.3574477
  32.0596111  68.6589489  27.2187353  31.6390634  70.0704751  27.5688938
  33.1250278  70.5336884  40.5641376  32.8340144  71.4382515  40.4488043
  33.7607262  70.5753411  41.2785446  34.0506484  67.9113732  37.1542736
  34.6470057  67.6869755  36.4399699  34.1081456  67.1698478  37.7568184
  33.6231513  65.3653168  24.9892927  33.8757034  64.8434689  24.2276390
  32.6856072  65.2019313  25.0919610  38.6674796  64.3688946  32.7967670
  39.4537885  63.9508369  32.4458087  38.9313500  65.2735038  32.9649318
  38.8384873  69.8061796  27.4956327  38.2030706  69.8796423  28.2077232
  38.5082279  70.3955395  26.8175406  44.0683223  64.3064179  33.7000649
  44.8008395  63.7363396  33.9338478  43.3122579  63.9185780  34.1407154
  33.3427802  67.2681274  27.1917302  33.2264060  66.5926177  27.8598386
  33.4530061  66.7813648  26.3749455  35.6859343  66.7291421  30.8963991
  35.3217550  66.2022042  31.6076912  36.5426458  66.3389890  30.7230476
  41.5908643  58.0185753  38.1595257  41.2591968  58.8881164  37.9356472
  40.9954257  57.7022037  38.8389288  35.3264830  61.7581320  25.8925340
  35.4939232  62.6261557  26.2595811  35.1361999  61.9208602  24.9686629
  38.0840163  70.2198299  37.5591170  37.7840886  71.1223338  37.4506977
  37.7391222  69.9530483  38.4112323  31.5352644  66.6712096  33.5927874
  30.6103141  66.5388310  33.8005566  31.7837057  67.4506315  34.0897817
  41.4837306  62.7380840  35.2388607  40.5754184  62.6696248  34.9447368
  41.4324902  63.2152784  36.0670433  35.3054050  64.2138978  26.8772006
  35.1853676  64.6596029  27.7157487  34.6106639  64.5624296  26.3185545
  28.8961455  66.3145370  34.4271663  29.0253836  66.5679849  35.3411075
  28.2158907  66.9073078  34.1076318  33.0660942  76.9842620  30.5262138
  32.9884972  77.9350445  30.6050618  32.4622586  76.6388492  31.1837064
  35.5578172  64.1570485  43.1823505  34.7811506  64.7164405  43.1726369
  36.1968735  64.6427268  43.7038375  43.3498953  60.9397278  37.0166481
  42.7073333  61.2329811  36.3706276  42.8453881  60.8250198  37.8219678
  41.0039117  64.6860451  27.7052340  41.9156973  64.9187838  27.5300038
  40.4948764  65.2697495  27.1427419  33.8124545  66.9655938  42.7441472
  34.5539229  67.5040982  42.4676295  33.1061530  67.5922227  42.9013023
  39.2879884  69.1085079  41.3413633  39.6963240  68.6667489  40.5968265
  38.5657146  68.5337706  41.5947826  35.6410954  64.0457686  38.7147190
  36.4872149  64.4697099  38.8581839  35.5809592  63.3891310  39.4085753
  39.6108699  69.6686270  35.0965922  38.9817561  69.8331984  34.3941990
  39.2234361  70.0827879  35.8676886  43.4897931  70.6040707  32.4510286
  42.8048969  70.9839609  31.9007319  43.5741780  71.2136034  33.1842233
  38.7910400  61.7062054  40.3728364  38.5471331  62.4604115  39.8362639
  39.0670330  62.0847402  41.2075611  40.7448862  68.2500666  39.0505629
  40.9565758  68.8932426  38.3740010  40.6978611  67.4162983  38.5827559
  38.3475091  60.8618487  35.9542201  37.4859570  61.1599741  36.2458939
  38.3737526  61.0788886  35.0223234  35.1636661  69.4060678  32.3616007
  35.6275006  69.6848381  31.5720629  34.8993459  68.5044122  32.1789098
  32.0560742  68.9532159  35.2995770  32.6262099  69.3819428  34.6613255
  32.6468854  68.6714744  35.9979956  34.1005547  65.5283830  29.1705572
  34.8029590  65.9804874  29.6379498  33.7686175  64.8867649  29.7985465
  32.5485908  64.1195587  43.5456781  31.9184569  64.8011867  43.7792178
  32.4421996  64.0078668  42.6009920  27.8430881  63.7867383  34.4722706
  27.0529935  64.0424911  33.9962816  28.3342128  64.6015721  34.5774746
  41.8594690  71.1272622  37.2227986  42.6812134  70.7252809  36.9410668
  41.8557093  71.0240856  38.1744102  29.7945626  64.1511962  31.4306182
  28.9976789  64.2630656  31.9489678  29.5671218  64.4898614  30.5647073
  35.6251294  70.6756665  39.3788697  35.6895726  71.1377072  40.2146869
  34.9162218  70.0454030  39.5071007  26.1268584  64.0397873  36.9037696
  26.3776622  64.9244883  37.1695272  26.6628132  63.8602475  36.1312788
  49.9500683  67.4711370  33.5712958  49.1964392  66.9018768  33.4156962
  50.0848225  67.4374035  34.5183593  35.3399311  72.3424773  29.2467677
  35.2044986  73.1876308  29.6752525  35.8809124  72.5444050  28.4833611
  31.8266651  58.4216352  45.9082033  31.4333597  57.8682551  46.5829677
  32.6432791  58.7326931  46.2988550  28.7928709  69.8600211  29.8195602
  29.3053229  70.6543461  29.9701167  29.4451422  69.1626501  29.7529204
  30.6023593  72.9765967  31.9018356  30.7790222  73.8983932  31.7139339
  31.3980427  72.6624386  32.3312735  34.7434612  59.8374232  43.5002289
  35.4844325  60.4381385  43.4206752  34.9752535  59.0951869  42.9420332
  29.8875950  65.0230599  41.7780519  29.7729465  64.1215856  42.0787618
  29.0320468  65.2694296  41.4265335  36.9667788  72.9648339  43.3768019
  36.5231642  72.1784718  43.0588924  37.6285001  73.1527490  42.7111910
  31.7254909  74.4944141  37.9028698  32.2762334  74.3661204  37.1305692
  30.8866385  74.7939030  37.5523591  39.0649026  73.2451139  41.4049421
  39.0467501  74.0660020  40.9129690  39.9868946  73.1205214  41.6299562
  35.5222080  70.7595269  42.2472929  36.0550417  69.9983557  42.0172237
  34.9936161  70.4668920  42.9897084  38.6891775  55.8655335  37.7766571
  38.3456044  56.7556976  37.7005681  39.0570738  55.6756992  36.9136156
  26.7577626  68.1888865  30.5955173  27.5952848  68.5985873  30.3788881
  26.9355893  67.2488307  30.5655367  38.6542058  65.8563946  26.2839006
  38.1388681  66.6268550  26.5227393  38.3819366  65.1829082  26.9072067
  36.2389169  60.7013646  31.3424244  35.3830765  60.3120497  31.1629883
  36.6516120  60.7805607  30.4824030  37.7688315  58.2359990  35.7415804
  37.2653111  58.1990125  34.9283609  38.0618922  59.1452732  35.8012461
  34.0131201  58.3198719  34.7481986  34.8784198  58.1241528  34.3887875
  34.0808710  58.0909071  35.6751343  43.6276332  68.6096300  28.2192179
  42.8505775  68.2707460  27.7747341  44.3067813  68.6148923  27.5447144
  38.4428361  63.7291038  28.1098787  38.1378496  64.0437187  28.9608930
  39.3958803  63.8072458  28.1526120  36.8874793  69.8881261  29.7591741
  36.3596154  69.1534021  29.4464979  36.3862295  70.6655937  29.5131709
  41.8667639  68.0830282  34.8758787  41.2091313  68.7729543  34.9638916
  42.6708038  68.4726713  35.2192774  31.6193520  60.5500927  32.1198353
  32.1937272  60.3276109  31.3871546  32.2064503  60.6189622  32.8726954
  40.6773098  66.4374654  32.9262729  41.1904979  67.0704646  33.4284439
  41.3274321  65.8375850  32.5606089  31.9463107  62.5805388  26.1394238
  31.1100420  62.9180075  26.4603513  31.8067877  62.4454368  25.2021375
  33.9216188  57.4242176  30.8473422  33.2680600  57.1091193  30.2230037
  33.8796662  56.8017917  31.5733245  35.0327393  67.7061471  22.7626714
  34.1254455  67.4750725  22.9617863  35.5298425  66.9099091  22.9500696
  37.9395472  76.4158978  25.6823400  37.2657171  76.7190675  26.2908358
  38.3261294  77.2188059  25.3328857  37.1553928  63.9124110  35.1721070
  36.2376490  64.1339057  35.0142758  37.5714072  63.9870420  34.3132777
  37.9388976  65.3115525  30.3023750  38.6860795  65.8236923  29.9930872
  38.2080566  64.9899578  31.1628143  36.2115626  67.8074066  27.2850704
  35.3026846  67.5233099  27.3823174  36.2410710  68.2273145  26.4254011
  41.4434894  71.4180656  31.0541872  40.9897221  70.5771566  31.1107062
  40.8128860  72.0542054  31.3916652  40.3867813  62.3472642  32.2842539
  39.6490570  61.8350028  32.6152782  40.6394587  61.9073023  31.4725816
  39.8867833  73.2557152  31.9891690  40.1790807  73.8162209  31.2704056
  40.3966454  73.5485713  32.7444849  40.4879441  55.1248894  32.8784308
  40.7938317  54.2646257  32.5910224  41.2132045  55.7166514  32.6783302
  26.7803797  65.5279580  31.2665906  26.5828197  64.9348941  30.5416973
  26.2250461  65.2231790  31.9841845  34.7600520  65.4202687  33.3860500
  34.8149130  64.4676523  33.3102976  33.9491722  65.5762126  33.8701798
  35.9091714  69.3482810  24.6238783  35.4711144  68.6318669  24.1644420
  36.6502155  69.5758925  24.0623874  32.6992880  64.0379747  31.1450878
  31.8860746  64.3373917  31.5516071  33.1951874  63.6435435  31.8625361
  34.8501458  74.0337503  33.0785143  34.8077637  74.2598350  32.1493675
  35.7664157  73.8000878  33.2270944  38.2967092  64.5021571  39.9765772
  38.6516480  64.7293044  40.8360238  38.9439223  64.8339948  39.3543028
  44.0264829  67.6240007  30.6815101  43.8882728  67.8141603  29.7536291
  43.6701048  68.3859390  31.1383152  32.1906955  61.6098102  36.7612113
  32.8306334  61.4686861  36.0635077  31.3584486  61.3232615  36.3850715
  44.0534209  69.6916534  35.6926373  44.4870715  69.5991823  36.5409427
  44.7665789  69.6674034  35.0546389  32.9667259  70.9100532  32.8747106
  33.7607857  70.4150853  32.6729681  32.2558951  70.3818396  32.5114811
  37.7862103  73.2918628  37.2259473  37.8399126  73.8609564  37.9937189
  36.9176885  73.4620513  36.8613511  29.2750022  65.0543614  28.9506859
  28.3447611  64.9928070  29.1676821  29.3707494  64.5319567  28.1543500
  29.1935571  61.5798427  31.5385100  29.4542389  62.4943760  31.4294261
  30.0152744  61.1122870  31.6881713  30.6660497  62.9936184  38.7083925
  31.3383550  62.7853546  38.0596574  29.8390283  62.7958270  38.2689157
  44.9149758  69.7340235  38.2259258  45.1085648  70.6386045  38.4718533
  44.8150376  69.2747654  39.0597843  36.5686069  59.6198125  40.7249586
  35.9213984  60.3188075  40.6314062  37.3387084  60.0534269  41.0925834
  39.9764867  69.8846977  43.8000139  39.8250373  69.6557529  42.8830223
  39.9669546  70.8417579  43.8131484  36.7450203  67.4578890  38.7846405
  37.6742263  67.6090050  38.6115373  36.3241233  67.5462911  37.9295052
  35.5438535  71.4829554  36.5544943  35.4049621  71.1148339  37.4270881
  34.7553131  71.9977194  36.3828901  36.1386687  76.5838651  27.8970479
  36.3138443  76.1126694  28.7116102  35.4519475  77.2104417  28.1251740
  37.0943750  70.8611157  33.9433781  36.7593583  70.8211927  34.8391431
  36.5947696  70.1955873  33.4704191  31.0687994  66.2678787  39.4686362
  30.9307792  65.5359026  40.0697901  31.9792918  66.1787687  39.1870550
  40.0302942  68.2067191  24.2170840  39.4132112  67.4814020  24.1203893
  39.5619430  68.9676552  23.8737915  33.6970295  65.9798746  38.9570042
  34.4069913  65.3391939  38.9156660  33.6539603  66.2311641  39.8796222
  41.6857073  72.9166100  41.8776621  41.6269620  72.2325320  41.2107204
  42.0876592  73.6585090  41.4257247  32.4099229  62.9663964  40.7765681
  31.8736586  62.5154703  41.4287277  31.8215937  63.1009873  40.0336145
  30.7047772  79.7328014  34.6710340  30.9444370  80.3646538  35.3489358
  29.8616969  79.3816054  34.9575699  31.8201488  62.4252616  23.3392145
  30.9430954  62.3041417  22.9754391  32.2959241  61.6338694  23.0871033
  41.6874481  70.8805684  40.1090600  40.8001259  70.5431606  40.2316999
  42.2573032  70.1488715  40.3459366  23.3403628  67.2129776  33.4333652
  24.0274668  66.8991506  32.8454667  23.1851756  68.1171140  33.1600903
  28.1438350  62.1019972  37.8618675  28.0596539  61.4945642  37.1269085
  27.3221056  62.5928990  37.8628172  35.2175634  75.5407136  37.0751844
  35.1445806  76.3462108  37.5871148  34.7753027  75.7399102  36.2499865
  35.0065414  74.7778906  30.5854665  34.2232936  75.3200586  30.6792890
  35.7058159  75.2952886  30.9848906  38.3162064  60.5873536  33.2288871
  38.8130763  59.8343498  32.9089941  37.5449045  60.6237852  32.6632080
  46.1691821  66.2913901  34.8707162  46.1581697  67.1738617  34.5001095
  45.3009201  65.9385452  34.6761699  37.6774318  75.4393970  39.2310002
  38.3902290  76.0741435  39.1585904  37.1864346  75.5357836  38.4150004
  39.3991844  69.3445223  30.8027294  38.4648123  69.4646685  30.6331998
  39.5768513  68.4417690  30.5387304  34.8997033  62.7290919  32.9560555
  34.5294820  62.1761959  33.6441461  35.3956125  62.1249052  32.4035555
  42.7864396  65.1862542  31.3377328  43.2524848  66.0190534  31.2637631
  43.2371896  64.7207524  32.0422587  32.7286231  73.1888414  40.0515573
  33.4295691  73.8224897  40.2044967  32.2581346  73.5303145  39.2911212
  40.8540627  71.5306363  28.3363480  41.1300471  71.4162958  29.2457354
  39.9845126  71.1323848  28.2975653  40.7581059  57.5543129  35.3768229
  39.8444138  57.7847356  35.5450436  41.1874160  57.6381573  36.2282262
  40.5287517  65.7433021  37.8768123  39.8758967  65.9908929  37.2220576
  40.9067897  64.9297159  37.5430601  37.4894691  75.7792714  31.9796294
  37.6717085  74.9614370  32.4424046  38.3127677  75.9960406  31.5421184
  37.8236856  74.7060899  29.2411342  38.3524623  74.1953354  28.6281504
  38.0865076  74.3903430  30.1056875  36.5775090  66.4852832  44.3634161
  35.9015727  66.3846961  45.0336536  37.4002724  66.3292046  44.8270158
  28.3253949  72.7224769  36.9846676  28.9107386  71.9768457  37.1174580
  28.1278788  73.0328725  37.8683340  31.1792604  75.7576016  32.0009118
  30.5102980  76.2422144  31.5173158  31.0405474  76.0045236  32.9152497
  22.9171604  65.2930369  35.7051119  22.9555703  64.7593960  36.4988237
  22.4111897  64.7665574  35.0862096  35.3197873  77.7919760  38.5991777
  35.8716181  77.9551381  39.3640862  35.6604066  78.3824197  37.9271801
  30.2962366  60.1394909  39.2013661  30.3603693  61.0009740  38.7891059
  30.2329486  59.5268911  38.4686020  29.7714639  62.2118042  42.8486695
  30.3986678  61.8295119  43.4624220  28.9142558  61.9932244  43.2142388
  40.1708747  72.6181017  44.4540431  40.7148651  73.2310975  43.9595386
  39.5895592  73.1760595  44.9707444  26.5480181  64.0194471  28.7805050
  26.8433623  63.1105149  28.7272104  25.6468217  63.9982210  28.4586053
  38.4566260  75.7401735  35.5855459  38.3317400  74.9391475  35.0766404
  39.1145351  76.2347928  35.0969429  30.0774428  62.0950468  34.7632599
  29.3561014  62.7086435  34.6240072  30.8667684  62.6308232  34.6849245
  40.5201169  73.5410755  37.2135009  39.5731504  73.4216106  37.1413335
  40.8683942  72.6533253  37.2961270  32.8800742  59.4304894  41.0373251
  33.4035144  59.6767191  41.7999560  32.6613075  60.2624929  40.6176388
  28.2768023  61.7008569  28.9044375  27.9480729  60.8205948  28.7219481
  28.6307394  61.6456237  29.7920765  37.5247602  73.3363471  33.4139361
  37.3772564  72.4080179  33.5946931  38.3501095  73.3583562  32.9296436
  31.3909846  61.9881538  29.2719853  31.7305919  62.5167460  28.5498461
  31.8381967  62.3261945  30.0478420  41.1281724  74.1592030  34.5004234
  42.0528271  73.9534891  34.3628685  40.9597027  73.9108431  35.4093575
  34.0853287  60.3718589  38.7222921  33.7450107  59.5726402  39.1243601
  33.3792293  60.6720300  38.1499754  34.7369759  57.4567902  37.1750244
  35.5595828  56.9828380  37.0529135  34.9807822  58.2358385  37.6748930
  33.3777993  60.4856160  27.4713146  34.0986356  60.8637413  26.9676863
  32.7543298  61.2045037  27.5748124  37.5209116  61.1901309  28.4071478
  37.7372731  62.0725947  28.1060306  37.0403183  60.7987522  27.6777120
  32.2608338  64.1487022  34.9842223  32.1152918  64.4627325  35.8766504
  31.7833541  64.7671923  34.4313121  34.1204721  61.1389570  35.0323112
  34.1066289  60.2430664  34.6955410  34.8377149  61.1460234  35.6661398
  35.9730851  61.5726910  37.0776240  35.7148629  62.4943981  37.0760570
  35.4415892  61.1757345  37.7676704  40.9177040  74.6777698  29.8566325
  41.0913918  74.1124120  29.1040178  41.4105931  75.4778592  29.6745815
  26.7354000  66.6892367  37.9229884  26.1907468  67.4652175  38.0550158
  27.6133350  67.0363171  37.7649005  33.5241616  60.0203951  30.3010683
  33.6457528  59.0920597  30.5001570  33.2343659  60.0342637  29.3888998
  36.3932807  57.7058861  33.4377402  36.4154504  57.7698194  32.4829382
  36.8100866  56.8663370  33.6317909  46.7716431  67.4414121  31.4756625
  47.2147577  66.6921446  31.0775748  45.8942941  67.4324257  31.0930357
  41.9052212  73.9944462  26.9563223  42.6003117  74.6151155  27.1750538
  42.2475363  73.1439813  27.2315601  27.5220022  65.8162263  40.8160041
  26.7801758  65.9644898  41.4024671  27.2012766  66.0770529  39.9526790
  43.8043636  71.4444168  28.4850554  44.3294960  71.7831440  27.7599874
  43.7165988  70.5091183  28.3013689  35.4663684  75.3578241  40.6140431
  35.7750811  75.1127388  41.4863130  36.2639166  75.5624880  40.1259301
  35.4884296  77.5116151  32.8445807  35.0489287  77.0192529  33.5378664
  36.2392413  76.9689118  32.6037883  27.9676635  73.7027692  32.8470435
  28.7934655  73.4031464  32.4669079  27.6170687  72.9335314  33.2960224
  32.9358169  73.0554160  34.9168109  32.3138178  72.3924865  34.6170337
  33.6063035  73.0815292  34.2341757  26.1685240  71.6214018  33.8059369
  25.3317149  71.1936192  33.6243370  26.1408886  71.8146461  34.7430160
  33.0082696  61.5335948  44.5100615  33.0570851  62.4098071  44.1278385
  33.5505210  60.9913341  43.9372258  43.4937542  72.0777071  43.7901752
  42.7033085  72.0601210  43.2506252  43.2570896  72.6165365  44.5450789
  43.6135417  68.9269538  41.1034481  43.6633422  68.7619545  42.0450004
  43.5049340  68.0596797  40.7132361  32.4971675  71.6058083  28.3926570
  32.6459796  72.2893548  27.7393242  33.3038119  71.5863173  28.9076025
  40.9039179  64.9100466  42.4193787  41.8049042  64.7706930  42.1277785
  40.9787154  65.0754920  43.3591965  35.2381984  62.2867320  41.2646974
  34.3685294  62.5800886  40.9929562  35.4741465  62.8707765  41.9854237
  45.1153614  71.3466479  41.3476502  44.8238422  71.7096460  42.1839963
  44.5025745  70.6333487  41.1689834  46.3149296  68.9119359  33.8679072
  47.1496187  69.3509163  34.0316633  46.4508425  68.4358012  33.0487318
  43.3640802  66.4699094  39.8156560  43.8394923  66.6626740  39.0075412
  42.4406367  66.5258279  39.5699944  30.2524308  67.6323261  29.3987639
  30.0070350  66.7285591  29.5967849  30.4220223  67.6340411  28.4567117
  37.9421018  58.5046937  38.7812394  38.4602962  59.2407964  38.4558883
  37.5876151  58.8110931  39.6159153  29.5219956  63.3651618  26.8973800
  28.8289201  63.4395973  26.2413836  29.2771708  62.6011962  27.4195317
  38.1933612  54.9247220  34.3013291  38.4735366  54.2570409  34.9273717
  38.9784219  55.1176315  33.7887955  35.9967081  74.1006214  25.8638317
  35.4241048  74.7196401  25.4108789  36.5699875  74.6505575  26.3978239
  42.0642471  63.3464854  38.0484866  43.0159894  63.4462951  38.0697090
  41.8945921  62.5543122  38.5582950  40.0856850  60.4320437  38.2344267
  39.4906782  60.7125450  37.5390755  39.8006547  60.9214338  39.0061008
  39.2164341  74.3843364  26.9946899  40.1495014  74.3188925  27.1979775
  39.1287554  75.2199631  26.5361432  41.8452357  73.7009234  23.9550847
  41.7665989  73.3669098  24.8486605  42.6662024  74.1931002  23.9542319
  44.5430549  66.5670973  37.1627165  44.5106869  65.6286974  37.3486849
  45.1531172  66.6455010  36.4292990  36.3813879  65.4367026  23.2054370
  37.3272984  65.3073235  23.2742788  36.0028124  64.6981688  23.6823798
  44.6925037  63.3582017  37.2085449  44.1764086  62.5740474  37.0215378
  45.5764986  63.0300733  37.3731968  42.3535764  57.1023032  33.1681261
  42.1560585  56.7938121  34.0524593  42.9635470  57.8284671  33.2979191
  50.3607098  67.6286980  36.3033202  51.0910487  67.3672268  36.8640906
  49.7514044  66.8915702  36.3435270  48.4422396  65.7694843  36.9007653
  47.7155559  65.6350808  36.2924145  48.0269682  66.0771671  37.7064372
  36.2652572  69.4884773  44.6655027  37.1855581  69.6663372  44.8595073
  36.2302155  68.5440818  44.5134726  34.5656797  63.3617003  23.1409255
  33.6588252  63.0650116  23.2171968  34.8432778  63.0646821  22.2743541
  25.4834737  64.6823366  33.5908301  25.1637521  63.8288674  33.2982675
  24.9368165  64.8971944  34.3466268  29.2614645  67.3985807  37.3077808
  29.4800654  68.3302915  37.3265841  29.6740418  67.0393782  38.0932612
  36.1818862  57.9053893  29.2953496  35.3719591  57.5600977  29.6708742
  36.8703279  57.5961436  29.8841108  38.1109411  56.9831939  30.9177793
  38.6640449  57.4027393  31.5767816  38.3479497  56.0567687  30.9600749
  34.1342510  62.9719013  46.6980557  34.0339237  63.9213370  46.6292648
  33.9164052  62.6437252  45.8256627  33.3355581  60.2203938  23.2821234
  34.1974745  60.5458836  23.5417051  33.5205925  59.4335434  22.7694300
  25.3522997  68.3026278  35.5601423  24.6586468  67.8880231  35.0471377
  26.0995988  68.3446814  34.9634842  41.4888218  59.0932464  30.4256457
  40.9086887  59.7517269  30.0434509  41.2224150  58.2709809  30.0143874
  39.9391784  58.4937522  32.6277777  40.4391562  58.6054057  31.8192096
  40.5827392  58.1898575  33.2678586  33.9973780  66.4016152  45.5145618
  33.5140862  67.2016512  45.7209507  34.0834719  66.4124097  44.5613062
  27.2659740  68.2344531  33.4367438  27.2430428  68.3332219  32.4849321
  27.5760376  69.0809682  33.7584604  29.9247117  70.2920687  37.5514052
  30.8790371  70.2604629  37.4843984  29.7259641  69.8311310  38.3664278
  30.5146500  68.8621803  40.1184850  31.3339389  69.3565881  40.1419687
  30.7883307  67.9453771  40.0902417  40.2713096  61.2532555  29.4812805
  39.3838951  61.5382205  29.2633000  40.6867085  61.0926318  28.6340082
  43.6227632  61.2779076  33.1967144  44.3988022  61.7675528  33.4691761
  42.8975766  61.7037130  33.6539014  46.0600190  61.9906695  34.2541085
  46.6544681  61.7502431  33.5434393  46.1326774  61.2713826  34.8814621
  28.2797346  75.8340306  34.5684250  28.1451814  75.0740707  34.0022248
  27.8629408  76.5581206  34.1013039  39.4156309  71.0177230  23.5760825
  40.1192159  71.2227232  24.1918481  38.6918958  71.5853991  23.8409909
  40.2454119  66.7687091  29.6963095  40.1889321  67.2255642  28.8570728
  40.7982462  66.0077775  29.5185938  44.0558925  62.5576823  30.5213215
  43.7995860  62.1573458  31.3521423  43.4311793  63.2720617  30.3963354
  48.3671263  65.2972896  33.0284506  47.8070821  65.3666085  33.8016068
  47.7614767  65.1213881  32.3084003  31.4366472  76.7309623  34.7802693
  31.3198856  77.6755056  34.6781383  30.6158918  76.4283185  35.1688492
  41.3243007  71.4559759  25.6259285  42.1588611  71.0240957  25.4436760
  41.1627350  71.2841772  26.5536180  40.9788899  67.9591872  26.9915625
  40.9237703  67.7936143  26.0504069  40.3534954  68.6667905  27.1477814
  25.7681414  63.1959936  40.8177047  26.4140277  62.6858890  41.3064272
  25.5598565  63.9328618  41.3920472  38.2934806  70.2640784  46.3169187
  39.1625966  70.4381436  45.9555822  37.8141557  71.0835201  46.1944917
  34.2885024  57.4599981  26.5700943  34.2763694  58.4041821  26.7269214
  35.1808446  57.2770126  26.2760404  32.4620986  77.3837885  37.9958621
  33.3648233  77.4161495  38.3125116  32.2358356  76.4538336  38.0104957
  34.2174588  76.1368871  34.6568700  33.2670219  76.1370733  34.5433072
  34.5207074  75.3901606  34.1404734  38.1037144  54.0542758  30.8246880
  37.3369539  53.5001244  30.9703562  38.5147849  54.1264626  31.6861031
  30.1078905  60.3427554  44.9152061  30.9710366  59.9864358  45.1255386
  29.5344315  60.0041448  45.6027465  49.9527282  81.9729410  35.7214462
  50.5905692  81.8536157  35.0177802  49.8348125  82.9210254  35.7802414
  46.7616988  81.9256838  35.6575987  46.4235499  81.8097903  34.7696522
  47.6306756  81.5248003  35.6376993  42.6203804  83.7792314  31.6472878
  42.0568669  83.6882251  30.8789165  42.5056199  82.9592219  32.1275370
  47.2436771  83.0791690  41.6162192  47.2325412  82.6844488  40.7442696
  47.4057410  82.3457762  42.2095964  40.1668236  85.2743506  34.4857098
  40.9589528  84.9334331  34.0703397  40.4064886  85.3838481  35.4059251
  48.2003362  87.4463282  26.9587343  47.5491342  88.0317362  26.5721356
  48.9947725  87.9769477  27.0182380  42.1258990  84.5352419  27.3574477
  42.8989866  83.9881406  27.2187353  42.4784388  85.3996669  27.5688938
  43.9644032  85.8628801  40.5641376  43.6733898  86.7674432  40.4488043
  44.6001016  85.9045329  41.2785446  44.8900239  83.2405650  37.1542736
  45.4863811  83.0161672  36.4399699  44.9475210  82.4990395  37.7568184
  44.4625267  80.6945085  24.9892927  44.7150788  80.1726607  24.2276390
  43.5249826  80.5311231  25.0919610  49.5068550  79.6980864  32.7967670
  50.2931639  79.2800287  32.4458087  49.7707254  80.6026956  32.9649318
  49.6778628  85.1353714  27.4956327  49.0424460  85.2088341  28.2077232
  49.3476034  85.7247313  26.8175406  54.9076977  79.6356097  33.7000649
  55.6402149  79.0655314  33.9338478  54.1516333  79.2477697  34.1407154
  44.1821556  82.5973191  27.1917302  44.0657814  81.9218095  27.8598386
  44.2923816  82.1105565  26.3749455  46.5253097  82.0583338  30.8963991
  46.1611304  81.5313959  31.6076912  47.3820213  81.6681807  30.7230476
  52.4302398  73.3477671  38.1595257  52.0985722  74.2173082  37.9356472
  51.8348011  73.0313955  38.8389288  46.1658584  77.0873238  25.8925340
  46.3332986  77.9553475  26.2595811  45.9755753  77.2500520  24.9686629
  48.9233917  85.5490217  37.5591170  48.6234640  86.4515256  37.4506977
  48.5784977  85.2822400  38.4112323  42.3746399  82.0004014  33.5927874
  41.4496895  81.8680228  33.8005566  42.6230812  82.7798233  34.0897817
  52.3231061  78.0672757  35.2388607  51.4147938  77.9988166  34.9447368
  52.2718657  78.5444702  36.0670433  46.1447805  79.5430896  26.8772006
  46.0247430  79.9887946  27.7157487  45.4500393  79.8916213  26.3185545
  39.7355210  81.6437287  34.4271663  39.8647591  81.8971766  35.3411075
  39.0552661  82.2364995  34.1076318  43.9054697  92.3134537  30.5262138
  43.8278727  93.2642362  30.6050618  43.3016341  91.9680410  31.1837064
  46.3971927  79.4862403  43.1823505  45.6205261  80.0456323  43.1726369
  47.0362490  79.9719186  43.7038375  54.1892707  76.2689196  37.0166481
  53.5467088  76.5621729  36.3706276  53.6847636  76.1542116  37.8219678
  51.8432871  80.0152369  27.7052340  52.7550727  80.2479756  27.5300038
  51.3342518  80.5989413  27.1427419  44.6518299  82.2947856  42.7441472
  45.3932983  82.8332900  42.4676295  43.9455285  82.9214145  42.9013023
  50.1273639  84.4376997  41.3413633  50.5356995  83.9959407  40.5968265
  49.4050900  83.8629624  41.5947826  46.4804709  79.3749603  38.7147190
  47.3265904  79.7989017  38.8581839  46.4203346  78.7183228  39.4085753
  50.4502453  84.9978187  35.0965922  49.8211316  85.1623901  34.3941990
  50.0628115  85.4119797  35.8676886  54.3291685  85.9332625  32.4510286
  53.6442723  86.3131526  31.9007319  54.4135535  86.5427952  33.1842233
  49.6304154  77.0353972  40.3728364  49.3865086  77.7896032  39.8362639
  49.9064085  77.4139319  41.2075611  51.5842617  83.5792584  39.0505629
  51.7959512  84.2224344  38.3740010  51.5372365  82.7454901  38.5827559
  49.1868846  76.1910405  35.9542201  48.3253325  76.4891658  36.2458939
  49.2131280  76.4080804  35.0223234  46.0030415  84.7352595  32.3616007
  46.4668761  85.0140298  31.5720629  45.7387213  83.8336040  32.1789098
  42.8954496  84.2824077  35.2995770  43.4655853  84.7111345  34.6613255
  43.4862608  84.0006662  35.9979956  44.9399301  80.8575748  29.1705572
  45.6423345  81.3096791  29.6379498  44.6079930  80.2159567  29.7985465
  43.3879663  79.4487504  43.5456781  42.7578323  80.1303785  43.7792178
  43.2815751  79.3370586  42.6009920  38.6824635  79.1159300  34.4722706
  37.8923689  79.3716829  33.9962816  39.1735883  79.9307638  34.5774746
  52.6988445  86.4564540  37.2227986  53.5205889  86.0544727  36.9410668
  52.6950848  86.3532774  38.1744102  40.6339381  79.4803880  31.4306182
  39.8370544  79.5922574  31.9489678  40.4064973  79.8190532  30.5647073
  46.4645048  86.0048583  39.3788697  46.5289481  86.4668990  40.2146869
  45.7555972  85.3745948  39.5071007  36.9662338  79.3689791  36.9037696
  37.2170377  80.2536801  37.1695272  37.5021887  79.1894392  36.1312788
  60.7894438  82.8003288  33.5712958  60.0358146  82.2310686  33.4156962
  60.9241979  82.7665953  34.5183593  46.1793066  87.6716690  29.2467677
  46.0438741  88.5168226  29.6752525  46.7202878  87.8735968  28.4833611
  42.6660406  73.7508270  45.9082033  42.2727351  73.1974469  46.5829677
  43.4826546  74.0618849  46.2988550  39.6322463  85.1892128  29.8195602
  40.1446984  85.9835379  29.9701167  40.2845176  84.4918419  29.7529204
  41.4417348  88.3057885  31.9018356  41.6183976  89.2275849  31.7139339
  42.2374182  87.9916304  32.3312735  45.5828367  75.1666149  43.5002289
  46.3238080  75.7673302  43.4206752  45.8146289  74.4243787  42.9420332
  40.7269705  80.3522517  41.7780519  40.6123220  79.4507774  42.0787618
  39.8714222  80.5986213  41.4265335  47.8061542  88.2940257  43.3768019
  47.3625396  87.5076635  43.0588924  48.4678756  88.4819407  42.7111910
  42.5648663  89.8236058  37.9028698  43.1156089  89.6953122  37.1305692
  41.7260139  90.1230947  37.5523591  49.9042780  88.5743057  41.4049421
  49.8861256  89.3951938  40.9129690  50.8262700  88.4497132  41.6299562
  46.3615835  86.0887186  42.2472929  46.8944171  85.3275474  42.0172237
  45.8329916  85.7960838  42.9897084  49.5285529  71.1947252  37.7766571
  49.1849799  72.0848894  37.7005681  49.8964492  71.0048910  36.9136156
  37.5971380  83.5180783  30.5955173  38.4346602  83.9277791  30.3788881
  37.7749648  82.5780225  30.5655367  49.4935812  81.1855863  26.2839006
  48.9782436  81.9560468  26.5227393  49.2213121  80.5120999  26.9072067
  47.0782923  76.0305564  31.3424244  46.2224520  75.6412414  31.1629883
  47.4909875  76.1097525  30.4824030  48.6082070  73.5651907  35.7415804
  48.1046865  73.5282043  34.9283609  48.9012677  74.4744650  35.8012461
  44.8524956  73.6490637  34.7481986  45.7177953  73.4533446  34.3887875
  44.9202465  73.4200989  35.6751343  54.4670086  83.9388218  28.2192179
  53.6899529  83.5999377  27.7747341  55.1461567  83.9440841  27.5447144
  49.2822115  79.0582955  28.1098787  48.9772251  79.3729105  28.9608930
  50.2352557  79.1364375  28.1526120  47.7268547  85.2173179  29.7591741
  47.1989909  84.4825938  29.4464979  47.2256050  85.9947855  29.5131709
  52.7061393  83.4122199  34.8758787  52.0485068  84.1021461  34.9638916
  53.5101792  83.8018631  35.2192774  42.4587275  75.8792845  32.1198353
  43.0331027  75.6568026  31.3871546  43.0458257  75.9481539  32.8726954
  51.5166852  81.7666572  32.9262729  52.0298734  82.3996564  33.4284439
  52.1668076  81.1667767  32.5606089  42.7856862  77.9097306  26.1394238
  41.9494174  78.2471993  26.4603513  42.6461632  77.7746286  25.2021375
  44.7609943  72.7534094  30.8473422  44.1074355  72.4383111  30.2230037
  44.7190417  72.1309834  31.5733245  45.8721147  83.0353389  22.7626714
  44.9648209  82.8042642  22.9617863  46.3692179  82.2391008  22.9500696
  48.7789226  91.7450896  25.6823400  48.1050925  92.0482593  26.2908358
  49.1655048  92.5479977  25.3328857  47.9947683  79.2416027  35.1721070
  47.0770244  79.4630974  35.0142758  48.4107827  79.3162338  34.3132777
  48.7782731  80.6407443  30.3023750  49.5254550  81.1528840  29.9930872
  49.0474320  80.3191496  31.1628143  47.0509381  83.1365984  27.2850704
  46.1420600  82.8525017  27.3823174  47.0804465  83.5565062  26.4254011
  52.2828648  86.7472573  31.0541872  51.8290975  85.9063483  31.1107062
  51.6522615  87.3833972  31.3916652  51.2261568  77.6764559  32.2842539
  50.4884325  77.1641946  32.6152782  51.4788341  77.2364941  31.4725816
  50.7261587  88.5849070  31.9891690  51.0184562  89.1454127  31.2704056
  51.2360208  88.8777631  32.7444849  51.3273195  70.4540811  32.8784308
  51.6332072  69.5938175  32.5910224  52.0525800  71.0458432  32.6783302
  37.6197551  80.8571498  31.2665906  37.4221951  80.2640859  30.5416973
  37.0644215  80.5523708  31.9841845  45.5994275  80.7494604  33.3860500
  45.6542885  79.7968441  33.3102976  44.7885477  80.9054044  33.8701798
  46.7485469  84.6774728  24.6238783  46.3104899  83.9610586  24.1644420
  47.4895909  84.9050842  24.0623874  43.5386635  79.3671664  31.1450878
  42.7254500  79.6665835  31.5516071  44.0345629  78.9727353  31.8625361
  45.6895213  89.3629421  33.0785143  45.6471391  89.5890267  32.1493675
  46.6057912  89.1292796  33.2270944  49.1360846  79.8313489  39.9765772
  49.4910234  80.0584962  40.8360238  49.7832978  80.1631865  39.3543028
  54.8658583  82.9531925  30.6815101  54.7276482  83.1433521  29.7536291
  54.5094802  83.7151307  31.1383152  43.0300710  76.9390020  36.7612113
  43.6700089  76.7978779  36.0635077  42.1978240  76.6524533  36.3850715
  54.8927963  85.0208452  35.6926373  55.3264470  84.9283741  36.5409427
  55.6059544  84.9965952  35.0546389  43.8061013  86.2392450  32.8747106
  44.6001612  85.7442770  32.6729681  43.0952706  85.7110313  32.5114811
  48.6255858  88.6210546  37.2259473  48.6792880  89.1901482  37.9937189
  47.7570639  88.7912431  36.8613511  40.1143777  80.3835532  28.9506859
  39.1841365  80.3219987  29.1676821  40.2101249  79.8611485  28.1543500
  40.0329326  76.9090345  31.5385100  40.2936143  77.8235678  31.4294261
  40.8546498  76.4414787  31.6881713  41.5054251  78.3228102  38.7083925
  42.1777305  78.1145464  38.0596574  40.6784038  78.1250188  38.2689157
  55.7543513  85.0632152  38.2259258  55.9479403  85.9677963  38.4718533
  55.6544131  84.6039571  39.0597843  47.4079823  74.9490043  40.7249586
  46.7607738  75.6479992  40.6314062  48.1780839  75.3826187  41.0925834
  50.8158621  85.2138895  43.8000139  50.6644128  84.9849447  42.8830223
  50.8063301  86.1709496  43.8131484  47.5843958  82.7870808  38.7846405
  48.5136018  82.9381967  38.6115373  47.1634988  82.8754828  37.9295052
  46.3832289  86.8121472  36.5544943  46.2443375  86.4440257  37.4270881
  45.5946886  87.3269112  36.3828901  46.9780441  91.9130569  27.8970479
  47.1532197  91.4418612  28.7116102  46.2913229  92.5396335  28.1251740
  47.9337505  86.1903075  33.9433781  47.5987337  86.1503845  34.8391431
  47.4341450  85.5247791  33.4704191  41.9081749  81.5970705  39.4686362
  41.7701546  80.8650944  40.0697901  42.8186672  81.5079605  39.1870550
  50.8696696  83.5359109  24.2170840  50.2525867  82.8105937  24.1203893
  50.4013185  84.2968469  23.8737915  44.5364049  81.3090664  38.9570042
  45.2463668  80.6683856  38.9156660  44.4933357  81.5603559  39.8796222
  52.5250828  88.2458018  41.8776621  52.4663374  87.5617238  41.2107204
  52.9270346  88.9877008  41.4257247  43.2492983  78.2955882  40.7765681
  42.7130340  77.8446621  41.4287277  42.6609692  78.4301791  40.0336145
  41.5441527  95.0619931  34.6710340  41.7838125  95.6938456  35.3489358
  40.7010723  94.7107971  34.9575699  42.6595242  77.7544533  23.3392145
  41.7824708  77.6333334  22.9754391  43.1352995  76.9630612  23.0871033
  52.5268235  86.2097601  40.1090600  51.6395014  85.8723523  40.2316999
  53.0966786  85.4780633  40.3459366  34.1797382  82.5421693  33.4333652
  34.8668422  82.2283423  32.8454667  34.0245511  83.4463058  33.1600903
  38.9832104  77.4311890  37.8618675  38.8990293  76.8237559  37.1269085
  38.1614811  77.9220908  37.8628172  46.0569389  90.8699054  37.0751844
  45.9839560  91.6754025  37.5871148  45.6146782  91.0691020  36.2499865
  45.8459168  90.1070824  30.5854665  45.0626690  90.6492504  30.6792890
  46.5451913  90.6244803  30.9848906  49.1555818  75.9165453  33.2288871
  49.6524518  75.1635416  32.9089941  48.3842800  75.9529770  32.6632080
  57.0085576  81.6205819  34.8707162  56.9975452  82.5030534  34.5001095
  56.1402955  81.2677370  34.6761699  48.5168072  90.7685888  39.2310002
  49.2296044  91.4033353  39.1585904  48.0258101  90.8649754  38.4150004
  50.2385599  84.6737141  30.8027294  49.3041878  84.7938603  30.6331998
  50.4162267  83.7709607  30.5387304  45.7390787  78.0582836  32.9560555
  45.3688575  77.5053877  33.6441461  46.2349879  77.4540970  32.4035555
  53.6258150  80.5154460  31.3377328  54.0918603  81.3482451  31.2637631
  54.0765651  80.0499441  32.0422587  43.5679986  88.5180331  40.0515573
  44.2689445  89.1516814  40.2044967  43.0975101  88.8595063  39.2911212
  51.6934381  86.8598281  28.3363480  51.9694225  86.7454876  29.2457354
  50.8238880  86.4615766  28.2975653  51.5974813  72.8835047  35.3768229
  50.6837893  73.1139274  35.5450436  52.0267915  72.9673491  36.2282262
  51.3681272  81.0724939  37.8768123  50.7152722  81.3200846  37.2220576
  51.7461651  80.2589077  37.5430601  48.3288445  91.1084632  31.9796294
  48.5110840  90.2906288  32.4424046  49.1521431  91.3252324  31.5421184
  48.6630611  90.0352817  29.2411342  49.1918377  89.5245272  28.6281504
  48.9258831  89.7195347  30.1056875  47.4168845  81.8144750  44.3634161
  46.7409482  81.7138879  45.0336536  48.2396478  81.6583964  44.8270158
  39.1647704  88.0516686  36.9846676  39.7501140  87.3060374  37.1174580
  38.9672542  88.3620643  37.8683340  42.0186359  91.0867934  32.0009118
  41.3496734  91.5714061  31.5173158  41.8799229  91.3337154  32.9152497
  33.7565358  80.6222287  35.7051119  33.7949458  80.0885877  36.4988237
  33.2505651  80.0957492  35.0862096  46.1591627  93.1211677  38.5991777
  46.7109936  93.2843299  39.3640862  46.4997821  93.7116115  37.9271801
  41.1356121  75.4686827  39.2013661  41.1997447  76.3301658  38.7891059
  41.0723241  74.8560829  38.4686020  40.6108393  77.5409960  42.8486695
  41.2380432  77.1587037  43.4624220  39.7536312  77.3224162  43.2142388
  51.0102502  87.9472935  44.4540431  51.5542406  88.5602893  43.9595386
  50.4289347  88.5052513  44.9707444  37.3873936  79.3486389  28.7805050
  37.6827377  78.4397067  28.7272104  36.4861972  79.3274128  28.4586053
  49.2960015  91.0693653  35.5855459  49.1711154  90.2683393  35.0766404
  49.9539106  91.5639846  35.0969429  40.9168183  77.4242385  34.7632599
  40.1954769  78.0378353  34.6240072  41.7061439  77.9600150  34.6849245
  51.3594923  88.8702673  37.2135009  50.4125259  88.7508024  37.1413335
  51.7077696  87.9825171  37.2961270  43.7194497  74.7596812  41.0373251
  44.2428898  75.0059108  41.7999560  43.5006830  75.5916847  40.6176388
  39.1161778  77.0300486  28.9044375  38.7874484  76.1497865  28.7219481
  39.4701148  76.9748155  29.7920765  48.3641356  88.6655389  33.4139361
  48.2166319  87.7372096  33.5946931  49.1894850  88.6875480  32.9296436
  42.2303601  77.3173456  29.2719853  42.5699673  77.8459377  28.5498461
  42.6775721  77.6553862  30.0478420  51.9675478  89.4883948  34.5004234
  52.8922026  89.2826809  34.3628685  51.7990782  89.2400349  35.4093575
  44.9247042  75.7010507  38.7222921  44.5843862  74.9018320  39.1243601
  44.2186048  76.0012218  38.1499754  45.5763513  72.7859819  37.1750244
  46.3989583  72.3120297  37.0529135  45.8201577  73.5650303  37.6748930
  44.2171748  75.8148078  27.4713146  44.9380110  76.1929331  26.9676863
  43.5937052  76.5336955  27.5748124  48.3602871  76.5193227  28.4071478
  48.5766485  77.4017865  28.1060306  47.8796938  76.1279440  27.6777120
  43.1002092  79.4778940  34.9842223  42.9546673  79.7919243  35.8766504
  42.6227296  80.0963840  34.4313121  44.9598475  76.4681488  35.0323112
  44.9460044  75.5722581  34.6955410  45.6770903  76.4752152  35.6661398
  46.8124606  76.9018828  37.0776240  46.5542384  77.8235899  37.0760570
  46.2809646  76.5049263  37.7676704  51.7570794  90.0069615  29.8566325
  51.9307672  89.4416038  29.1040178  52.2499686  90.8070510  29.6745815
  37.5747754  82.0184284  37.9229884  37.0301222  82.7944092  38.0550158
  38.4527104  82.3655089  37.7649005  44.3635371  75.3495868  30.3010683
  44.4851282  74.4212514  30.5001570  44.0737413  75.3634554  29.3888998
  47.2326561  73.0350779  33.4377402  47.2548258  73.0990112  32.4829382
  47.6494620  72.1955287  33.6317909  57.6110186  82.7706038  31.4756625
  58.0541332  82.0213363  31.0775748  56.7336696  82.7616175  31.0930357
  52.7445967  89.3236380  26.9563223  53.4396872  89.9443072  27.1750538
  53.0869117  88.4731731  27.2315601  38.3613776  81.1454181  40.8160041
  37.6195512  81.2936816  41.4024671  38.0406520  81.4062446  39.9526790
  54.6437390  86.7736085  28.4850554  55.1688714  87.1123358  27.7599874
  54.5559743  85.8383101  28.3013689  46.3057439  90.6870159  40.6140431
  46.6144565  90.4419306  41.4863130  47.1032921  90.8916797  40.1259301
  46.3278051  92.8408068  32.8445807  45.8883041  92.3484447  33.5378664
  47.0786168  92.2981036  32.6037883  38.8070390  89.0319609  32.8470435
  39.6328410  88.7323381  32.4669079  38.4564442  88.2627232  33.2960224
  43.7751923  88.3846078  34.9168109  43.1531932  87.7216783  34.6170337
  44.4456790  88.4107209  34.2341757  37.0078995  86.9505936  33.8059369
  36.1710903  86.5228110  33.6243370  36.9802640  87.1438379  34.7430160
  43.8476450  76.8627866  44.5100615  43.8964606  77.7389988  44.1278385
  44.3898965  76.3205259  43.9372258  54.3331296  87.4068989  43.7901752
  53.5426840  87.3893128  43.2506252  54.0964651  87.9457283  44.5450789
  54.4529171  84.2561455  41.1034481  54.5027176  84.0911463  42.0450004
  54.3443095  83.3888714  40.7132361  43.3365430  86.9350001  28.3926570
  43.4853550  87.6185465  27.7393242  44.1431873  86.9155091  28.9076025
  51.7432934  80.2392383  42.4193787  52.6442796  80.0998848  42.1277785
  51.8180908  80.4046838  43.3591965  46.0775739  77.6159238  41.2646974
  45.2079048  77.9092804  40.9929562  46.3135219  78.1999683  41.9854237
  55.9547368  86.6758397  41.3476502  55.6632176  87.0388377  42.1839963
  55.3419499  85.9625405  41.1689834  57.1543050  84.2411277  33.8679072
  57.9889942  84.6801081  34.0316633  57.2902179  83.7649930  33.0487318
  54.2034556  81.7991011  39.8156560  54.6788678  81.9918658  39.0075412
  53.2800122  81.8550197  39.5699944  41.0918063  82.9615179  29.3987639
  40.8464105  82.0577509  29.5967849  41.2613977  82.9632329  28.4567117
  48.7814773  73.8338855  38.7812394  49.2996717  74.5699882  38.4558883
  48.4269906  74.1402848  39.6159153  40.3613710  78.6943536  26.8973800
  39.6682955  78.7687891  26.2413836  40.1165462  77.9303880  27.4195317
  49.0327367  70.2539137  34.3013291  49.3129121  69.5862327  34.9273717
  49.8177974  70.4468233  33.7887955  46.8360835  89.4298131  25.8638317
  46.2634803  90.0488318  25.4108789  47.4093629  89.9797493  26.3978239
  52.9036225  78.6756771  38.0484866  53.8553648  78.7754869  38.0697090
  52.7339676  77.8835040  38.5582950  50.9250605  75.7612355  38.2344267
  50.3300537  76.0417367  37.5390755  50.6400301  76.2506256  39.0061008
  50.0558095  89.7135281  26.9946899  50.9888768  89.6480843  27.1979775
  49.9681308  90.5491548  26.5361432  52.6846112  89.0301152  23.9550847
  52.6059743  88.6961015  24.8486605  53.5055779  89.5222920  23.9542319
  55.3824303  81.8962891  37.1627165  55.3500623  80.9578892  37.3486849
  55.9924927  81.9746928  36.4292990  47.2207634  80.7658944  23.2054370
  48.1666739  80.6365152  23.2742788  46.8421879  80.0273606  23.6823798
  55.5318792  78.6873935  37.2085449  55.0157840  77.9032391  37.0215378
  56.4158740  78.3592651  37.3731968  53.1929518  72.4314950  33.1681261
  52.9954340  72.1230038  34.0524593  53.8029224  73.1576589  33.2979191
  61.2000853  82.9578898  36.3033202  61.9304241  82.6964186  36.8640906
  60.5907798  82.2207620  36.3435270  59.2816150  81.0986761  36.9007653
  58.5549314  80.9642725  36.2924145  58.8663437  81.4063589  37.7064372
  47.1046326  84.8176690  44.6655027  48.0249336  84.9955289  44.8595073
  47.0695910  83.8732736  44.5134726  45.4050551  78.6908920  23.1409255
  44.4982006  78.3942033  23.2171968  45.6826532  78.3938739  22.2743541
  36.3228491  80.0115284  33.5908301  36.0031276  79.1580592  33.2982675
  35.7761920  80.2263862  34.3466268  40.1008399  82.7277725  37.3077808
  40.3194409  83.6594833  37.3265841  40.5134173  82.3685699  38.0932612
  47.0212617  73.2345810  29.2953496  46.2113345  72.8892895  29.6708742
  47.7097034  72.9253354  29.8841108  48.9503165  72.3123857  30.9177793
  49.5034204  72.7319310  31.5767816  49.1873251  71.3859605  30.9600749
  44.9736264  78.3010931  46.6980557  44.8732991  79.2505288  46.6292648
  44.7557806  77.9729170  45.8256627  44.1749336  75.5495856  23.2821234
  45.0368500  75.8750754  23.5417051  44.3599680  74.7627352  22.7694300
  36.1916751  83.6318195  35.5601423  35.4980223  83.2172148  35.0471377
  36.9389742  83.6738732  34.9634842  52.3281972  74.4224382  30.4256457
  51.7480641  75.0809186  30.0434509  52.0617905  73.6001727  30.0143874
  50.7785539  73.8229440  32.6277777  51.2785317  73.9345974  31.8192096
  51.4221146  73.5190493  33.2678586  44.8367534  81.7308069  45.5145618
  44.3534616  82.5308430  45.7209507  44.9228473  81.7416014  44.5613062
  38.1053494  83.5636449  33.4367438  38.0824182  83.6624136  32.4849321
  38.4154130  84.4101600  33.7584604  40.7640872  85.6212604  37.5514052
  41.7184125  85.5896547  37.4843984  40.5653395  85.1603228  38.3664278
  41.3540254  84.1913720  40.1184850  42.1733143  84.6857799  40.1419687
  41.6277062  83.2745688  40.0902417  51.1106850  76.5824473  29.4812805
  50.2232705  76.8674123  29.2633000  51.5260839  76.4218236  28.6340082
  54.4621386  76.6070994  33.1967144  55.2381776  77.0967446  33.4691761
  53.7369521  77.0329048  33.6539014  56.8993945  77.3198613  34.2541085
  57.4938436  77.0794349  33.5434393  56.9720529  76.6005743  34.8814621
  39.1191101  91.1632224  34.5684250  38.9845569  90.4032625  34.0022248
  38.7023163  91.8873124  34.1013039  50.2550064  86.3469147  23.5760825
  50.9585914  86.5519150  24.1918481  49.5312712  86.9145909  23.8409909
  51.0847874  82.0979008  29.6963095  51.0283075  82.5547560  28.8570728
  51.6376216  81.3369693  29.5185938  54.8952680  77.8868740  30.5213215
  54.6389614  77.4865376  31.3521423  54.2705548  78.6012534  30.3963354
  59.2065018  80.6264814  33.0284506  58.6464576  80.6958003  33.8016068
  58.6008521  80.4505798  32.3084003  42.2760227  92.0601541  34.7802693
  42.1592611  93.0046973  34.6781383  41.4552673  91.7575102  35.1688492
  52.1636761  86.7851676  25.6259285  52.9982365  86.3532875  25.4436760
  52.0021104  86.6133690  26.5536180  51.8182653  83.2883790  26.9915625
  51.7631457  83.1228061  26.0504069  51.1928709  83.9959823  27.1477814
  36.6075168  78.5251854  40.8177047  37.2534032  78.0150808  41.3064272
  36.3992319  79.2620536  41.3920472  49.1328560  85.5932702  46.3169187
  50.0019720  85.7673354  45.9555822  48.6535312  86.4127118  46.1944917
  45.1278779  72.7891899  26.5700943  45.1157449  73.7333739  26.7269214
  46.0202201  72.6062044  26.2760404  43.3014741  92.7129803  37.9958621
  44.2041987  92.7453413  38.3125116  43.0752111  91.7830254  38.0104957
  45.0568343  91.4660789  34.6568700  44.1063974  91.4662651  34.5433072
  45.3600829  90.7193524  34.1404734  48.9430898  69.3834675  30.8246880
  48.1763294  68.8293162  30.9703562  49.3541603  69.4556544  31.6861031
  40.9472659  75.6719471  44.9152061  41.8104121  75.3156276  45.1255386
  40.3738070  75.3333366  45.6027465  60.7921036  97.3021328  35.7214462
  61.4299446  97.1828075  35.0177802  60.6741879  98.2502171  35.7802414
  57.6010742  97.2548756  35.6575987  57.2629254  97.1389820  34.7696522
  58.4700511  96.8539921  35.6376993  53.4597558  99.1084232  31.6472878
  52.8962423  99.0174169  30.8789165  53.3449953  98.2884137  32.1275370
  58.0830525  98.4083607  41.6162192  58.0719166  98.0136406  40.7442696
  58.2451165  97.6749680  42.2095964  51.0061990 100.6035424  34.4857098
  51.7983282 100.2626248  34.0703397  51.2458640 100.7130399  35.4059251
  59.0397117 102.7755200  26.9587343  58.3885097 103.3609280  26.5721356
  59.8341480 103.3061395  27.0182380  52.9652744  99.8644337  27.3574477
  53.7383620  99.3173324  27.2187353  53.3178143 100.7288586  27.5688938
  54.8037787 101.1920719  40.5641376  54.5127653 102.0966350  40.4488043
  55.4394771 101.2337247  41.2785446  55.7293993  98.5697568  37.1542736
  56.3257566  98.3453590  36.4399699  55.7868965  97.8282313  37.7568184
  55.3019022  96.0237003  24.9892927  55.5544543  95.5018524  24.2276390
  54.3643581  95.8603148  25.0919610  60.3462305  95.0272781  32.7967670
  61.1325394  94.6092205  32.4458087  60.6101009  95.9318874  32.9649318
  60.5172382 100.4645632  27.4956327  59.8818215 100.5380258  28.2077232
  60.1869788 101.0539231  26.8175406  65.7470732  94.9648015  33.7000649
  66.4795904  94.3947231  33.9338478  64.9910087  94.5769615  34.1407154
  55.0215311  97.9265109  27.1917302  54.9051569  97.2510012  27.8598386
  55.1317570  97.4397483  26.3749455  57.3646852  97.3875256  30.8963991
  57.0005059  96.8605877  31.6076912  58.2213967  96.9973725  30.7230476
  63.2696152  88.6769589  38.1595257  62.9379477  89.5465000  37.9356472
  62.6741766  88.3605873  38.8389288  57.0052338  92.4165156  25.8925340
  57.1726741  93.2845392  26.2595811  56.8149508  92.5792437  24.9686629
  59.7627672 100.8782135  37.5591170  59.4628395 101.7807173  37.4506977
  59.4178731 100.6114318  38.4112323  53.2140153  97.3295932  33.5927874
  52.2890650  97.1972146  33.8005566  53.4624566  98.1090151  34.0897817
  63.1624815  93.3964675  35.2388607  62.2541693  93.3280083  34.9447368
  63.1112411  93.8736620  36.0670433  56.9841559  94.8722813  26.8772006
  56.8641185  95.3179864  27.7157487  56.2894148  95.2208131  26.3185545
  50.5748964  96.9729205  34.4271663  50.7041345  97.2263684  35.3411075
  49.8946415  97.5656913  34.1076318  54.7448451 107.6426455  30.5262138
  54.6672481 108.5934280  30.6050618  54.1410095 107.2972328  31.1837064
  57.2365681  94.8154320  43.1823505  56.4599015  95.3748241  43.1726369
  57.8756244  95.3011103  43.7038375  65.0286462  91.5981113  37.0166481
  64.3860842  91.8913646  36.3706276  64.5241390  91.4834034  37.8219678
  62.6826626  95.3444286  27.7052340  63.5944482  95.5771673  27.5300038
  62.1736273  95.9281331  27.1427419  55.4912054  97.6239774  42.7441472
  56.2326738  98.1624818  42.4676295  54.7849039  98.2506063  42.9013023
  60.9667393  99.7668914  41.3413633  61.3750749  99.3251325  40.5968265
  60.2444655  99.1921542  41.5947826  57.3198463  94.7041521  38.7147190
  58.1659658  95.1280935  38.8581839  57.2597101  94.0475145  39.4085753
  61.2896208 100.3270105  35.0965922  60.6605070 100.4915819  34.3941990
  60.9021870 100.7411714  35.8676886  65.1685440 101.2624543  32.4510286
  64.4836478 101.6423444  31.9007319  65.2529289 101.8719869  33.1842233
  60.4697909  92.3645889  40.3728364  60.2258840  93.1187950  39.8362639
  60.7457839  92.7431237  41.2075611  62.4236371  98.9084502  39.0505629
  62.6353267  99.5516262  38.3740010  62.3766120  98.0746818  38.5827559
  60.0262600  91.5202322  35.9542201  59.1647079  91.8183576  36.2458939
  60.0525035  91.7372721  35.0223234  56.8424170 100.0644513  32.3616007
  57.3062515 100.3432216  31.5720629  56.5780968  99.1627958  32.1789098
  53.7348251  99.6115995  35.2995770  54.3049608 100.0403263  34.6613255
  54.3256363  99.3298579  35.9979956  55.7793056  96.1867665  29.1705572
  56.4817099  96.6388709  29.6379498  55.4473684  95.5451484  29.7985465
  54.2273417  94.7779422  43.5456781  53.5972078  95.4595703  43.7792178
  54.1209505  94.6662504  42.6009920  49.5218390  94.4451218  34.4722706
  48.7317444  94.7008747  33.9962816  50.0129637  95.2599556  34.5774746
  63.5382199 101.7856457  37.2227986  64.3599643 101.3836644  36.9410668
  63.5344602 101.6824691  38.1744102  51.4733135  94.8095797  31.4306182
  50.6764298  94.9214492  31.9489678  51.2458727  95.1482449  30.5647073
  57.3038803 101.3340500  39.3788697  57.3683235 101.7960908  40.2146869
  56.5949727 100.7037865  39.5071007  47.8056093  94.6981708  36.9037696
  48.0564131  95.5828718  37.1695272  48.3415641  94.5186310  36.1312788
  71.6288192  98.1295206  33.5712958  70.8751901  97.5602604  33.4156962
  71.7635734  98.0957870  34.5183593  57.0186820 103.0008608  29.2467677
  56.8832495 103.8460144  29.6752525  57.5596633 103.2027886  28.4833611
  53.5054160  89.0800188  45.9082033  53.1121106  88.5266386  46.5829677
  54.3220300  89.3910766  46.2988550  50.4716218 100.5184046  29.8195602
  50.9840738 101.3127296  29.9701167  51.1238931  99.8210336  29.7529204
  52.2811102 103.6349802  31.9018356  52.4577731 104.5567767  31.7139339
  53.0767936 103.3208222  32.3312735  56.4222121  90.4958067  43.5002289
  57.1631834  91.0965220  43.4206752  56.6540044  89.7535705  42.9420332
  51.5663459  95.6814434  41.7780519  51.4516974  94.7799691  42.0787618
  50.7107977  95.9278131  41.4265335  58.6455297 103.6232174  43.3768019
  58.2019151 102.8368553  43.0588924  59.3072510 103.8111325  42.7111910
  53.4042418 105.1527976  37.9028698  53.9549843 105.0245039  37.1305692
  52.5653894 105.4522865  37.5523591  60.7436535 103.9034974  41.4049421
  60.7255010 104.7243855  40.9129690  61.6656455 103.7789050  41.6299562
  57.2009589 101.4179104  42.2472929  57.7337926 100.6567392  42.0172237
  56.6723670 101.1252756  42.9897084  60.3679284  86.5239170  37.7766571
  60.0243553  87.4140812  37.7005681  60.7358247  86.3340828  36.9136156
  48.4365135  98.8472700  30.5955173  49.2740357  99.2569709  30.3788881
  48.6143402  97.9072142  30.5655367  60.3329567  96.5147781  26.2839006
  59.8176190  97.2852386  26.5227393  60.0606875  95.8412917  26.9072067
  57.9176678  91.3597482  31.3424244  57.0618274  90.9704332  31.1629883
  58.3303629  91.4389443  30.4824030  59.4475824  88.8943825  35.7415804
  58.9440620  88.8573960  34.9283609  59.7406431  89.8036568  35.8012461
  55.6918710  88.9782555  34.7481986  56.5571707  88.7825363  34.3887875
  55.7596219  88.7492907  35.6751343  65.3063841  99.2680136  28.2192179
  64.5293284  98.9291295  27.7747341  65.9855322  99.2732759  27.5447144
  60.1215870  94.3874873  28.1098787  59.8166005  94.7021022  28.9608930
  61.0746312  94.4656293  28.1526120  58.5662302 100.5465096  29.7591741
  58.0383663  99.8117856  29.4464979  58.0649804 101.3239773  29.5131709
  63.5455148  98.7414117  34.8758787  62.8878822  99.4313378  34.9638916
  64.3495547  99.1310549  35.2192774  53.2981029  91.2084763  32.1198353
  53.8724781  90.9859944  31.3871546  53.8852012  91.2773457  32.8726954
  62.3560607  97.0958490  32.9262729  62.8692488  97.7288481  33.4284439
  63.0061830  96.4959685  32.5606089  53.6250616  93.2389224  26.1394238
  52.7887929  93.5763910  26.4603513  53.4855386  93.1038203  25.2021375
  55.6003697  88.0826012  30.8473422  54.9468109  87.7675029  30.2230037
  55.5584171  87.4601752  31.5733245  56.7114902  98.3645307  22.7626714
  55.8041964  98.1334560  22.9617863  57.2085934  97.5682926  22.9500696
  59.6182981 107.0742814  25.6823400  58.9444680 107.3774511  26.2908358
  60.0048803 107.8771894  25.3328857  58.8341437  94.5707945  35.1721070
  57.9163999  94.7922892  35.0142758  59.2501581  94.6454256  34.3132777
  59.6176485  95.9699361  30.3023750  60.3648304  96.4820758  29.9930872
  59.8868075  95.6483414  31.1628143  57.8903135  98.4657902  27.2850704
  56.9814355  98.1816934  27.3823174  57.9198219  98.8856980  26.4254011
  63.1222403 102.0764491  31.0541872  62.6684730 101.2355401  31.1107062
  62.4916369 102.7125889  31.3916652  62.0655322  93.0056477  32.2842539
  61.3278079  92.4933863  32.6152782  62.3182096  92.5656859  31.4725816
  61.5655342 103.9140988  31.9891690  61.8578316 104.4746045  31.2704056
  62.0753963 104.2069549  32.7444849  62.1666950  85.7832729  32.8784308
  62.4725826  84.9230092  32.5910224  62.8919554  86.3750349  32.6783302
  48.4591306  96.1863416  31.2665906  48.2615706  95.5932776  30.5416973
  47.9037970  95.8815626  31.9841845  56.4388029  96.0786522  33.3860500
  56.4936639  95.1260359  33.3102976  55.6279231  96.2345961  33.8701798
  57.5879223 100.0066645  24.6238783  57.1498653  99.2902504  24.1644420
  58.3289664 100.2342760  24.0623874  54.3780389  94.6963582  31.1450878
  53.5648255  94.9957752  31.5516071  54.8739383  94.3019271  31.8625361
  56.5288967 104.6921339  33.0785143  56.4865146 104.9182185  32.1493675
  57.4451666 104.4584713  33.2270944  59.9754601  95.1605406  39.9765772
  60.3303989  95.3876879  40.8360238  60.6226732  95.4923783  39.3543028
  65.7052338  98.2823842  30.6815101  65.5670236  98.4725438  29.7536291
  65.3488557  99.0443225  31.1383152  53.8694464  92.2681937  36.7612113
  54.5093843  92.1270696  36.0635077  53.0371995  91.9816451  36.3850715
  54.6454768 101.5684368  32.8747106  55.4395366 101.0734688  32.6729681
  53.9346460 101.0402231  32.5114811  59.4649612 103.9502463  37.2259473
  59.5186635 104.5193400  37.9937189  58.5964394 104.1204348  36.8613511
  50.9537531  95.7127450  28.9506859  50.0235119  95.6511905  29.1676821
  51.0495003  95.1903402  28.1543500  50.8723080  92.2382262  31.5385100
  51.1329898  93.1527596  31.4294261  51.6940253  91.7706705  31.6881713
  52.3448006  93.6520020  38.7083925  53.0171059  93.4437382  38.0596574
  51.5177792  93.4542106  38.2689157  58.2473578  90.2781960  40.7249586
  57.6001493  90.9771910  40.6314062  59.0174593  90.7118104  41.0925834
  58.4237712  98.1162725  38.7846405  59.3529772  98.2673885  38.6115373
  58.0028742  98.2046746  37.9295052  57.2226044 102.1413390  36.5544943
  57.0837130 101.7732174  37.4270881  56.4340640 102.6561029  36.3828901
  57.8174196 107.2422486  27.8970479  57.9925952 106.7710529  28.7116102
  57.1306984 107.8688252  28.1251740  58.7731259 101.5194992  33.9433781
  58.4381092 101.4795762  34.8391431  58.2735205 100.8539708  33.4704191
  52.7475503  96.9262623  39.4686362  52.6095301  96.1942861  40.0697901
  53.6580427  96.8371523  39.1870550  61.7090451  98.8651027  24.2170840
  61.0919621  98.1397855  24.1203893  61.2406939  99.6260387  23.8737915
  55.3757804  96.6382582  38.9570042  56.0857422  95.9975774  38.9156660
  55.3327112  96.8895477  39.8796222  54.0886738  93.6247800  40.7765681
  53.5524095  93.1738538  41.4287277  53.5003446  93.7593709  40.0336145
  52.3835281 110.3911849  34.6710340  52.6231879 111.0230373  35.3489358
  51.5404478 110.0399889  34.9575699  53.4988997  93.0836451  23.3392145
  52.6218463  92.9625252  22.9754391  53.9746750  92.2922529  23.0871033
  63.3661990 101.5389519  40.1090600  62.4788768 101.2015441  40.2316999
  63.9360541 100.8072550  40.3459366  45.0191137  97.8713611  33.4333652
  45.7062177  97.5575341  32.8454667  44.8639265  98.7754976  33.1600903
  49.8225859  92.7603807  37.8618675  49.7384048  92.1529477  37.1269085
  49.0008565  93.2512826  37.8628172  56.8963143 106.1990971  37.0751844
  56.8233315 107.0045943  37.5871148  56.4540536 106.3982937  36.2499865
  56.6852923 105.4362741  30.5854665  55.9020445 105.9784422  30.6792890
  57.3845668 105.9536721  30.9848906  59.9949573  91.2457371  33.2288871
  60.4918272  90.4927333  32.9089941  59.2236554  91.2821688  32.6632080
  67.8479330  96.9497736  34.8707162  67.8369206  97.8322452  34.5001095
  66.9796710  96.5969287  34.6761699  59.3561827 106.0977805  39.2310002
  60.0689799 106.7325270  39.1585904  58.8651855 106.1941671  38.4150004
  61.0779353 100.0029058  30.8027294  60.1435632 100.1230521  30.6331998
  61.2556022  99.1001525  30.5387304  56.5784542  93.3874754  32.9560555
  56.2082329  92.8345794  33.6441461  57.0743634  92.7832887  32.4035555
  64.4651905  95.8446377  31.3377328  64.9312357  96.6774369  31.2637631
  64.9159405  95.3791359  32.0422587  54.4073740 103.8472249  40.0515573
  55.1083200 104.4808732  40.2044967  53.9368855 104.1886981  39.2911212
  62.5328136 102.1890199  28.3363480  62.8087980 102.0746793  29.2457354
  61.6632635 101.7907684  28.2975653  62.4368568  88.2126964  35.3768229
  61.5231647  88.4431191  35.5450436  62.8661669  88.2965409  36.2282262
  62.2075026  96.4016856  37.8768123  61.5546476  96.6492764  37.2220576
  62.5855406  95.5880995  37.5430601  59.1682200 106.4376550  31.9796294
  59.3504594 105.6198206  32.4424046  59.9915186 106.6544242  31.5421184
  59.5024365 105.3644735  29.2411342  60.0312132 104.8537189  28.6281504
  59.7652585 105.0487265  30.1056875  58.2562599  97.1436667  44.3634161
  57.5803236  97.0430797  45.0336536  59.0790233  96.9875881  44.8270158
  50.0041458 103.3808604  36.9846676  50.5894895 102.6352292  37.1174580
  49.8066297 103.6912561  37.8683340  52.8580113 106.4159851  32.0009118
  52.1890489 106.9005979  31.5173158  52.7192983 106.6629072  32.9152497
  44.5959113  95.9514204  35.7051119  44.6343212  95.4177795  36.4988237
  44.0899406  95.4249410  35.0862096  56.9985382 108.4503595  38.5991777
  57.5503690 108.6135216  39.3640862  57.3391575 109.0408033  37.9271801
  51.9749875  90.7978745  39.2013661  52.0391202  91.6593576  38.7891059
  51.9116995  90.1852746  38.4686020  51.4502148  92.8701877  42.8486695
  52.0774187  92.4878955  43.4624220  50.5930067  92.6516079  43.2142388
  61.8496256 103.2764852  44.4540431  62.3936160 103.8894811  43.9595386
  61.2683101 103.8344431  44.9707444  48.2267690  94.6778306  28.7805050
  48.5221132  93.7688985  28.7272104  47.3255726  94.6566046  28.4586053
  60.1353769 106.3985570  35.5855459  60.0104909 105.5975310  35.0766404
  60.7932860 106.8931764  35.0969429  51.7561937  92.7534303  34.7632599
  51.0348523  93.3670271  34.6240072  52.5455193  93.2892068  34.6849245
  62.1988678 104.1994591  37.2135009  61.2519013 104.0799942  37.1413335
  62.5471451 103.3117089  37.2961270  54.5588251  90.0888729  41.0373251
  55.0822653  90.3351026  41.7999560  54.3400584  90.9208764  40.6176388
  49.9555532  92.3592404  28.9044375  49.6268238  91.4789783  28.7219481
  50.3094903  92.3040073  29.7920765  59.2035111 103.9947307  33.4139361
  59.0560073 103.0664014  33.5946931  60.0288604 104.0167397  32.9296436
  53.0697355  92.6465374  29.2719853  53.4093428  93.1751295  28.5498461
  53.5169476  92.9845780  30.0478420  62.8069233 104.8175865  34.5004234
  63.7315780 104.6118727  34.3628685  62.6384536 104.5692267  35.4093575
  55.7640796  91.0302425  38.7222921  55.4237616  90.2310238  39.1243601
  55.0579802  91.3304135  38.1499754  56.4157268  88.1151737  37.1750244
  57.2383337  87.6412215  37.0529135  56.6595331  88.8942221  37.6748930
  55.0565502  91.1439995  27.4713146  55.7773865  91.5221248  26.9676863
  54.4330806  91.8628872  27.5748124  59.1996625  91.8485144  28.4071478
  59.4160240  92.7309782  28.1060306  58.7190692  91.4571358  27.6777120
  53.9395847  94.8070858  34.9842223  53.7940427  95.1211161  35.8766504
  53.4621050  95.4255758  34.4313121  55.7992230  91.7973406  35.0323112
  55.7853798  90.9014499  34.6955410  56.5164658  91.8044069  35.6661398
  57.6518360  92.2310746  37.0776240  57.3936138  93.1527816  37.0760570
  57.1203401  91.8341180  37.7676704  62.5964549 105.3361533  29.8566325
  62.7701427 104.7707955  29.1040178  63.0893440 106.1362428  29.6745815
  48.4141509  97.3476202  37.9229884  47.8694977  98.1236010  38.0550158
  49.2920859  97.6947006  37.7649005  55.2029125  90.6787786  30.3010683
  55.3245037  89.7504432  30.5001570  54.9131168  90.6926472  29.3888998
  58.0720316  88.3642696  33.4377402  58.0942013  88.4282029  32.4829382
  58.4888375  87.5247205  33.6317909  68.4503940  98.0997956  31.4756625
  68.8935086  97.3505281  31.0775748  67.5730450  98.0908092  31.0930357
  63.5839721 104.6528297  26.9563223  64.2790626 105.2734990  27.1750538
  63.9262872 103.8023649  27.2315601  49.2007531  96.4746098  40.8160041
  48.4589267  96.6228734  41.4024671  48.8800275  96.7354364  39.9526790
  65.4831145 102.1028003  28.4850554  66.0082469 102.4415276  27.7599874
  65.3953497 101.1675018  28.3013689  57.1451193 106.0162077  40.6140431
  57.4538320 105.7711223  41.4863130  57.9426675 106.2208715  40.1259301
  57.1671805 108.1699986  32.8445807  56.7276796 107.6776365  33.5378664
  57.9179922 107.6272954  32.6037883  49.6464144 104.3611527  32.8470435
  50.4722164 104.0615299  32.4669079  49.2958196 103.5919149  33.2960224
  54.6145677 103.7137995  34.9168109  53.9925687 103.0508700  34.6170337
  55.2850544 103.7399127  34.2341757  47.8472749 102.2797853  33.8059369
  47.0104658 101.8520028  33.6243370  47.8196395 102.4730297  34.7430160
  54.6870205  92.1919783  44.5100615  54.7358360  93.0681906  44.1278385
  55.2292719  91.6497176  43.9372258  54.1759184 102.2641919  28.3926570
  54.3247305 102.9477383  27.7393242  54.9825628 102.2447009  28.9076025
  56.9169493  92.9451156  41.2646974  56.0472803  93.2384722  40.9929562
  57.1528974  93.5291601  41.9854237  67.9936805  99.5703194  33.8679072
  68.8283696 100.0092998  34.0316633  68.1295934  99.0941847  33.0487318
  51.9311817  98.2907096  29.3987639  51.6857859  97.3869426  29.5967849
  52.1007732  98.2924247  28.4567117  59.6208527  89.1630773  38.7812394
  60.1390471  89.8991800  38.4558883  59.2663660  89.4694766  39.6159153
  51.2007465  94.0235454  26.8973800  50.5076710  94.0979809  26.2413836
  50.9559217  93.2595797  27.4195317  59.8721121  85.5831055  34.3013291
  60.1522875  84.9154244  34.9273717  60.6571728  85.7760151  33.7887955
  57.6754590 104.7590049  25.8638317  57.1028557 105.3780236  25.4108789
  58.2487384 105.3089411  26.3978239  63.7429980  94.0048689  38.0484866
  64.6947403  94.1046787  38.0697090  63.5733430  93.2126958  38.5582950
  61.7644359  91.0904272  38.2344267  61.1694291  91.3709285  37.5390755
  61.4794056  91.5798173  39.0061008  60.8951850 105.0427199  26.9946899
  61.8282523 104.9772761  27.1979775  60.8075063 105.8783466  26.5361432
  63.5239866 104.3593069  23.9550847  63.4453498 104.0252933  24.8486605
  64.3449533 104.8514837  23.9542319  58.0601388  96.0950862  23.2054370
  59.0060493  95.9657070  23.2742788  57.6815633  95.3565524  23.6823798
  66.3712546  94.0165852  37.2085449  65.8551595  93.2324309  37.0215378
  67.2552495  93.6884569  37.3731968  64.0323273  87.7606868  33.1681261
  63.8348094  87.4521956  34.0524593  64.6422979  88.4868507  33.2979191
  57.9440081 100.1468608  44.6655027  58.8643090 100.3247207  44.8595073
  57.9089664  99.2024653  44.5134726  56.2444306  94.0200838  23.1409255
  55.3375761  93.7233951  23.2171968  56.5220287  93.7230656  22.2743541
  47.1622246  95.3407202  33.5908301  46.8425030  94.4872510  33.2982675
  46.6155674  95.5555780  34.3466268  50.9402154  98.0569643  37.3077808
  51.1588163  98.9886750  37.3265841  51.3527927  97.6977617  38.0932612
  57.8606371  88.5637728  29.2953496  57.0507100  88.2184813  29.6708742
  58.5490788  88.2545272  29.8841108  59.7896920  87.6415775  30.9177793
  60.3427958  88.0611228  31.5767816  60.0267006  86.7151523  30.9600749
  55.8130019  93.6302848  46.6980557  55.7126746  94.5797205  46.6292648
  55.5951561  93.3021087  45.8256627  55.0143090  90.8787773  23.2821234
  55.8762254  91.2042672  23.5417051  55.1993434  90.0919269  22.7694300
  47.0310506  98.9610113  35.5601423  46.3373977  98.5464066  35.0471377
  47.7783497  99.0030650  34.9634842  63.1675727  89.7516300  30.4256457
  62.5874396  90.4101104  30.0434509  62.9011659  88.9293644  30.0143874
  61.6179293  89.1521358  32.6277777  62.1179071  89.2637892  31.8192096
  62.2614901  88.8482410  33.2678586  55.6761289  97.0599987  45.5145618
  55.1928371  97.8600347  45.7209507  55.7622228  97.0707932  44.5613062
  48.9447248  98.8928367  33.4367438  48.9217937  98.9916054  32.4849321
  49.2547885  99.7393518  33.7584604  51.6034626 100.9504522  37.5514052
  52.5577880 100.9188464  37.4843984  51.4047150 100.4895146  38.3664278
  52.1934008  99.5205638  40.1184850  53.0126897 100.0149717  40.1419687
  52.4670816  98.6037606  40.0902417  61.9500605  91.9116390  29.4812805
  61.0626460  92.1966041  29.2633000  62.3654594  91.7510154  28.6340082
  65.3015141  91.9362911  33.1967144  66.0775531  92.4259364  33.4691761
  64.5763275  92.3620965  33.6539014  67.7387699  92.6490530  34.2541085
  68.3332190  92.4086266  33.5434393  67.8114283  91.9297661  34.8814621
  49.9584855 106.4924141  34.5684250  49.8239323 105.7324542  34.0022248
  49.5416917 107.2165041  34.1013039  61.0943818 101.6761065  23.5760825
  61.7979668 101.8811067  24.1918481  60.3706467 102.2437827  23.8409909
  61.9241628  97.4270926  29.6963095  61.8676830  97.8839478  28.8570728
  62.4769971  96.6661611  29.5185938  65.7346434  93.2160658  30.5213215
  65.4783369  92.8157294  31.3521423  65.1099302  93.9304452  30.3963354
  70.0458772  95.9556731  33.0284506  69.4858330  96.0249921  33.8016068
  69.4402276  95.7797716  32.3084003  53.1153981 107.3893458  34.7802693
  52.9986365 108.3338891  34.6781383  52.2946427 107.0867020  35.1688492
  63.0030516 102.1143594  25.6259285  63.8376119 101.6824793  25.4436760
  62.8414858 101.9425608  26.5536180  62.6576408  98.6175707  26.9915625
  62.6025212  98.4519979  26.0504069  62.0322463  99.3251740  27.1477814
  47.4468923  93.8543772  40.8177047  48.0927786  93.3442726  41.3064272
  47.2386074  94.5912453  41.3920472  59.9722315 100.9224619  46.3169187
  60.8413475 101.0965272  45.9555822  59.4929066 101.7419036  46.1944917
  55.9672533  88.1183816  26.5700943  55.9551203  89.0625656  26.7269214
  56.8595955  87.9353962  26.2760404  54.1408495 108.0421720  37.9958621
  55.0435742 108.0745331  38.3125116  53.9145865 107.1122171  38.0104957
  55.8962097 106.7952707  34.6568700  54.9457728 106.7954568  34.5433072
  56.1994583 106.0485441  34.1404734  59.7824653  84.7126593  30.8246880
  59.0157048  84.1585080  30.9703562  60.1935358  84.7848462  31.6861031
  51.7866414  91.0011389  44.9152061  52.6497875  90.6448194  45.1255386
  51.2131824  90.6625284  45.6027465  71.6314791 112.6313245  35.7214462
  72.2693201 112.5119993  35.0177802  71.5135634 113.5794089  35.7802414
  68.4404497 112.5840673  35.6575987  68.1023008 112.4681738  34.7696522
  69.3094265 112.1831838  35.6376993  64.2991313 114.4376150  31.6472878
  63.7356178 114.3466087  30.8789165  64.1843708 113.6176054  32.1275370
  68.9224280 113.7375525  41.6162192  68.9112921 113.3428323  40.7442696
  69.0844919 113.0041598  42.2095964  61.8455745 115.9327341  34.4857098
  62.6377036 115.5918166  34.0703397  62.0852395 116.0422316  35.4059251
  69.8790871 118.1047117  26.9587343  69.2278851 118.6901198  26.5721356
  70.6735234 118.6353312  27.0182380  63.8046499 115.1936255  27.3574477
  64.5777375 114.6465242  27.2187353  64.1571897 116.0580504  27.5688938
  65.6431541 116.5212637  40.5641376  65.3521407 117.4258268  40.4488043
  66.2788525 116.5629164  41.2785446  66.5687748 113.8989485  37.1542736
  67.1651320 113.6745508  36.4399699  66.6262719 113.1574231  37.7568184
  66.1412776 111.3528921  24.9892927  66.3938297 110.8310442  24.2276390
  65.2037335 111.1895066  25.0919610  71.1856059 110.3564699  32.7967670
  71.9719148 109.9384122  32.4458087  71.4494763 111.2610791  32.9649318
  71.3566136 115.7937549  27.4956327  70.7211969 115.8672176  28.2077232
  71.0263543 116.3831148  26.8175406  76.5864486 110.2939932  33.7000649
  77.3189658 109.7239149  33.9338478  75.8303842 109.9061533  34.1407154
  65.8609065 113.2557027  27.1917302  65.7445323 112.5801930  27.8598386
  65.9711325 112.7689401  26.3749455  68.2040606 112.7167174  30.8963991
  67.8398813 112.1897795  31.6076912  69.0607722 112.3265643  30.7230476
  74.1089907 104.0061506  38.1595257  73.7773231 104.8756917  37.9356472
  73.5135520 103.6897790  38.8389288  67.8446093 107.7457073  25.8925340
  68.0120495 108.6137310  26.2595811  67.6543262 107.9084355  24.9686629
  70.6021426 116.2074052  37.5591170  70.3022149 117.1099091  37.4506977
  70.2572486 115.9406236  38.4112323  64.0533908 112.6587849  33.5927874
  63.1284404 112.5264063  33.8005566  64.3018321 113.4382068  34.0897817
  74.0018570 108.7256593  35.2388607  73.0935447 108.6572001  34.9447368
  73.9506166 109.2028537  36.0670433  67.8235314 110.2014731  26.8772006
  67.7034939 110.6471782  27.7157487  67.1287902 110.5500049  26.3185545
  61.4142719 112.3021123  34.4271663  61.5435100 112.5555602  35.3411075
  60.7340170 112.8948831  34.1076318  65.5842206 122.9718373  30.5262138
  65.5066236 123.9226198  30.6050618  64.9803850 122.6264245  31.1837064
  68.0759436 110.1446238  43.1823505  67.2992770 110.7040158  43.1726369
  68.7149999 110.6303021  43.7038375  75.8680216 106.9273031  37.0166481
  75.2254597 107.2205564  36.3706276  75.3635145 106.8125951  37.8219678
  73.5220380 110.6736204  27.7052340  74.4338236 110.9063591  27.5300038
  73.0130027 111.2573248  27.1427419  66.3305808 112.9531691  42.7441472
  67.0720492 113.4916735  42.4676295  65.6242794 113.5797980  42.9013023
  71.8061148 115.0960832  41.3413633  72.2144504 114.6543242  40.5968265
  71.0838409 114.5213459  41.5947826  68.1592218 110.0333439  38.7147190
  69.0053413 110.4572852  38.8581839  68.0990855 109.3767063  39.4085753
  72.1289962 115.6562023  35.0965922  71.4998825 115.8207737  34.3941990
  71.7415624 116.0703632  35.8676886  76.0079194 116.5916460  32.4510286
  75.3230232 116.9715362  31.9007319  76.0923044 117.2011787  33.1842233
  71.3091663 107.6937807  40.3728364  71.0652595 108.4479868  39.8362639
  71.5851594 108.0723155  41.2075611  73.2630126 114.2376419  39.0505629
  73.4747021 114.8808179  38.3740010  73.2159874 113.4038736  38.5827559
  70.8656355 106.8494240  35.9542201  70.0040834 107.1475494  36.2458939
  70.8918789 107.0664639  35.0223234  67.6817924 115.3936431  32.3616007
  68.1456270 115.6724134  31.5720629  67.4174722 114.4919875  32.1789098
  64.5742005 114.9407912  35.2995770  65.1443362 115.3695181  34.6613255
  65.1650117 114.6590497  35.9979956  66.6186810 111.5159583  29.1705572
  67.3210854 111.9680627  29.6379498  66.2867439 110.8743402  29.7985465
  65.0667172 110.1071340  43.5456781  64.4365832 110.7887621  43.7792178
  64.9603260 109.9954421  42.6009920  60.3612144 109.7743136  34.4722706
  59.5711198 110.0300664  33.9962816  60.8523392 110.5891474  34.5774746
  74.3775954 117.1148375  37.2227986  75.1993397 116.7128562  36.9410668
  74.3738357 117.0116609  38.1744102  62.3126890 110.1387715  31.4306182
  61.5158053 110.2506409  31.9489678  62.0852482 110.4774367  30.5647073
  68.1432557 116.6632418  39.3788697  68.2076990 117.1252825  40.2146869
  67.4343481 116.0329783  39.5071007  58.6449847 110.0273626  36.9037696
  58.8957886 110.9120636  37.1695272  59.1809396 109.8478228  36.1312788
  82.4681947 113.4587123  33.5712958  81.7145655 112.8894521  33.4156962
  82.6029488 113.4249788  34.5183593  67.8580575 118.3300526  29.2467677
  67.7226250 119.1752061  29.6752525  68.3990387 118.5319803  28.4833611
  61.3109972 115.8475964  29.8195602  61.8234493 116.6419214  29.9701167
  61.9632685 115.1502254  29.7529204  63.1204857 118.9641720  31.9018356
  63.2971485 119.8859685  31.7139339  63.9161690 118.6500139  32.3312735
  62.4057214 111.0106352  41.7780519  62.2910729 110.1091609  42.0787618
  61.5501731 111.2570049  41.4265335  69.4849051 118.9524092  43.3768019
  69.0412905 118.1660471  43.0588924  70.1466265 119.1403243  42.7111910
  64.2436172 120.4819894  37.9028698  64.7943598 120.3536957  37.1305692
  63.4047648 120.7814783  37.5523591  71.5830289 119.2326892  41.4049421
  71.5648765 120.0535773  40.9129690  72.5050209 119.1080967  41.6299562
  68.0403343 116.7471022  42.2472929  68.5731680 115.9859310  42.0172237
  67.5117425 116.4544673  42.9897084  59.2758889 114.1764618  30.5955173
  60.1134111 114.5861626  30.3788881  59.4537157 113.2364060  30.5655367
  71.1723321 111.8439699  26.2839006  70.6569945 112.6144303  26.5227393
  70.9000630 111.1704835  26.9072067  68.7570432 106.6889399  31.3424244
  67.9012029 106.2996250  31.1629883  69.1697384 106.7681360  30.4824030
  70.2869579 104.2235743  35.7415804  69.7834374 104.1865878  34.9283609
  70.5800186 105.1328485  35.8012461  66.5312465 104.3074472  34.7481986
  67.3965461 104.1117281  34.3887875  66.5989974 104.0784824  35.6751343
  76.1457595 114.5972053  28.2192179  75.3687038 114.2583213  27.7747341
  76.8249076 114.6024676  27.5447144  70.9609624 109.7166791  28.1098787
  70.6559760 110.0312940  28.9608930  71.9140066 109.7948211  28.1526120
  69.4056056 115.8757014  29.7591741  68.8777418 115.1409774  29.4464979
  68.9043559 116.6531690  29.5131709  74.3848902 114.0706035  34.8758787
  73.7272577 114.7605296  34.9638916  75.1889301 114.4602466  35.2192774
  64.1374784 106.5376680  32.1198353  64.7118536 106.3151862  31.3871546
  64.7245766 106.6065375  32.8726954  73.1954361 112.4250407  32.9262729
  73.7086243 113.0580399  33.4284439  73.8455585 111.8251603  32.5606089
  64.4644371 108.5681141  26.1394238  63.6281683 108.9055828  26.4603513
  64.3249141 108.4330121  25.2021375  66.4397452 103.4117929  30.8473422
  65.7861864 103.0966946  30.2230037  66.3977926 102.7893670  31.5733245
  67.5508656 113.6937224  22.7626714  66.6435718 113.4626478  22.9617863
  68.0479688 112.8974844  22.9500696  70.4576735 122.4034732  25.6823400
  69.7838434 122.7066428  26.2908358  70.8442557 123.2063812  25.3328857
  69.6735192 109.8999863  35.1721070  68.7557753 110.1214810  35.0142758
  70.0895335 109.9746173  34.3132777  70.4570240 111.2991278  30.3023750
  71.2042059 111.8112676  29.9930872  70.7261829 110.9775331  31.1628143
  68.7296890 113.7949819  27.2850704  67.8208109 113.5108852  27.3823174
  68.7591974 114.2148898  26.4254011  73.9616157 117.4056409  31.0541872
  73.5078484 116.5647319  31.1107062  73.3310124 118.0417807  31.3916652
  72.9049077 108.3348395  32.2842539  72.1671834 107.8225781  32.6152782
  73.1575850 107.8948776  31.4725816  72.4049096 119.2432905  31.9891690
  72.6972071 119.8037962  31.2704056  72.9147717 119.5361466  32.7444849
  73.0060704 101.1124647  32.8784308  73.3119581 100.2522010  32.5910224
  73.7313309 101.7042267  32.6783302  59.2985060 111.5155333  31.2665906
  59.1009460 110.9224694  30.5416973  58.7431724 111.2107544  31.9841845
  67.2781784 111.4078440  33.3860500  67.3330394 110.4552276  33.3102976
  66.4672986 111.5637879  33.8701798  68.4272978 115.3358563  24.6238783
  67.9892408 114.6194422  24.1644420  69.1683418 115.5634678  24.0623874
  65.2174144 110.0255500  31.1450878  64.4042009 110.3249670  31.5516071
  65.7133138 109.6311188  31.8625361  67.3682722 120.0213256  33.0785143
  67.3258900 120.2474103  32.1493675  68.2845421 119.7876631  33.2270944
  70.8148355 110.4897324  39.9765772  71.1697743 110.7168797  40.8360238
  71.4620487 110.8215701  39.3543028  76.5446092 113.6115760  30.6815101
  76.4063991 113.8017356  29.7536291  76.1882311 114.3735143  31.1383152
  64.7088219 107.5973855  36.7612113  65.3487598 107.4562614  36.0635077
  63.8765749 107.3108368  36.3850715  76.5715472 115.6792287  35.6926373
  77.0051979 115.5867576  36.5409427  77.2847053 115.6549787  35.0546389
  65.4848522 116.8976285  32.8747106  66.2789121 116.4026606  32.6729681
  64.7740215 116.3694149  32.5114811  70.3043367 119.2794381  37.2259473
  70.3580389 119.8485317  37.9937189  69.4358148 119.4496266  36.8613511
  61.7931286 111.0419367  28.9506859  60.8628874 110.9803823  29.1676821
  61.8888758 110.5195320  28.1543500  61.7116835 107.5674180  31.5385100
  61.9723652 108.4819513  31.4294261  62.5334007 107.0998623  31.6881713
  63.1841760 108.9811937  38.7083925  63.8564814 108.7729299  38.0596574
  62.3571547 108.7834023  38.2689157  77.4331022 115.7215988  38.2259258
  77.6266912 116.6261798  38.4718533  77.3331640 115.2623407  39.0597843
  69.0867332 105.6073878  40.7249586  68.4395247 106.3063828  40.6314062
  69.8568348 106.0410022  41.0925834  72.4946130 115.8722730  43.8000139
  72.3431637 115.6433282  42.8830223  72.4850810 116.8293332  43.8131484
  69.2631467 113.4454643  38.7846405  70.1923527 113.5965803  38.6115373
  68.8422497 113.5338664  37.9295052  68.0619798 117.4705307  36.5544943
  67.9230884 117.1024092  37.4270881  67.2734395 117.9852947  36.3828901
  68.6567950 122.5714404  27.8970479  68.8319706 122.1002447  28.7116102
  67.9700738 123.1980170  28.1251740  69.6125014 116.8486910  33.9433781
  69.2774846 116.8087680  34.8391431  69.1128959 116.1831626  33.4704191
  63.5869258 112.2554540  39.4686362  63.4489055 111.5234779  40.0697901
  64.4974181 112.1663440  39.1870550  72.5484205 114.1942945  24.2170840
  71.9313376 113.4689773  24.1203893  72.0800694 114.9552305  23.8737915
  66.2151558 111.9674500  38.9570042  66.9251177 111.3267692  38.9156660
  66.1720866 112.2187394  39.8796222  74.2038337 118.9041853  41.8776621
  74.1450883 118.2201073  41.2107204  74.6057855 119.6460843  41.4257247
  64.9280492 108.9539717  40.7765681  64.3917849 108.5030456  41.4287277
  64.3397201 109.0885626  40.0336145  63.2229036 125.7203767  34.6710340
  63.4625634 126.3522291  35.3489358  62.3798232 125.3691807  34.9575699
  64.3382751 108.4128369  23.3392145  63.4612217 108.2917170  22.9754391
  64.8140504 107.6214447  23.0871033  74.2055744 116.8681437  40.1090600
  73.3182523 116.5307359  40.2316999  74.7754295 116.1364468  40.3459366
  55.8584891 113.2005529  33.4333652  56.5455931 112.8867259  32.8454667
  55.7033020 114.1046893  33.1600903  60.6619613 108.0895725  37.8618675
  60.5777802 107.4821395  37.1269085  59.8402320 108.5804743  37.8628172
  67.7356898 121.5282889  37.0751844  67.6627069 122.3337861  37.5871148
  67.2934291 121.7274855  36.2499865  67.5246677 120.7654659  30.5854665
  66.7414199 121.3076339  30.6792890  68.2239422 121.2828639  30.9848906
  70.8343327 106.5749289  33.2288871  71.3312027 105.8219251  32.9089941
  70.0630309 106.6113605  32.6632080  78.6873085 112.2789654  34.8707162
  78.6762961 113.1614370  34.5001095  77.8190464 111.9261205  34.6761699
  70.1955581 121.4269723  39.2310002  70.9083553 122.0617188  39.1585904
  69.7045610 121.5233589  38.4150004  71.9173108 115.3320976  30.8027294
  70.9829387 115.4522438  30.6331998  72.0949776 114.4293443  30.5387304
  67.4178296 108.7166672  32.9560555  67.0476084 108.1637712  33.6441461
  67.9137388 108.1124805  32.4035555  75.3045659 111.1738295  31.3377328
  75.7706112 112.0066287  31.2637631  75.7553160 110.7083277  32.0422587
  65.2467495 119.1764167  40.0515573  65.9476954 119.8100650  40.2044967
  64.7762610 119.5178898  39.2911212  73.3721890 117.5182116  28.3363480
  73.6481734 117.4038711  29.2457354  72.5026389 117.1199601  28.2975653
  73.2762322 103.5418882  35.3768229  72.3625402 103.7723109  35.5450436
  73.7055424 103.6257326  36.2282262  73.0468781 111.7308774  37.8768123
  72.3940231 111.9784682  37.2220576  73.4249160 110.9172912  37.5430601
  70.0075954 121.7668467  31.9796294  70.1898349 120.9490123  32.4424046
  70.8308940 121.9836160  31.5421184  70.3418120 120.6936652  29.2411342
  70.8705886 120.1829107  28.6281504  70.6046340 120.3779183  30.1056875
  69.0956354 112.4728585  44.3634161  68.4196991 112.3722714  45.0336536
  69.9183987 112.3167799  44.8270158  60.8435213 118.7100522  36.9846676
  61.4288649 117.9644210  37.1174580  60.6460051 119.0204478  37.8683340
  63.6973868 121.7451769  32.0009118  63.0284243 122.2297897  31.5173158
  63.5586738 121.9920990  32.9152497  55.4352867 111.2806122  35.7051119
  55.4736967 110.7469713  36.4988237  54.9293160 110.7541327  35.0862096
  67.8379136 123.7795513  38.5991777  68.3897444 123.9427134  39.3640862
  68.1785330 124.3699950  37.9271801  62.8143630 106.1270662  39.2013661
  62.8784956 106.9885493  38.7891059  62.7510750 105.5144664  38.4686020
  62.2895902 108.1993795  42.8486695  62.9167941 107.8170872  43.4624220
  61.4323821 107.9807997  43.2142388  72.6890011 118.6056770  44.4540431
  73.2329915 119.2186728  43.9595386  72.1076856 119.1636349  44.9707444
  59.0661445 110.0070224  28.7805050  59.3614886 109.0980902  28.7272104
  58.1649481 109.9857964  28.4586053  70.9747524 121.7277488  35.5855459
  70.8498663 120.9267228  35.0766404  71.6326615 122.2223681  35.0969429
  62.5955692 108.0826221  34.7632599  61.8742278 108.6962188  34.6240072
  63.3848948 108.6183985  34.6849245  73.0382432 119.5286508  37.2135009
  72.0912768 119.4091859  37.1413335  73.3865205 118.6409006  37.2961270
  65.3982005 105.4180647  41.0373251  65.9216407 105.6642944  41.7999560
  65.1794339 106.2500682  40.6176388  60.7949287 107.6884322  28.9044375
  60.4661993 106.8081701  28.7219481  61.1488657 107.6331990  29.7920765
  70.0428865 119.3239224  33.4139361  69.8953828 118.3955932  33.5946931
  70.8682359 119.3459315  32.9296436  63.9091110 107.9757292  29.2719853
  64.2487182 108.5043213  28.5498461  64.3563230 108.3137698  30.0478420
  73.6462987 120.1467783  34.5004234  74.5709535 119.9410644  34.3628685
  73.4778291 119.8984184  35.4093575  66.6034551 106.3594342  38.7222921
  66.2631371 105.5602155  39.1243601  65.8973557 106.6596053  38.1499754
  65.8959257 106.4731913  27.4713146  66.6167619 106.8513166  26.9676863
  65.2724561 107.1920790  27.5748124  70.0390380 107.1777062  28.4071478
  70.2553994 108.0601700  28.1060306  69.5584447 106.7863275  27.6777120
  64.7789601 110.1362775  34.9842223  64.6334182 110.4503078  35.8766504
  64.3014805 110.7547676  34.4313121  66.6385984 107.1265323  35.0323112
  66.6247553 106.2306417  34.6955410  67.3558412 107.1335987  35.6661398
  68.4912115 107.5602663  37.0776240  68.2329893 108.4819734  37.0760570
  67.9597155 107.1633098  37.7676704  73.4358303 120.6653451  29.8566325
  73.6095181 120.0999873  29.1040178  73.9287195 121.4654345  29.6745815
  59.2535263 112.6768120  37.9229884  58.7088731 113.4527928  38.0550158
  60.1314613 113.0238924  37.7649005  66.0422880 106.0079704  30.3010683
  66.1638791 105.0796350  30.5001570  65.7524922 106.0218390  29.3888998
  68.9114070 103.6934614  33.4377402  68.9335767 103.7573947  32.4829382
  69.3282129 102.8539123  33.6317909  79.2897695 113.4289874  31.4756625
  79.7328841 112.6797199  31.0775748  78.4124205 113.4200010  31.0930357
  74.4233476 119.9820215  26.9563223  75.1184381 120.6026908  27.1750538
  74.7656626 119.1315566  27.2315601  60.0401285 111.8038016  40.8160041
  59.2983021 111.9520651  41.4024671  59.7194029 112.0646282  39.9526790
  76.3224899 117.4319921  28.4850554  76.8476223 117.7707193  27.7599874
  76.2347252 116.4966936  28.3013689  67.9844948 121.3453994  40.6140431
  68.2932074 121.1003141  41.4863130  68.7820430 121.5500633  40.1259301
  68.0065560 123.4991904  32.8445807  67.5670550 123.0068283  33.5378664
  68.7573677 122.9564871  32.6037883  60.4857899 119.6903445  32.8470435
  61.3115919 119.3907217  32.4669079  60.1351951 118.9211067  33.2960224
  65.4539432 119.0429913  34.9168109  64.8319441 118.3800618  34.6170337
  66.1244299 119.0691045  34.2341757  58.6866504 117.6089771  33.8059369
  57.8498412 117.1811945  33.6243370  58.6590149 117.8022214  34.7430160
  76.0118805 118.0652824  43.7901752  75.2214349 118.0476963  43.2506252
  75.7752160 118.6041118  44.5450789  76.1316680 114.9145291  41.1034481
  76.1814685 114.7495298  42.0450004  76.0230604 114.0472550  40.7132361
  65.0152939 117.5933836  28.3926570  65.1641059 118.2769301  27.7393242
  65.8219382 117.5738926  28.9076025  73.4220443 110.8976219  42.4193787
  74.3230305 110.7582683  42.1277785  73.4968417 111.0630673  43.3591965
  67.7563248 108.2743073  41.2646974  66.8866557 108.5676639  40.9929562
  67.9922728 108.8583518  41.9854237  77.6334877 117.3342232  41.3476502
  77.3419685 117.6972213  42.1839963  77.0207008 116.6209240  41.1689834
  78.8330559 114.8995112  33.8679072  79.6677451 115.3384916  34.0316633
  78.9689688 114.4233765  33.0487318  75.8822065 112.4574847  39.8156560
  76.3576187 112.6502493  39.0075412  74.9587631 112.5134033  39.5699944
  62.7705572 113.6199014  29.3987639  62.5251614 112.7161344  29.5967849
  62.9401486 113.6216164  28.4567117  70.4602282 104.4922690  38.7812394
  70.9784226 105.2283717  38.4558883  70.1057415 104.7986684  39.6159153
  62.0401219 109.3527371  26.8973800  61.3470464 109.4271726  26.2413836
  61.7952971 108.5887715  27.4195317  70.7114876 100.9122973  34.3013291
  70.9916630 100.2446162  34.9273717  71.4965483 101.1052068  33.7887955
  68.5148344 120.0881967  25.8638317  67.9422311 120.7072154  25.4108789
  69.0881138 120.6381328  26.3978239  74.5823734 109.3340607  38.0484866
  75.5341157 109.4338704  38.0697090  74.4127185 108.5418875  38.5582950
  72.6038114 106.4196190  38.2344267  72.0088046 106.7001203  37.5390755
  72.3187810 106.9090091  39.0061008  71.7345604 120.3719117  26.9946899
  72.6676277 120.3064679  27.1979775  71.6468817 121.2075384  26.5361432
  74.3633621 119.6884987  23.9550847  74.2847252 119.3544851  24.8486605
  75.1843288 120.1806755  23.9542319  77.0611812 112.5546726  37.1627165
  77.0288132 111.6162727  37.3486849  77.6712436 112.6330763  36.4292990
  68.8995143 111.4242779  23.2054370  69.8454248 111.2948988  23.2742788
  68.5209388 110.6857441  23.6823798  77.2106301 109.3457770  37.2085449
  76.6945349 108.5616227  37.0215378  78.0946249 109.0176487  37.3731968
  74.8717027 103.0898785  33.1681261  74.6741849 102.7813874  34.0524593
  75.4816733 103.8160424  33.2979191  82.8788362 113.6162733  36.3033202
  83.6091750 113.3548021  36.8640906  82.2695307 112.8791455  36.3435270
  80.9603659 111.7570596  36.9007653  80.2336823 111.6226561  36.2924145
  80.5450946 112.0647425  37.7064372  68.7833835 115.4760526  44.6655027
  69.7036845 115.6539125  44.8595073  68.7483418 114.5316571  44.5134726
  67.0838060 109.3492756  23.1409255  66.1769515 109.0525869  23.2171968
  67.3614041 109.0522574  22.2743541  58.0016000 110.6699119  33.5908301
  57.6818785 109.8164427  33.2982675  57.4549429 110.8847697  34.3466268
  61.7795908 113.3861560  37.3077808  61.9981918 114.3178668  37.3265841
  62.1921682 113.0269535  38.0932612  68.7000126 103.8929646  29.2953496
  67.8900854 103.5476731  29.6708742  69.3884543 103.5837189  29.8841108
  70.6290674 102.9707692  30.9177793  71.1821713 103.3903146  31.5767816
  70.8660760 102.0443440  30.9600749  66.6523773 108.9594766  46.6980557
  66.5520500 109.9089123  46.6292648  66.4345315 108.6313005  45.8256627
  65.8536845 106.2079691  23.2821234  66.7156009 106.5334589  23.5417051
  66.0387189 105.4211187  22.7694300  57.8704260 114.2902031  35.5601423
  57.1767732 113.8755984  35.0471377  58.6177251 114.3322567  34.9634842
  74.0069481 105.0808218  30.4256457  73.4268150 105.7393022  30.0434509
  73.7405414 104.2585562  30.0143874  72.4573048 104.4813275  32.6277777
  72.9572826 104.5929810  31.8192096  73.1008655 104.1774328  33.2678586
  66.5155043 112.3891905  45.5145618  66.0322125 113.1892265  45.7209507
  66.6015982 112.3999850  44.5613062  59.7841003 114.2220285  33.4367438
  59.7611691 114.3207972  32.4849321  60.0941639 115.0685435  33.7584604
  62.4428381 116.2796440  37.5514052  63.3971634 116.2480382  37.4843984
  62.2440904 115.8187063  38.3664278  63.0327763 114.8497556  40.1184850
  63.8520652 115.3441634  40.1419687  63.3064571 113.9329524  40.0902417
  72.7894359 107.2408308  29.4812805  71.9020214 107.5257959  29.2633000
  73.2048348 107.0802071  28.6340082  76.1408895 107.2654829  33.1967144
  76.9169285 107.7551281  33.4691761  75.4157029 107.6912883  33.6539014
  78.5781454 107.9782448  34.2541085  79.1725945 107.7378184  33.5434393
  78.6508038 107.2589579  34.8814621  60.7978610 121.8216059  34.5684250
  60.6633078 121.0616460  34.0022248  60.3810672 122.5456959  34.1013039
  71.9337573 117.0052983  23.5760825  72.6373423 117.2102985  24.1918481
  71.2100221 117.5729744  23.8409909  72.7635383 112.7562844  29.6963095
  72.7070584 113.2131395  28.8570728  73.3163725 111.9953528  29.5185938
  76.5740189 108.5452576  30.5213215  76.3177123 108.1449211  31.3521423
  75.9493057 109.2596370  30.3963354  80.8852527 111.2848649  33.0284506
  80.3252085 111.3541838  33.8016068  80.2796030 111.1089634  32.3084003
  63.9547736 122.7185376  34.7802693  63.8380120 123.6630809  34.6781383
  63.1340182 122.4158938  35.1688492  73.8424270 117.4435512  25.6259285
  74.6769874 117.0116710  25.4436760  73.6808613 117.2717525  26.5536180
  73.4970162 113.9467625  26.9915625  73.4418966 113.7811897  26.0504069
  72.8716218 114.6543658  27.1477814  58.2862677 109.1835689  40.8177047
  58.9321541 108.6734643  41.3064272  58.0779828 109.9204371  41.3920472
  70.8116069 116.2516537  46.3169187  71.6807229 116.4257189  45.9555822
  70.3322821 117.0710954  46.1944917  66.8066288 103.4475734  26.5700943
  66.7944958 104.3917574  26.7269214  67.6989710 103.2645879  26.2760404
  64.9802250 123.3713638  37.9958621  65.8829496 123.4037248  38.3125116
  64.7539620 122.4414089  38.0104957  66.7355852 122.1244624  34.6568700
  65.7851483 122.1246486  34.5433072  67.0388338 121.3777359  34.1404734
  70.6218407 100.0418511  30.8246880  69.8550803  99.4876997  30.9703562
  71.0329112 100.1140379  31.6861031  82.4708545 127.9605163  35.7214462
  83.1086955 127.8411910  35.0177802  82.3529388 128.9086007  35.7802414
  79.2798251 127.9132591  35.6575987  78.9416763 127.7973656  34.7696522
  80.1488020 127.5123756  35.6376993  75.1385067 129.7668067  31.6472878
  74.5749932 129.6758004  30.8789165  75.0237462 128.9467972  32.1275370
  79.7618034 129.0667443  41.6162192  79.7506675 128.6720241  40.7442696
  79.9238674 128.3333515  42.2095964  72.6849499 131.2619259  34.4857098
  73.4770791 130.9210084  34.0703397  72.9246149 131.3714234  35.4059251
  80.7184626 133.4339035  26.9587343  80.0672606 134.0193116  26.5721356
  81.5128989 133.9645230  27.0182380  74.6440253 130.5228172  27.3574477
  75.4171129 129.9757159  27.2187353  74.9965652 131.3872422  27.5688938
  76.4825296 131.8504555  40.5641376  76.1915162 132.7550185  40.4488043
  77.1182280 131.8921082  41.2785446  77.4081502 129.2281403  37.1542736
  78.0045075 129.0037425  36.4399699  77.4656474 128.4866149  37.7568184
  76.9806531 126.6820838  24.9892927  77.2332051 126.1602360  24.2276390
  76.0431090 126.5186984  25.0919610  82.0249814 125.6856617  32.7967670
  82.8112903 125.2676040  32.4458087  82.2888518 126.5902709  32.9649318
  82.1959891 131.1229467  27.4956327  81.5605724 131.1964094  28.2077232
  81.8657297 131.7123066  26.8175406  87.4258241 125.6231850  33.7000649
  88.1583413 125.0531067  33.9338478  86.6697596 125.2353450  34.1407154
  76.7002820 128.5848944  27.1917302  76.5839078 127.9093848  27.8598386
  76.8105079 128.0981318  26.3749455  79.0434360 128.0459091  30.8963991
  78.6792568 127.5189712  31.6076912  79.9001476 127.6557560  30.7230476
  84.9483661 119.3353424  38.1595257  84.6166986 120.2048835  37.9356472
  84.3529275 119.0189708  38.8389288  78.6839847 123.0748991  25.8925340
  78.8514250 123.9429228  26.2595811  78.4937017 123.2376273  24.9686629
  81.4415181 131.5365970  37.5591170  81.1415904 132.4391009  37.4506977
  81.0966240 131.2698153  38.4112323  74.8927662 127.9879767  33.5927874
  73.9678159 127.8555981  33.8005566  75.1412075 128.7673986  34.0897817
  84.8412324 124.0548510  35.2388607  83.9329202 123.9863919  34.9447368
  84.7899920 124.5320455  36.0670433  78.6629068 125.5306649  26.8772006
  78.5428694 125.9763699  27.7157487  77.9681657 125.8791966  26.3185545
  72.2536473 127.6313040  34.4271663  72.3828854 127.8847519  35.3411075
  71.5733924 128.2240748  34.1076318  76.4235960 138.3010290  30.5262138
  76.3459990 139.2518115  30.6050618  75.8197604 137.9556163  31.1837064
  78.9153190 125.4738156  43.1823505  78.1386524 126.0332076  43.1726369
  79.5543753 125.9594939  43.7038375  86.7073971 122.2564949  37.0166481
  86.0648351 122.5497482  36.3706276  86.2028899 122.1417869  37.8219678
  84.3614134 126.0028122  27.7052340  85.2731991 126.2355509  27.5300038
  83.8523782 126.5865166  27.1427419  77.1699563 128.2823609  42.7441472
  77.9114247 128.8208653  42.4676295  76.4636548 128.9089898  42.9013023
  82.6454902 130.4252750  41.3413633  83.0538258 129.9835160  40.5968265
  81.9232164 129.8505377  41.5947826  78.9985972 125.3625356  38.7147190
  79.8447167 125.7864770  38.8581839  78.9384610 124.7058981  39.4085753
  82.9683717 130.9853940  35.0965922  82.3392579 131.1499654  34.3941990
  82.5809379 131.3995550  35.8676886  86.8472949 131.9208378  32.4510286
  86.1623987 132.3007279  31.9007319  86.9316798 132.5303705  33.1842233
  82.1485418 123.0229725  40.3728364  81.9046349 123.7771785  39.8362639
  82.4245348 123.4015072  41.2075611  84.1023880 129.5668337  39.0505629
  84.3140776 130.2100097  38.3740010  84.0553629 128.7330654  38.5827559
  81.7050109 122.1786158  35.9542201  80.8434588 122.4767411  36.2458939
  81.7312544 122.3956557  35.0223234  78.5211679 130.7228348  32.3616007
  78.9850024 131.0016051  31.5720629  78.2568477 129.8211793  32.1789098
  75.4135760 130.2699830  35.2995770  75.9837117 130.6987098  34.6613255
  76.0043872 129.9882415  35.9979956  77.4580565 126.8451501  29.1705572
  78.1604608 127.2972544  29.6379498  77.1261193 126.2035320  29.7985465
  75.9060926 125.4363257  43.5456781  75.2759587 126.1179538  43.7792178
  75.7997014 125.3246339  42.6009920  71.2005899 125.1035053  34.4722706
  70.4104953 125.3592582  33.9962816  71.6917146 125.9183391  34.5774746
  85.2169708 132.4440293  37.2227986  86.0387152 132.0420480  36.9410668
  85.2132111 132.3408527  38.1744102  73.1520644 125.4679633  31.4306182
  72.3551807 125.5798327  31.9489678  72.9246236 125.8066285  30.5647073
  78.9826312 131.9924336  39.3788697  79.0470744 132.4544743  40.2146869
  78.2737236 131.3621701  39.5071007  69.4843602 125.3565544  36.9037696
  69.7351640 126.2412554  37.1695272  70.0203150 125.1770145  36.1312788
  93.3075701 128.7879041  33.5712958  92.5539410 128.2186439  33.4156962
  93.4423243 128.7541706  34.5183593  78.6974329 133.6592443  29.2467677
  78.5620004 134.5043979  29.6752525  79.2384142 133.8611721  28.4833611
  75.1841669 119.7384023  45.9082033  74.7908615 119.1850222  46.5829677
  76.0007809 120.0494602  46.2988550  72.1503727 131.1767881  29.8195602
  72.6628247 131.9711132  29.9701167  72.8026440 130.4794172  29.7529204
  73.9598611 134.2933638  31.9018356  74.1365240 135.2151602  31.7139339
  74.7555445 133.9792057  32.3312735  78.1009630 121.1541902  43.5002289
  78.8419343 121.7549055  43.4206752  78.3327553 120.4119540  42.9420332
  73.2450968 126.3398270  41.7780519  73.1304483 125.4383527  42.0787618
  72.3895486 126.5861966  41.4265335  80.3242806 134.2816010  43.3768019
  79.8806660 133.4952388  43.0588924  80.9860019 134.4695160  42.7111910
  75.0829927 135.8111811  37.9028698  75.6337352 135.6828875  37.1305692
  74.2441403 136.1106700  37.5523591  82.4224044 134.5618810  41.4049421
  82.4042519 135.3827691  40.9129690  83.3443964 134.4372885  41.6299562
  78.8797098 132.0762939  42.2472929  79.4125435 131.3151227  42.0172237
  78.3511179 131.7836591  42.9897084  82.0466793 117.1823005  37.7766571
  81.7031062 118.0724647  37.7005681  82.4145756 116.9924663  36.9136156
  70.1152644 129.5056536  30.5955173  70.9527866 129.9153544  30.3788881
  70.2930911 128.5655978  30.5655367  82.0117076 127.1731616  26.2839006
  81.4963699 127.9436221  26.5227393  81.7394384 126.4996752  26.9072067
  79.5964187 122.0181317  31.3424244  78.7405783 121.6288167  31.1629883
  80.0091138 122.0973278  30.4824030  81.1263333 119.5527660  35.7415804
  80.6228129 119.5157796  34.9283609  81.4193940 120.4620403  35.8012461
  77.3706219 119.6366390  34.7481986  78.2359216 119.4409199  34.3887875
  77.4383728 119.4076742  35.6751343  86.9851350 129.9263971  28.2192179
  86.2080793 129.5875130  27.7747341  87.6642831 129.9316594  27.5447144
  81.8003379 125.0458708  28.1098787  81.4953514 125.3604858  28.9608930
  82.7533821 125.1240128  28.1526120  80.2449811 131.2048932  29.7591741
  79.7171172 130.4701691  29.4464979  79.7437313 131.9823608  29.5131709
  85.2242657 129.3997952  34.8758787  84.5666331 130.0897214  34.9638916
  86.0283056 129.7894384  35.2192774  74.9768538 121.8668598  32.1198353
  75.5512290 121.6443780  31.3871546  75.5639521 121.9357293  32.8726954
  84.0348115 127.7542325  32.9262729  84.5479997 128.3872317  33.4284439
  84.6849339 127.1543520  32.5606089  75.3038125 123.8973059  26.1394238
  74.4675438 124.2347746  26.4603513  75.1642895 123.7622039  25.2021375
  77.2791206 118.7409847  30.8473422  76.6255618 118.4258864  30.2230037
  77.2371680 118.1185587  31.5733245  78.3902411 129.0229142  22.7626714
  77.4829473 128.7918395  22.9617863  78.8873443 128.2266761  22.9500696
  81.2970490 137.7326649  25.6823400  80.6232188 138.0358346  26.2908358
  81.6836312 138.5355730  25.3328857  80.5128946 125.2291780  35.1721070
  79.5951508 125.4506727  35.0142758  80.9289090 125.3038091  34.3132777
  81.2963994 126.6283196  30.3023750  82.0435813 127.1404593  29.9930872
  81.5655584 126.3067249  31.1628143  79.5690644 129.1241737  27.2850704
  78.6601864 128.8400770  27.3823174  79.5985728 129.5440815  26.4254011
  84.8009912 132.7348326  31.0541872  84.3472239 131.8939236  31.1107062
  84.1703878 133.3709725  31.3916652  83.7442831 123.6640312  32.2842539
  83.0065588 123.1517699  32.6152782  83.9969605 123.2240694  31.4725816
  83.2442851 134.5724823  31.9891690  83.5365825 135.1329880  31.2704056
  83.7541472 134.8653384  32.7444849  83.8454459 116.4416564  32.8784308
  84.1513335 115.5813928  32.5910224  84.5707063 117.0334185  32.6783302
  70.1378815 126.8447251  31.2665906  69.9403214 126.2516612  30.5416973
  69.5825479 126.5399461  31.9841845  78.1175538 126.7370357  33.3860500
  78.1724148 125.7844194  33.3102976  77.3066740 126.8929797  33.8701798
  79.2666732 130.6650481  24.6238783  78.8286162 129.9486339  24.1644420
  80.0077173 130.8926595  24.0623874  76.0567898 125.3547417  31.1450878
  75.2435764 125.6541588  31.5516071  76.5526892 124.9603106  31.8625361
  78.2076476 135.3505174  33.0785143  78.1652655 135.5766020  32.1493675
  79.1239175 135.1168549  33.2270944  81.6542110 125.8189242  39.9765772
  82.0091498 126.0460715  40.8360238  82.3014241 126.1507618  39.3543028
  87.3839847 128.9407678  30.6815101  87.2457745 129.1309274  29.7536291
  87.0276066 129.7027060  31.1383152  75.5481973 122.9265773  36.7612113
  76.1881352 122.7854532  36.0635077  74.7159504 122.6400286  36.3850715
  87.4109226 131.0084205  35.6926373  87.8445733 130.9159494  36.5409427
  88.1240807 130.9841705  35.0546389  76.3242277 132.2268203  32.8747106
  77.1182875 131.7318523  32.6729681  75.6133969 131.6986066  32.5114811
  81.1437121 134.6086299  37.2259473  81.1974144 135.1777235  37.9937189
  80.2751903 134.7788184  36.8613511  72.6325040 126.3711285  28.9506859
  71.7022628 126.3095740  29.1676821  72.7282512 125.8487238  28.1543500
  72.5510589 122.8966098  31.5385100  72.8117407 123.8111431  31.4294261
  73.3727762 122.4290540  31.6881713  74.0235515 124.3103855  38.7083925
  74.6958568 124.1021217  38.0596574  73.1965301 124.1125941  38.2689157
  88.2724776 131.0507905  38.2259258  88.4660666 131.9553716  38.4718533
  88.1725394 130.5915324  39.0597843  79.9261087 120.9365796  40.7249586
  79.2789002 121.6355745  40.6314062  80.6962102 121.3701940  41.0925834
  83.3339885 131.2014648  43.8000139  83.1825391 130.9725200  42.8830223
  83.3244564 132.1585249  43.8131484  80.1025221 128.7746561  38.7846405
  81.0317281 128.9257720  38.6115373  79.6816251 128.8630582  37.9295052
  78.9013553 132.7997225  36.5544943  78.7624639 132.4316010  37.4270881
  78.1128149 133.3144865  36.3828901  79.4961705 137.9006322  27.8970479
  79.6713461 137.4294365  28.7116102  78.8094493 138.5272088  28.1251740
  80.4518768 132.1778828  33.9433781  80.1168601 132.1379598  34.8391431
  79.9522714 131.5123544  33.4704191  74.4263012 127.5846458  39.4686362
  74.2882810 126.8526697  40.0697901  75.3367935 127.4955358  39.1870550
  83.3877960 129.5234862  24.2170840  82.7707130 128.7981690  24.1203893
  82.9194448 130.2844222  23.8737915  77.0545313 127.2966417  38.9570042
  77.7644931 126.6559609  38.9156660  77.0114621 127.5479312  39.8796222
  85.0432091 134.2333771  41.8776621  84.9844638 133.5492991  41.2107204
  85.4451610 134.9752761  41.4257247  75.7674247 124.2831635  40.7765681
  75.2311604 123.8322374  41.4287277  75.1790955 124.4177544  40.0336145
  74.0622790 141.0495684  34.6710340  74.3019388 141.6814209  35.3489358
  73.2191987 140.6983724  34.9575699  75.1776506 123.7420286  23.3392145
  74.3005972 123.6209087  22.9754391  75.6534259 122.9506365  23.0871033
  85.0449499 132.1973354  40.1090600  84.1576277 131.8599276  40.2316999
  85.6148050 131.4656386  40.3459366  66.6978646 128.5297446  33.4333652
  67.3849686 128.2159176  32.8454667  66.5426774 129.4338811  33.1600903
  71.5013368 123.4187643  37.8618675  71.4171557 122.8113312  37.1269085
  70.6796074 123.9096661  37.8628172  78.5750652 136.8574807  37.0751844
  78.5020824 137.6629778  37.5871148  78.1328045 137.0566773  36.2499865
  78.3640432 136.0946577  30.5854665  77.5807954 136.6368257  30.6792890
  79.0633177 136.6120556  30.9848906  81.6737082 121.9041206  33.2288871
  82.1705781 121.1511169  32.9089941  80.9024063 121.9405523  32.6632080
  89.5266839 127.6081572  34.8707162  89.5156715 128.4906287  34.5001095
  88.6584219 127.2553123  34.6761699  81.0349336 136.7561641  39.2310002
  81.7477308 137.3909106  39.1585904  80.5439364 136.8525507  38.4150004
  82.7566862 130.6612894  30.8027294  81.8223141 130.7814356  30.6331998
  82.9343531 129.7585360  30.5387304  78.2572051 124.0458589  32.9560555
  77.8869838 123.4929630  33.6441461  78.7531143 123.4416723  32.4035555
  86.1439414 126.5030213  31.3377328  86.6099866 127.3358204  31.2637631
  86.5946914 126.0375194  32.0422587  76.0861249 134.5056084  40.0515573
  76.7870709 135.1392567  40.2044967  75.6156364 134.8470816  39.2911212
  84.2115645 132.8474034  28.3363480  84.4875489 132.7330629  29.2457354
  83.3420144 132.4491519  28.2975653  84.1156077 118.8710800  35.3768229
  83.2019156 119.1015027  35.5450436  84.5449178 118.9549244  36.2282262
  83.8862535 127.0600692  37.8768123  83.2333985 127.3076599  37.2220576
  84.2642915 126.2464830  37.5430601  80.8469709 137.0960385  31.9796294
  81.0292103 136.2782041  32.4424046  81.6702695 137.3128077  31.5421184
  81.1811874 136.0228570  29.2411342  81.7099641 135.5121025  28.6281504
  81.4440094 135.7071100  30.1056875  79.9350108 127.8020503  44.3634161
  79.2590745 127.7014632  45.0336536  80.7577742 127.6459717  44.8270158
  71.6828967 134.0392439  36.9846676  72.2682404 133.2936127  37.1174580
  71.4853806 134.3496396  37.8683340  74.5367622 137.0743687  32.0009118
  73.8677998 137.5589814  31.5173158  74.3980492 137.3212907  32.9152497
  66.2746622 126.6098040  35.7051119  66.3130721 126.0761630  36.4988237
  65.7686915 126.0833245  35.0862096  78.6772891 139.1087430  38.5991777
  79.2291199 139.2719052  39.3640862  79.0179084 139.6991868  37.9271801
  73.6537384 121.4562580  39.2013661  73.7178711 122.3177411  38.7891059
  73.5904504 120.8436582  38.4686020  73.1289657 123.5285713  42.8486695
  73.7561696 123.1462790  43.4624220  72.2717576 123.3099915  43.2142388
  83.5283765 133.9348688  44.4540431  84.0723669 134.5478646  43.9595386
  82.9470610 134.4928266  44.9707444  69.9055199 125.3362142  28.7805050
  70.2008641 124.4272820  28.7272104  69.0043235 125.3149881  28.4586053
  81.8141278 137.0569406  35.5855459  81.6892418 136.2559146  35.0766404
  82.4720369 137.5515599  35.0969429  73.4349446 123.4118138  34.7632599
  72.7136032 124.0254106  34.6240072  74.2242702 123.9475903  34.6849245
  83.8776187 134.8578426  37.2135009  82.9306522 134.7383777  37.1413335
  84.2258960 133.9700924  37.2961270  76.2375760 120.7472565  41.0373251
  76.7610162 120.9934861  41.7999560  76.0188093 121.5792600  40.6176388
  71.6343041 123.0176239  28.9044375  71.3055747 122.1373618  28.7219481
  71.9882412 122.9623908  29.7920765  80.8822620 134.6531142  33.4139361
  80.7347582 133.7247850  33.5946931  81.7076113 134.6751233  32.9296436
  74.7484864 123.3049209  29.2719853  75.0880937 123.8335130  28.5498461
  75.1956985 123.6429615  30.0478420  84.4856742 135.4759701  34.5004234
  85.4103289 135.2702562  34.3628685  84.3172045 135.2276102  35.4093575
  77.4428305 121.6886260  38.7222921  77.1025125 120.8894073  39.1243601
  76.7367311 121.9887971  38.1499754  78.0944777 118.7735572  37.1750244
  78.9170846 118.2996051  37.0529135  78.3382840 119.5526056  37.6748930
  76.7353011 121.8023831  27.4713146  77.4561374 122.1805084  26.9676863
  76.1118315 122.5212708  27.5748124  80.8784134 122.5068980  28.4071478
  81.0947749 123.3893618  28.1060306  80.3978201 122.1155193  27.6777120
  75.6183356 125.4654693  34.9842223  75.4727936 125.7794996  35.8766504
  75.1408559 126.0839593  34.4313121  77.4779738 122.4557241  35.0323112
  77.4641307 121.5598334  34.6955410  78.1952167 122.4627905  35.6661398
  79.3305869 122.8894581  37.0776240  79.0723647 123.8111652  37.0760570
  78.7990910 122.4925016  37.7676704  84.2752058 135.9945368  29.8566325
  84.4488935 135.4291791  29.1040178  84.7680949 136.7946263  29.6745815
  70.0929018 128.0060037  37.9229884  69.5482486 128.7819845  38.0550158
  70.9708368 128.3530842  37.7649005  76.8816634 121.3371621  30.3010683
  77.0032546 120.4088267  30.5001570  76.5918677 121.3510307  29.3888998
  79.7507825 119.0226532  33.4377402  79.7729522 119.0865865  32.4829382
  80.1675884 118.1831040  33.6317909  90.1291449 128.7581791  31.4756625
  90.5722595 128.0089116  31.0775748  89.2517959 128.7491928  31.0930357
  85.2627230 135.3112133  26.9563223  85.9578135 135.9318825  27.1750538
  85.6050381 134.4607484  27.2315601  70.8795040 127.1329934  40.8160041
  70.1376776 127.2812569  41.4024671  70.5587784 127.3938199  39.9526790
  87.1618654 132.7611838  28.4850554  87.6869978 133.0999111  27.7599874
  87.0741006 131.8258854  28.3013689  78.8238702 136.6745912  40.6140431
  79.1325829 136.4295059  41.4863130  79.6214184 136.8792550  40.1259301
  78.8459314 138.8283821  32.8445807  78.4064305 138.3360200  33.5378664
  79.5967431 138.2856789  32.6037883  71.3251653 135.0195362  32.8470435
  72.1509673 134.7199134  32.4669079  70.9745705 134.2502985  33.2960224
  76.2933186 134.3721831  34.9168109  75.6713196 133.7092536  34.6170337
  76.9638053 134.3982962  34.2341757  69.5260258 132.9381689  33.8059369
  68.6892167 132.5103863  33.6243370  69.4983904 133.1314132  34.7430160
  76.3657714 122.8503619  44.5100615  76.4145869 123.7265741  44.1278385
  76.9080228 122.3081012  43.9372258  86.8512560 133.3944742  43.7901752
  86.0608103 133.3768881  43.2506252  86.6145914 133.9333036  44.5450789
  86.9710435 130.2437208  41.1034481  87.0208440 130.0787216  42.0450004
  86.8624358 129.3764467  40.7132361  75.8546693 132.9225754  28.3926570
  76.0034814 133.6061218  27.7393242  76.6613137 132.9030844  28.9076025
  84.2614197 126.2268136  42.4193787  85.1624060 126.0874601  42.1277785
  84.3362172 126.3922591  43.3591965  78.5957002 123.6034991  41.2646974
  77.7260312 123.8968557  40.9929562  78.8316483 124.1875436  41.9854237
  88.4728632 132.6634150  41.3476502  88.1813440 133.0264130  42.1839963
  87.8600763 131.9501158  41.1689834  89.6724314 130.2287030  33.8679072
  90.5071205 130.6676834  34.0316633  89.8083443 129.7525683  33.0487318
  86.7215820 127.7866764  39.8156560  87.1969941 127.9794411  39.0075412
  85.7981385 127.8425950  39.5699944  73.6099326 128.9490932  29.3987639
  73.3645368 128.0453262  29.5967849  73.7795241 128.9508082  28.4567117
  81.2996036 119.8214608  38.7812394  81.8177980 120.5575635  38.4558883
  80.9451169 120.1278601  39.6159153  72.8794974 124.6819289  26.8973800
  72.1864219 124.7563644  26.2413836  72.6346726 123.9179633  27.4195317
  81.5508630 116.2414890  34.3013291  81.8310384 115.5738080  34.9273717
  82.3359237 116.4343986  33.7887955  79.3542099 135.4173884  25.8638317
  78.7816066 136.0364072  25.4108789  79.9274893 135.9673246  26.3978239
  85.4217489 124.6632524  38.0484866  86.3734912 124.7630622  38.0697090
  85.2520939 123.8710793  38.5582950  83.4431868 121.7488108  38.2344267
  82.8481800 122.0293120  37.5390755  83.1581565 122.2382009  39.0061008
  82.5739359 135.7011035  26.9946899  83.5070032 135.6356596  27.1979775
  82.4862572 136.5367301  26.5361432  87.9005567 127.8838644  37.1627165
  87.8681887 126.9454645  37.3486849  88.5106190 127.9622681  36.4292990
  79.7388897 126.7534697  23.2054370  80.6848002 126.6240905  23.2742788
  79.3603142 126.0149359  23.6823798  88.0500055 124.6749688  37.2085449
  87.5339104 123.8908144  37.0215378  88.9340004 124.3468404  37.3731968
  85.7110782 118.4190703  33.1681261  85.5135603 118.1105791  34.0524593
  86.3210488 119.1452342  33.2979191  93.7182116 128.9454651  36.3033202
  94.4485505 128.6839939  36.8640906  93.1089062 128.2083373  36.3435270
  91.7997414 127.0862514  36.9007653  91.0730577 126.9518479  36.2924145
  91.3844700 127.3939342  37.7064372  79.6227590 130.8052443  44.6655027
  80.5430599 130.9831042  44.8595073  79.5877173 129.8608489  44.5134726
  77.9231815 124.6784674  23.1409255  77.0163270 124.3817786  23.2171968
  78.2007796 124.3814492  22.2743541  68.8409755 125.9991037  33.5908301
  68.5212539 125.1456345  33.2982675  68.2943183 126.2139615  34.3466268
  72.6189662 128.7153478  37.3077808  72.8375672 129.6470586  37.3265841
  73.0315436 128.3561452  38.0932612  79.5393880 119.2221563  29.2953496
  78.7294609 118.8768648  29.6708742  80.2278297 118.9129107  29.8841108
  81.4684429 118.2999610  30.9177793  82.0215467 118.7195063  31.5767816
  81.7054515 117.3735358  30.9600749  77.4917528 124.2886684  46.6980557
  77.3914255 125.2381041  46.6292648  77.2739070 123.9604923  45.8256627
  76.6930599 121.5371609  23.2821234  77.5549763 121.8626507  23.5417051
  76.8780943 120.7503105  22.7694300  68.7098015 129.6193948  35.5601423
  68.0161486 129.2047901  35.0471377  69.4571006 129.6614485  34.9634842
  84.8463236 120.4100135  30.4256457  84.2661905 121.0684939  30.0434509
  84.5799168 119.5877480  30.0143874  83.2966802 119.8105193  32.6277777
  83.7966580 119.9221727  31.8192096  83.9402410 119.5066246  33.2678586
  77.3548798 127.7183823  45.5145618  76.8715880 128.5184183  45.7209507
  77.4409737 127.7291767  44.5613062  70.6234757 129.5512202  33.4367438
  70.6005446 129.6499889  32.4849321  70.9335394 130.3977353  33.7584604
  73.2822135 131.6088357  37.5514052  74.2365389 131.5772300  37.4843984
  73.0834659 131.1478981  38.3664278  73.8721517 130.1789473  40.1184850
  74.6914406 130.6733552  40.1419687  74.1458325 129.2621441  40.0902417
  83.6288114 122.5700226  29.4812805  82.7413969 122.8549876  29.2633000
  84.0442103 122.4093989  28.6340082  86.9802650 122.5946747  33.1967144
  87.7563040 123.0843199  33.4691761  86.2550784 123.0204801  33.6539014
  89.4175208 123.3074366  34.2541085  90.0119699 123.0670102  33.5434393
  89.4901792 122.5881496  34.8814621  71.6372364 137.1507977  34.5684250
  71.5026832 136.3908378  34.0022248  71.2204426 137.8748877  34.1013039
  82.7731327 132.3344900  23.5760825  83.4767177 132.5394903  24.1918481
  82.0493976 132.9021662  23.8409909  83.6029137 128.0854762  29.6963095
  83.5464339 128.5423313  28.8570728  84.1557480 127.3245446  29.5185938
  87.4133943 123.8744493  30.5213215  87.1570878 123.4741129  31.3521423
  86.7886811 124.5888287  30.3963354  91.7246281 126.6140567  33.0284506
  91.1645839 126.6833756  33.8016068  91.1189785 126.4381551  32.3084003
  74.7941490 138.0477294  34.7802693  74.6773874 138.9922726  34.6781383
  73.9733936 137.7450855  35.1688492  84.6818025 132.7727429  25.6259285
  85.5163628 132.3408628  25.4436760  84.5202367 132.6009443  26.5536180
  84.3363917 129.2759543  26.9915625  84.2812721 129.1103814  26.0504069
  83.7109972 129.9835576  27.1477814  69.1256432 124.5127607  40.8177047
  69.7715295 124.0026561  41.3064272  68.9173583 125.2496289  41.3920472
  81.6509824 131.5808455  46.3169187  82.5200984 131.7549107  45.9555822
  81.1716575 132.4002871  46.1944917  77.6460042 118.7767652  26.5700943
  77.6338712 119.7209492  26.7269214  78.5383464 118.5937797  26.2760404
  75.8196004 138.7005556  37.9958621  76.7223251 138.7329166  38.3125116
  75.5933374 137.7706007  38.0104957  77.5749606 137.4536542  34.6568700
  76.6245237 137.4538404  34.5433072  77.8782092 136.7069277  34.1404734
  81.4612162 115.3710428  30.8246880  80.6944557 114.8168915  30.9703562
  81.8722867 115.4432297  31.6861031  73.4653923 121.6595224  44.9152061
  74.3285384 121.3032029  45.1255386  72.8919333 121.3209119  45.6027465
  93.3102300 143.2897081  35.7214462  93.9480710 143.1703828  35.0177802
  93.1923143 144.2377925  35.7802414  90.1192006 143.2424509  35.6575987
  89.7810517 143.1265573  34.7696522  90.9881774 142.8415674  35.6376993
  85.9778822 145.0959985  31.6472878  85.4143687 145.0049922  30.8789165
  85.8631217 144.2759890  32.1275370  90.6011789 144.3959360  41.6162192
  90.5900430 144.0012159  40.7442696  90.7632428 143.6625433  42.2095964
  83.5243254 146.5911177  34.4857098  84.3164545 146.2502001  34.0703397
  83.7639904 146.7006152  35.4059251  87.3219050 147.1796472  40.5641376
  87.0308916 148.0842103  40.4488043  87.9576034 147.2213000  41.2785446
  88.2475257 144.5573321  37.1542736  88.8438829 144.3329343  36.4399699
  88.3050228 143.8158066  37.7568184  92.8643568 141.0148534  32.7967670
  93.6506657 140.5967958  32.4458087  93.1282272 141.9194627  32.9649318
  98.2651995 140.9523768  33.7000649  98.9977167 140.3822984  33.9338478
  97.5091351 140.5645368  34.1407154  89.8828115 143.3751009  30.8963991
  89.5186322 142.8481630  31.6076912  90.7395231 142.9849478  30.7230476
  95.7877416 134.6645342  38.1595257  95.4560740 135.5340753  37.9356472
  95.1923029 134.3481626  38.8389288  92.2808935 146.8657888  37.5591170
  91.9809658 147.7682927  37.4506977  91.9359995 146.5990071  38.4112323
  85.7321417 143.3171685  33.5927874  84.8071913 143.1847899  33.8005566
  85.9805830 144.0965904  34.0897817  95.6806079 139.3840428  35.2388607
  94.7722956 139.3155836  34.9447368  95.6293675 139.8612373  36.0670433
  83.0930228 142.9604958  34.4271663  83.2222609 143.2139437  35.3411075
  82.4127679 143.5532666  34.1076318  89.7546945 140.8030073  43.1823505
  88.9780279 141.3623994  43.1726369  90.3937508 141.2886856  43.7038375
  97.5467725 137.5856866  37.0166481  96.9042106 137.8789399  36.3706276
  97.0422654 137.4709787  37.8219678  88.0093317 143.6115527  42.7441472
  88.7508001 144.1500571  42.4676295  87.3030302 144.2381816  42.9013023
  93.4848657 145.7544667  41.3413633  93.8932013 145.3127078  40.5968265
  92.7625918 145.1797295  41.5947826  89.8379727 140.6917274  38.7147190
  90.6840922 141.1156688  38.8581839  89.7778364 140.0350898  39.4085753
  93.8077471 146.3145858  35.0965922  93.1786334 146.4791572  34.3941990
  93.4203133 146.7287467  35.8676886  92.9879172 138.3521642  40.3728364
  92.7440104 139.1063703  39.8362639  93.2639103 138.7306990  41.2075611
  94.9417635 144.8960255  39.0505629  95.1534530 145.5392015  38.3740010
  94.8947383 144.0622571  38.5827559  92.5443864 137.5078075  35.9542201
  91.6828343 137.8059329  36.2458939  92.5706298 137.7248474  35.0223234
  86.2529514 145.5991748  35.2995770  86.8230871 146.0279016  34.6613255
  86.8437626 145.3174332  35.9979956  88.2974319 142.1743418  29.1705572
  88.9998363 142.6264462  29.6379498  87.9654948 141.5327237  29.7985465
  86.7454681 140.7655175  43.5456781  86.1153341 141.4471456  43.7792178
  86.6390769 140.6538257  42.6009920  82.0399653 140.4326971  34.4722706
  81.2498707 140.6884500  33.9962816  82.5310901 141.2475309  34.5774746
  96.0563463 147.7732210  37.2227986  96.8780906 147.3712398  36.9410668
  96.0525866 147.6700444  38.1744102  83.9914399 140.7971550  31.4306182
  83.1945562 140.9090245  31.9489678  83.7639991 141.1358203  30.5647073
  89.8220066 147.3216254  39.3788697  89.8864499 147.7836661  40.2146869
  89.1130990 146.6913618  39.5071007  80.3237356 140.6857461  36.9037696
  80.5745395 141.5704471  37.1695272  80.8596905 140.5062063  36.1312788
  86.0235423 135.0675941  45.9082033  85.6302369 134.5142139  46.5829677
  86.8401564 135.3786519  46.2988550  82.9897481 146.5059799  29.8195602
  83.5022002 147.3003049  29.9701167  83.6420194 145.8086090  29.7529204
  88.9403384 136.4833820  43.5002289  89.6813098 137.0840973  43.4206752
  89.1721307 135.7411458  42.9420332  84.0844722 141.6690187  41.7780519
  83.9698238 140.7675444  42.0787618  83.2289240 141.9153884  41.4265335
  91.1636560 149.6107928  43.3768019  90.7200414 148.8244306  43.0588924
  91.8253774 149.7987078  42.7111910  85.9223681 151.1403729  37.9028698
  86.4731107 151.0120792  37.1305692  85.0835157 151.4398618  37.5523591
  93.2617798 149.8910727  41.4049421  93.2436274 150.7119608  40.9129690
  94.1837718 149.7664803  41.6299562  89.7190852 147.4054857  42.2472929
  90.2519189 146.6443145  42.0172237  89.1904934 147.1128509  42.9897084
  92.8860547 132.5114923  37.7766571  92.5424817 133.4016565  37.7005681
  93.2539510 132.3216581  36.9136156  80.9546398 144.8348453  30.5955173
  81.7921620 145.2445462  30.3788881  81.1324666 143.8947896  30.5655367
  90.4357941 137.3473235  31.3424244  89.5799538 136.9580085  31.1629883
  90.8484893 137.4265196  30.4824030  91.9657088 134.8819578  35.7415804
  91.4621883 134.8449713  34.9283609  92.2587695 135.7912321  35.8012461
  88.2099974 134.9658308  34.7481986  89.0752970 134.7701116  34.3887875
  88.2777483 134.7368660  35.6751343  96.0636411 144.7289870  34.8758787
  95.4060086 145.4189131  34.9638916  96.8676810 145.1186302  35.2192774
  85.8162293 137.1960516  32.1198353  86.3906045 136.9735697  31.3871546
  86.4033275 137.2649210  32.8726954  94.8741870 143.0834243  32.9262729
  95.3873752 143.7164234  33.4284439  95.5243094 142.4835438  32.5606089
  88.1184960 134.0701765  30.8473422  87.4649373 133.7550782  30.2230037
  88.0765435 133.4477505  31.5733245  91.3522701 140.5583698  35.1721070
  90.4345262 140.7798645  35.0142758  91.7682844 140.6330009  34.3132777
  94.5836586 138.9932230  32.2842539  93.8459343 138.4809616  32.6152782
  94.8363359 138.5532612  31.4725816  94.6848213 131.7708482  32.8784308
  94.9907090 130.9105846  32.5910224  95.4100818 132.3626102  32.6783302
  80.9772569 142.1739169  31.2665906  80.7796969 141.5808529  30.5416973
  80.4219233 141.8691379  31.9841845  88.9569293 142.0662275  33.3860500
  89.0117903 141.1136112  33.3102976  88.1460495 142.2221714  33.8701798
  86.8961653 140.6839335  31.1450878  86.0829518 140.9833505  31.5516071
  87.3920647 140.2895024  31.8625361  92.4935864 141.1481159  39.9765772
  92.8485252 141.3752633  40.8360238  93.1407996 141.4799536  39.3543028
  86.3875727 138.2557690  36.7612113  87.0275107 138.1146450  36.0635077
  85.5553258 137.9692204  36.3850715  87.1636031 147.5560121  32.8747106
  87.9576630 147.0610441  32.6729681  86.4527724 147.0277984  32.5114811
  91.9830876 149.9378216  37.2259473  92.0367898 150.5069153  37.9937189
  91.1145657 150.1080101  36.8613511  83.4718795 141.7003203  28.9506859
  82.5416383 141.6387658  29.1676821  83.5676267 141.1779155  28.1543500
  83.3904344 138.2258015  31.5385100  83.6511161 139.1403349  31.4294261
  84.2121516 137.7582458  31.6881713  84.8629269 139.6395773  38.7083925
  85.5352323 139.4313135  38.0596574  84.0359056 139.4417859  38.2689157
  99.1118531 146.3799823  38.2259258  99.3054421 147.2845633  38.4718533
  99.0119149 145.9207242  39.0597843  90.7654841 136.2657713  40.7249586
  90.1182756 136.9647663  40.6314062  91.5355857 136.6993857  41.0925834
  94.1733639 146.5306566  43.8000139  94.0219146 146.3017117  42.8830223
  94.1638319 147.4877167  43.8131484  90.9418976 144.1038478  38.7846405
  91.8711036 144.2549638  38.6115373  90.5210006 144.1922499  37.9295052
  89.7407307 148.1289143  36.5544943  89.6018393 147.7607927  37.4270881
  88.9521904 148.6436782  36.3828901  91.2912523 147.5070746  33.9433781
  90.9562355 147.4671515  34.8391431  90.7916468 146.8415461  33.4704191
  85.2656767 142.9138376  39.4686362  85.1276564 142.1818614  40.0697901
  86.1761690 142.8247276  39.1870550  87.8939067 142.6258335  38.9570042
  88.6038686 141.9851527  38.9156660  87.8508375 142.8771230  39.8796222
  95.8825846 149.5625688  41.8776621  95.8238392 148.8784908  41.2107204
  96.2845364 150.3044678  41.4257247  86.6068001 139.6123553  40.7765681
  86.0705358 139.1614291  41.4287277  86.0184710 139.7469462  40.0336145
  95.8843253 147.5265272  40.1090600  94.9970032 147.1891194  40.2316999
  96.4541804 146.7948303  40.3459366  77.5372400 143.8589364  33.4333652
  78.2243440 143.5451094  32.8454667  77.3820529 144.7630729  33.1600903
  82.3407122 138.7479560  37.8618675  82.2565311 138.1405230  37.1269085
  81.5189829 139.2388579  37.8628172  89.4144407 152.1866724  37.0751844
  89.3414578 152.9921696  37.5871148  88.9721800 152.3858690  36.2499865
  92.5130836 137.2333124  33.2288871  93.0099536 136.4803086  32.9089941
  91.7417818 137.2697441  32.6632080  91.8743090 152.0853559  39.2310002
  92.5871062 152.7201023  39.1585904  91.3833119 152.1817425  38.4150004
  89.0965805 139.3750507  32.9560555  88.7263593 138.8221547  33.6441461
  89.5924897 138.7708640  32.4035555  86.9255004 149.8348002  40.0515573
  87.6264463 150.4684485  40.2044967  86.4550119 150.1762734  39.2911212
  94.9549831 134.2002717  35.3768229  94.0412911 134.4306944  35.5450436
  95.3842933 134.2841162  36.2282262  94.7256290 142.3892609  37.8768123
  94.0727740 142.6368517  37.2220576  95.1036669 141.5756748  37.5430601
  90.7743863 143.1312420  44.3634161  90.0984500 143.0306550  45.0336536
  91.5971496 142.9751634  44.8270158  82.5222722 149.3684357  36.9846676
  83.1076158 148.6228045  37.1174580  82.3247560 149.6788314  37.8683340
  77.1140376 141.9389957  35.7051119  77.1524476 141.4053548  36.4988237
  76.6080669 141.4125163  35.0862096  89.5166645 154.4379348  38.5991777
  90.0684953 154.6010969  39.3640862  89.8572839 155.0283786  37.9271801
  84.4931139 136.7854498  39.2013661  84.5572465 137.6469329  38.7891059
  84.4298259 136.1728499  38.4686020  83.9683411 138.8577630  42.8486695
  84.5955450 138.4754708  43.4624220  83.1111330 138.6391832  43.2142388
  94.3677520 149.2640605  44.4540431  94.9117424 149.8770564  43.9595386
  93.7864365 149.8220184  44.9707444  80.7448954 140.6654059  28.7805050
  81.0402395 139.7564738  28.7272104  79.8436990 140.6441799  28.4586053
  84.2743201 138.7410056  34.7632599  83.5529787 139.3546024  34.6240072
  85.0636457 139.2767821  34.6849245  94.7169941 150.1870344  37.2135009
  93.7700277 150.0675695  37.1413335  95.0652714 149.2992842  37.2961270
  87.0769514 136.0764482  41.0373251  87.6003916 136.3226779  41.7999560
  86.8581848 136.9084517  40.6176388  82.4736796 138.3468157  28.9044375
  82.1449502 137.4665536  28.7219481  82.8276166 138.2915826  29.7920765
  85.5878619 138.6341127  29.2719853  85.9274691 139.1627048  28.5498461
  86.0350739 138.9721533  30.0478420  88.2822060 137.0178178  38.7222921
  87.9418880 136.2185991  39.1243601  87.5761066 137.3179888  38.1499754
  88.9338531 134.1027490  37.1750244  89.7564601 133.6287968  37.0529135
  89.1776595 134.8817974  37.6748930  87.5746766 137.1315748  27.4713146
  88.2955128 137.5097001  26.9676863  86.9512070 137.8504625  27.5748124
  86.4577110 140.7946611  34.9842223  86.3121691 141.1086914  35.8766504
  85.9802314 141.4131511  34.4313121  88.3173493 137.7849159  35.0323112
  88.3035062 136.8890252  34.6955410  89.0345921 137.7919822  35.6661398
  90.1699624 138.2186499  37.0776240  89.9117402 139.1403569  37.0760570
  89.6384664 137.8216933  37.7676704  80.9322772 143.3351955  37.9229884
  80.3876240 144.1111763  38.0550158  81.8102122 143.6822760  37.7649005
  87.7210389 136.6663539  30.3010683  87.8426300 135.7380185  30.5001570
  87.4312431 136.6802225  29.3888998  90.5901579 134.3518449  33.4377402
  90.6123276 134.4157782  32.4829382  91.0069638 133.5122958  33.6317909
  81.7188794 142.4621851  40.8160041  80.9770530 142.6104487  41.4024671
  81.3981538 142.7230117  39.9526790  89.6632457 152.0037830  40.6140431
  89.9719583 151.7586976  41.4863130  90.4607939 152.2084468  40.1259301
  82.1645408 150.3487280  32.8470435  82.9903428 150.0491052  32.4669079
  81.8139460 149.5794902  33.2960224  87.1326941 149.7013748  34.9168109
  86.5106950 149.0384453  34.6170337  87.8031808 149.7274880  34.2341757
  80.3654013 148.2673606  33.8059369  79.5285921 147.8395781  33.6243370
  80.3377658 148.4606050  34.7430160  87.2051468 138.1795536  44.5100615
  87.2539624 139.0557659  44.1278385  87.7473983 137.6372929  43.9372258
  97.6906314 148.7236660  43.7901752  96.9001858 148.7060798  43.2506252
  97.4539669 149.2624953  44.5450789  97.8104189 145.5729126  41.1034481
  97.8602194 145.4079133  42.0450004  97.7018113 144.7056385  40.7132361
  95.1007952 141.5560054  42.4193787  96.0017814 141.4166519  42.1277785
  95.1755926 141.7214509  43.3591965  89.4350757 138.9326909  41.2646974
  88.5654066 139.2260475  40.9929562  89.6710237 139.5167354  41.9854237
  99.3122386 147.9926067  41.3476502  99.0207194 148.3556048  42.1839963
  98.6994517 147.2793076  41.1689834  97.5609574 143.1158682  39.8156560
  98.0363696 143.3086328  39.0075412  96.6375140 143.1717868  39.5699944
  92.1389791 135.1506526  38.7812394  92.6571735 135.8867553  38.4558883
  91.7844924 135.4570519  39.6159153  83.7188728 140.0111207  26.8973800
  83.0257973 140.0855562  26.2413836  83.4740480 139.2471550  27.4195317
  92.3902385 131.5706808  34.3013291  92.6704139 130.9029997  34.9273717
  93.1752992 131.7635904  33.7887955  96.2611243 139.9924442  38.0484866
  97.2128666 140.0922540  38.0697090  96.0914694 139.2002711  38.5582950
  94.2825623 137.0780025  38.2344267  93.6875555 137.3585038  37.5390755
  93.9975319 137.5673926  39.0061008  98.7399321 143.2130562  37.1627165
  98.7075641 142.2746563  37.3486849  99.3499945 143.2914599  36.4292990
  98.8893810 140.0041605  37.2085449  98.3732858 139.2200062  37.0215378
  99.7733758 139.6760322  37.3731968  96.5504536 133.7482621  33.1681261
  96.3529358 133.4397709  34.0524593  97.1604242 134.4744260  33.2979191
 102.6391168 142.4154431  36.9007653 101.9124332 142.2810396  36.2924145
 102.2238455 142.7231260  37.7064372  90.4621344 146.1344361  44.6655027
  91.3824354 146.3122960  44.8595073  90.4270927 145.1900406  44.5134726
  79.6803509 141.3282955  33.5908301  79.3606294 140.4748263  33.2982675
  79.1336938 141.5431533  34.3466268  83.4583417 144.0445396  37.3077808
  83.6769427 144.9762503  37.3265841  83.8709191 143.6853370  38.0932612
  90.3787635 134.5513481  29.2953496  89.5688363 134.2060566  29.6708742
  91.0672052 134.2421025  29.8841108  92.3078183 133.6291528  30.9177793
  92.8609222 134.0486981  31.5767816  92.5448269 132.7027276  30.9600749
  88.3311282 139.6178601  46.6980557  88.2308009 140.5672958  46.6292648
  88.1132824 139.2896840  45.8256627  79.5491769 144.9485866  35.5601423
  78.8555241 144.5339819  35.0471377  80.2964760 144.9906403  34.9634842
  95.6856990 135.7392053  30.4256457  95.1055659 136.3976857  30.0434509
  95.4192923 134.9169397  30.0143874  94.1360557 135.1397111  32.6277777
  94.6360335 135.2513645  31.8192096  94.7796164 134.8358163  33.2678586
  88.1942552 143.0475740  45.5145618  87.7109634 143.8476100  45.7209507
  88.2803491 143.0583685  44.5613062  81.4628512 144.8804120  33.4367438
  81.4399200 144.9791807  32.4849321  81.7729148 145.7269271  33.7584604
  84.1215890 146.9380275  37.5514052  85.0759143 146.9064217  37.4843984
  83.9228413 146.4770899  38.3664278  84.7115272 145.5081391  40.1184850
  85.5308161 146.0025470  40.1419687  84.9852080 144.5913359  40.0902417
  97.8196404 137.9238664  33.1967144  98.5956794 138.4135117  33.4691761
  97.0944538 138.3496718  33.6539014 100.2568963 138.6366283  34.2541085
 100.8513454 138.3962019  33.5434393 100.3295547 137.9173414  34.8814621
  82.4766119 152.4799894  34.5684250  82.3420587 151.7200295  34.0022248
  82.0598181 153.2040794  34.1013039  85.6335244 153.3769211  34.7802693
  85.5167629 154.3214644  34.6781383  84.8127691 153.0742773  35.1688492
  79.9650186 139.8419525  40.8177047  80.6109050 139.3318479  41.3064272
  79.7567337 140.5788206  41.3920472  92.4903578 146.9100372  46.3169187
  93.3594738 147.0841025  45.9555822  92.0110330 147.7294789  46.1944917
  88.4853797 134.1059569  26.5700943  88.4732467 135.0501409  26.7269214
  89.3777219 133.9229715  26.2760404  86.6589759 154.0297473  37.9958621
  87.5617005 154.0621084  38.3125116  86.4327129 153.0997924  38.0104957
  92.3005916 130.7002346  30.8246880  91.5338312 130.1460833  30.9703562
  92.7116621 130.7724215  31.6861031  84.3047677 136.9887142  44.9152061
  85.1679139 136.6323947  45.1255386  83.7313088 136.6501037  45.6027465
 100.5940699 156.1321991  43.1823505  99.8174033 156.6915911  43.1726369
 101.2331262 156.6178774  43.7038375  97.5848435 156.0947093  43.5456781
  96.9547096 156.7763374  43.7792178  97.4784523 155.9830174  42.6009920
  96.8629178 150.3967859  45.9082033  96.4696124 149.8434057  46.5829677
  97.6795318 150.7078437  46.2988550  99.7797139 151.8125738  43.5002289
 100.5206852 152.4132891  43.4206752 100.0115062 151.0703375  42.9420332
  94.9238477 156.9982105  41.7780519  94.8091992 156.0967362  42.0787618
  94.0682995 157.2445802  41.4265335 101.6048596 151.5949631  40.7249586
 100.9576511 152.2939581  40.6314062 102.3749611 152.0285775  41.0925834
  97.4461756 154.9415470  40.7765681  96.9099113 154.4906209  41.4287277
  96.8578464 155.0761379  40.0336145 101.6137617 158.4604338  44.3634161
 100.9378254 158.3598468  45.0336536 102.4365251 158.3043552  44.8270158
  95.3324893 152.1146415  39.2013661  95.3966220 152.9761246  38.7891059
  95.2692013 151.5020417  38.4686020  94.8077166 154.1869548  42.8486695
  95.4349204 153.8046625  43.4624220  93.9505085 153.9683750  43.2142388
  97.9163269 151.4056400  41.0373251  98.4397671 151.6518697  41.7999560
  97.6975602 152.2376435  40.6176388  92.5582549 157.7913769  40.8160041
  91.8164285 157.9396404  41.4024671  92.2375293 158.0522035  39.9526790
  98.0445223 153.5087454  44.5100615  98.0933378 154.3849577  44.1278385
  98.5867737 152.9664847  43.9372258 100.2744511 154.2618826  41.2646974
  99.4047821 154.5552392  40.9929562 100.5103992 154.8459271  41.9854237
  99.1705037 154.9470519  46.6980557  99.0701764 155.8964876  46.6292648
  98.9526579 154.6188758  45.8256627  99.0336307 158.3767658  45.5145618
  98.5503389 159.1768018  45.7209507  99.1197246 158.3875603  44.5613062
  90.8043941 155.1711442  40.8177047  91.4502804 154.6610396  41.3064272
  90.5961092 155.9080124  41.3920472  95.1441432 152.3179060  44.9152061
  96.0072893 151.9615864  45.1255386  94.5706842 151.9792954  45.6027465
  26.1274035  34.6418544  30.1013326  25.6837889  33.8554923  29.7834231
  26.7891248  34.8297695  29.4357217  28.2255273  34.9221344  28.1294727
  28.2073748  35.7430225  27.6374996  29.1475193  34.7975419  28.3544868
  24.6828327  32.4365473  28.9718236  25.2156664  31.6753762  28.7417544
  24.1542408  32.1439125  29.7142390  29.1371114  31.5617182  30.5245445
  28.9856620  31.3327734  29.6075529  29.1275793  32.5187784  30.5376790
  30.8463320  34.5936305  28.6021927  30.7875866  33.9095525  27.9352510
  31.2482839  35.3355295  28.1502553  30.8480727  32.5575889  26.8335907
  29.9607506  32.2201810  26.9562306  31.4179278  31.8258920  27.0704672
  26.8380564  37.1164175  25.9555309  27.5508537  37.7511640  25.8831210
  26.3470593  37.2128041  25.1395311  25.7381337  28.1623037  31.0879467
  25.0621974  28.0617166  31.7581842  26.5608971  28.0062251  31.5515464
  24.4804120  39.4689964  25.3237083  25.0322428  39.6321586  26.0886168
  24.8210313  40.0594402  24.6517108  29.3314994  34.2951222  31.1785738
  29.8754898  34.9081180  30.6840692  28.7501839  34.8530800  31.6952751
  24.6269931  37.0348446  27.3385737  24.9357058  36.7897593  28.2108437
  25.4245413  37.2395085  26.8504608  32.6543788  33.7547276  30.5147059
  31.8639332  33.7371415  29.9751558  32.4177143  34.2935570  31.2696095
  32.7741663  30.6039742  27.8279787  32.8239668  30.4389750  28.7695310
  32.6655587  29.7367001  27.4377668  34.2759860  33.0236684  28.0721809
  33.9844669  33.3866665  28.9085270  33.6631992  32.3103692  27.8935141
  25.4258819  31.1654977  31.3900333  26.3461828  31.3433576  31.5840380
  25.3908402  30.2211023  31.2380032  27.4541053  31.9410989  33.0414494
  28.3232212  32.1151641  32.6801129  26.9747804  32.7605406  32.9190223
  39.1133528  43.6499615  22.4459769  39.7511938  43.5306362  21.7423109
  38.9954371  44.5980459  22.5047721  35.9223235  43.6027043  22.3821293
  35.5841746  43.4868108  21.4941828  36.7913003  43.2018208  22.3622299
  36.4043018  44.7561895  28.3407499  36.3931658  44.3614693  27.4688003
  36.5663657  44.0227967  28.9341270  29.3274482  46.9513711  21.2102405
  30.1195774  46.6104536  20.7948704  29.5671133  47.0608686  22.1304558
  33.1250279  47.5399006  27.2886683  32.8340145  48.4444637  27.1733349
  33.7607263  47.5815534  28.0030752  34.0506486  44.9175855  23.8788043
  34.6470058  44.6931877  23.1645005  34.1081457  44.1760600  24.4813490
  38.6674797  41.3751069  19.5212977  39.4537886  40.9570492  19.1703394
  38.9313501  42.2797161  19.6894625  44.0683224  41.3126302  20.4245955
  44.8008396  40.7425519  20.6583785  43.3122580  40.9247902  20.8652461
  35.6859344  43.7353543  17.6209298  35.3217551  43.2084164  18.3322219
  36.5426460  43.3452012  17.4475783  41.5908644  35.0247876  24.8840564
  41.2591969  35.8943287  24.6601779  40.9954258  34.7084160  25.5634594
  38.0840164  47.2260422  24.2836477  37.7840887  48.1285461  24.1752284
  37.7391223  46.9592605  25.1357629  31.5352645  43.6774219  20.3173181
  30.6103142  43.5450433  20.5250873  31.7837059  44.4568438  20.8143123
  41.4837308  39.7442962  21.9633914  40.5754185  39.6758371  21.6692675
  41.4324904  40.2214907  22.7915739  28.8961456  43.3207492  21.1516970
  29.0253838  43.5741971  22.0656382  28.2158908  43.9135200  20.8321625
  33.0660944  53.9904742  17.2507444  32.9884973  54.9412567  17.3295925
  32.4622587  53.6450615  17.9082371  35.5578174  41.1632608  29.9068811
  34.7811508  41.7226528  29.8971676  36.1968737  41.6489391  30.4283681
  43.3498954  37.9459401  23.7411788  42.7073334  38.2391934  23.0951582
  42.8453883  37.8312321  24.5464984  33.8124546  43.9718061  29.4686778
  34.5539230  44.5103105  29.1921602  33.1061531  44.5984350  29.6258330
  39.2879885  46.1147202  28.0658940  39.6963241  45.6729612  27.3213572
  38.5657147  45.5399829  28.3193133  35.6410956  41.0519808  25.4392497
  36.4872151  41.4759222  25.5827146  35.5809593  40.3953433  26.1331060
  39.6108700  46.6748392  21.8211229  38.9817563  46.8394106  21.1187296
  39.2234362  47.0890002  22.5922193  43.4897932  47.6102830  19.1755592
  42.8048970  47.9901731  18.6252626  43.5741781  48.2198157  19.9087540
  38.7910401  38.7124177  27.0973670  38.5471333  39.4666237  26.5607946
  39.0670331  39.0909524  27.9320917  40.7448864  45.2562789  25.7750936
  40.9565759  45.8994549  25.0985317  40.6978612  44.4225106  25.3072866
  38.3475093  37.8680610  22.6787508  37.4859572  38.1661863  22.9704246
  38.3737527  38.0851009  21.7468541  35.1636662  46.4122800  19.0861314
  35.6275008  46.6910503  18.2965936  34.8993460  45.5106245  18.9034404
  32.0560743  45.9594282  22.0241077  32.6262100  46.3881550  21.3858561
  32.6468855  45.6776866  22.7225263  32.5485910  41.1257709  30.2702088
  31.9184570  41.8073990  30.5037485  32.4421997  41.0140791  29.3255226
  41.8594692  48.1334744  23.9473293  42.6812135  47.7314932  23.6655975
  41.8557094  48.0302979  24.8989409  35.6251295  47.6818788  26.1034004
  35.6895728  48.1439195  26.9392175  34.9162219  47.0516153  26.2316313
  26.1268585  41.0459996  23.6283003  26.3776623  41.9307006  23.8940579
  26.6628133  40.8664597  22.8558095  49.9500685  44.4773493  20.2958265
  49.1964393  43.9080891  20.1402269  50.0848226  44.4436157  21.2428899
  35.3399313  49.3486895  15.9712984  35.2044987  50.1938431  16.3997832
  35.8809125  49.5506173  15.2078918  31.8266652  35.4278475  32.6327339
  31.4333598  34.8744674  33.3074983  32.6432793  35.7389054  33.0233857
  30.6023595  49.9828090  18.6263662  30.7790223  50.9046054  18.4384646
  31.3980428  49.6686509  19.0558042  34.7434613  36.8436354  30.2247596
  35.4844327  37.4443507  30.1452058  34.9752536  36.1013992  29.6665638
  29.8875951  42.0292721  28.5025825  29.7729466  41.1277979  28.8032924
  29.0320469  42.2756418  28.1510642  36.9667789  49.9710462  30.1013326
  36.5231643  49.1846840  29.7834231  37.6285003  50.1589612  29.4357217
  31.7254910  51.5006263  24.6274005  32.2762335  51.3723327  23.8550998
  30.8866386  51.8001152  24.2768897  39.0649027  50.2513262  28.1294727
  39.0467502  51.0722143  27.6374996  39.9868947  50.1267337  28.3544868
  35.5222081  47.7657391  28.9718236  36.0550418  47.0045679  28.7417544
  34.9936162  47.4731043  29.7142390  38.6891776  32.8717457  24.5011877
  38.3456046  33.7619099  24.4250988  39.0570739  32.6819115  23.6381462
  37.7688317  35.2422112  22.4661111  37.2653112  35.2052247  21.6528916
  38.0618923  36.1514855  22.5257767  43.6276333  45.6158423  14.9437486
  42.8505776  45.2769582  14.4992648  44.3067814  45.6211046  14.2692451
  36.8874794  46.8943384  16.4837048  36.3596156  46.1596143  16.1710285
  36.3862297  47.6718060  16.2377016  41.8667640  45.0892404  21.6004094
  41.2091314  45.7791666  21.6884223  42.6708039  45.4788836  21.9438080
  40.6773099  43.4436777  19.6508036  41.1904981  44.0766769  20.1529745
  41.3274323  42.8437972  19.2851396  37.9395473  53.4221101  12.4068707
  37.2657172  53.7252798  13.0153665  38.3261295  54.2250181  12.0574164
  37.1553930  40.9186232  21.8966376  36.2376491  41.1401179  21.7388064
  37.5714073  40.9932543  21.0378084  41.4434895  48.4242778  17.7787178
  40.9897222  47.5833688  17.8352369  40.8128862  49.0604177  18.1161959
  40.3867815  39.3534764  19.0087846  39.6490571  38.8412150  19.3398088
  40.6394588  38.9135146  18.1971123  39.8867834  50.2619275  18.7136997
  40.1790809  50.8224332  17.9949362  40.3966455  50.5547836  19.4690156
  34.7600522  42.4264809  20.1105806  34.8149131  41.4738646  20.0348283
  33.9491724  42.5824248  20.5947105  34.8501459  51.0399626  19.8030450
  34.8077638  51.2660472  18.8738982  35.7664158  50.8063001  19.9516251
  38.2967093  41.5083694  26.7011079  38.6516481  41.7355167  27.5605545
  38.9439224  41.8402070  26.0788334  44.0264830  44.6302129  17.4060408
  43.8882729  44.8203725  16.4781597  43.6701049  45.3921512  17.8628459
  32.1906956  38.6160225  23.4857420  32.8306336  38.4748984  22.7880383
  31.3584487  38.3294738  23.1096022  44.0534210  46.6978656  22.4171679
  44.4870716  46.6053946  23.2654734  44.7665790  46.6736157  21.7791695
  32.9667260  47.9162655  19.5992412  33.7607859  47.4212975  19.3974987
  32.2558953  47.3880518  19.2360118  37.7862105  50.2980751  23.9504780
  37.8399127  50.8671687  24.7182496  36.9176886  50.4682636  23.5858817
  30.6660498  39.9998307  25.4329231  31.3383551  39.7915669  24.7841880
  29.8390285  39.8020393  24.9934464  44.9149759  46.7402357  24.9504565
  45.1085649  47.6448168  25.1963840  44.8150377  46.2809776  25.7843150
  36.5686070  36.6260248  27.4494892  35.9213985  37.3250197  27.3559369
  37.3387085  37.0596392  27.8171140  39.9764868  46.8909100  30.5245445
  39.8250374  46.6619652  29.6075529  39.9669547  47.8479701  30.5376790
  36.7450204  44.4641013  25.5091712  37.6742264  44.6152172  25.3360679
  36.3241234  44.5525033  24.6540358  35.5438536  48.4891677  23.2790250
  35.4049622  48.1210461  24.1516188  34.7553132  49.0039316  23.1074207
  36.1386688  53.5900774  14.6215786  36.3138444  53.1188817  15.4361409
  35.4519476  54.2166540  14.8497047  37.0943751  47.8673280  20.6679087
  36.7593584  47.8274050  21.5636737  36.5947697  47.2017996  20.1949498
  31.0687995  43.2740910  26.1931668  30.9307793  42.5421149  26.7943208
  31.9792919  43.1849810  25.9115856  33.6970296  42.9860869  25.6815348
  34.4069915  42.3454061  25.6401967  33.6539604  43.2373764  26.6041529
  41.6857075  49.9228222  28.6021927  41.6269621  49.2387443  27.9352510
  42.0876593  50.6647212  28.1502553  32.4099230  39.9726087  27.5010988
  31.8736587  39.5216825  28.1532584  31.8215938  40.1071996  26.7581452
  30.7047773  56.7390136  21.3955646  30.9444372  57.3708660  22.0734665
  29.8616970  56.3878176  21.6821006  41.6874482  47.8867806  26.8335907
  40.8001261  47.5493728  26.9562306  42.2573033  47.1550838  27.0704672
  28.1438351  39.1082095  24.5863982  28.0596540  38.5007764  23.8514392
  27.3221058  39.5991113  24.5873478  35.2175635  52.5469259  23.7997150
  35.1445807  53.3524230  24.3116455  34.7753028  52.7461225  22.9745172
  35.0065415  51.7841029  17.3099972  34.2232937  52.3262709  17.4038196
  35.7058160  52.3015008  17.7094213  46.1691822  43.2976024  21.5952469
  46.1581699  44.1800739  21.2246402  45.3009202  42.9447575  21.4007006
  37.6774319  52.4456093  25.9555309  38.3902291  53.0803558  25.8831210
  37.1864347  52.5419959  25.1395311  39.3991846  46.3507345  17.5272601
  38.4648124  46.4708808  17.3577305  39.5768514  45.4479812  17.2632610
  42.7864397  42.1924665  18.0622635  43.2524849  43.0252656  17.9882937
  43.2371898  41.7269646  18.7667893  32.7286232  50.1950536  26.7760880
  33.4295692  50.8287019  26.9290274  32.2581347  50.5365268  26.0156519
  40.8540628  48.5368486  15.0608787  41.1300472  48.4225081  15.9702661
  39.9845127  48.1385971  15.0220960  40.7581060  34.5605252  22.1013536
  39.8444140  34.7909479  22.2695743  41.1874161  34.6443696  22.9527568
  40.5287518  42.7495144  24.6013430  39.8758969  42.9971051  23.9465883
  40.9067898  41.9359282  24.2675907  37.4894692  52.7854837  18.7041600
  37.6717087  51.9676493  19.1669353  38.3127678  53.0022529  18.2666490
  37.8236858  51.7123022  15.9656649  38.3524624  51.2015477  15.3526811
  38.0865077  51.3965552  16.8302182  36.5775091  43.4914955  31.0879467
  35.9015728  43.3909084  31.7581842  37.4002725  43.3354168  31.5515464
  28.3253950  49.7286891  23.7091982  28.9107387  48.9830579  23.8419887
  28.1278789  50.0390848  24.5928646  31.1792606  52.7638139  18.7254425
  30.5102981  53.2484266  18.2418465  31.0405475  53.0107359  19.6397803
  35.3197874  54.7981882  25.3237083  35.8716182  54.9613504  26.0886168
  35.6604068  55.3886320  24.6517108  30.2962367  37.1457032  25.9258968
  30.3603694  38.0071863  25.5136366  30.2329488  36.5331034  25.1931326
  29.7714640  39.2180165  29.5732002  30.3986679  38.8357242  30.1869526
  28.9142559  38.9994366  29.9387695  40.1708749  49.6243140  31.1785738
  40.7148653  50.2373098  30.6840692  39.5895593  50.1822718  31.6952751
  38.4566262  52.7463858  22.3100765  38.3317401  51.9453598  21.8011711
  39.1145353  53.2410051  21.8214735  40.5201170  50.5472878  23.9380315
  39.5731505  50.4278229  23.8658642  40.8683943  49.6595376  24.0206577
  32.8800743  36.4367017  27.7618557  33.4035145  36.6829313  28.5244867
  32.6613077  37.2687052  27.3421695  37.5247603  50.3425594  20.1384668
  37.3772566  49.4142301  20.3192238  38.3501097  50.3645685  19.6541743
  41.1281725  51.1654153  21.2249540  42.0528273  50.9597014  21.0873992
  40.9597028  50.9170554  22.1338882  34.0853288  37.3780712  25.4468228
  33.7450109  36.5788525  25.8488908  33.3792295  37.6782423  24.8745061
  34.7369760  34.4630024  23.8995551  35.5595829  33.9890502  23.7774441
  34.9807824  35.2420508  24.3994237  32.2608339  41.1549145  21.7087529
  32.1152920  41.4689448  22.6011811  31.7833543  41.7734045  21.1558428
  35.9730852  38.5789033  23.8021546  35.7148630  39.5006104  23.8005877
  35.4415893  38.1819468  24.4922011  40.9177041  51.6839820  16.5811632
  41.0913919  51.1186243  15.8285484  41.4105932  52.4840715  16.3991122
  26.7354001  43.6954489  24.6475191  26.1907469  44.4714297  24.7795465
  27.6133351  44.0425294  24.4894312  46.7716432  44.4476243  18.2001932
  47.2147578  43.6983568  17.8021055  45.8942943  44.4386379  17.8175664
  41.9052214  51.0006585  13.6808530  42.6003118  51.6213277  13.8995845
  42.2475364  50.1501936  13.9560908  27.5220023  42.8224386  27.5405347
  26.7801759  42.9707021  28.1269978  27.2012767  43.0832651  26.6772097
  43.8043637  48.4506290  15.2095861  44.3294961  48.7893563  14.4845181
  43.7165989  47.5153305  15.0258995  35.4663686  52.3640364  27.3385737
  35.7750812  52.1189511  28.2108437  36.2639168  52.5687002  26.8504608
  35.4884298  54.5178273  19.5691114  35.0489288  54.0254652  20.2623971
  36.2392415  53.9751241  19.3283189  27.9676637  50.7089814  19.5715742
  28.7934657  50.4093586  19.1914386  27.6170689  49.9397437  20.0205531
  32.9358170  50.0616282  21.6413416  32.3138179  49.3986987  21.3415644
  33.6063037  50.0877414  20.9587063  26.1685242  48.6276141  20.5304676
  25.3317150  48.1998315  20.3488677  26.1408887  48.8208584  21.4675467
  33.0082697  38.5398070  31.2345922  33.0570853  39.4160193  30.8523691
  33.5505211  37.9975464  30.6617565  43.4937543  49.0839194  30.5147059
  42.7033087  49.0663333  29.9751558  43.2570898  49.6227487  31.2696095
  43.6135418  45.9331660  27.8279787  43.6633423  45.7681668  28.7695310
  43.5049341  45.0658919  27.4377668  40.9039180  41.9162588  29.1439094
  41.8049043  41.7769053  28.8523092  40.9787155  42.0817043  30.0837272
  35.2381986  39.2929443  27.9892280  34.3685295  39.5863009  27.7174869
  35.4741466  39.8769888  28.7099544  45.1153615  48.3528602  28.0721809
  44.8238423  48.7158582  28.9085270  44.5025746  47.6395610  27.8935141
  46.3149297  45.9181481  20.5924379  47.1496189  46.3571285  20.7561939
  46.4508426  45.4420135  19.7732625  43.3640803  43.4761216  26.5401867
  43.8394925  43.6688863  25.7320718  42.4406368  43.5320402  26.2945251
  37.9421020  35.5109060  25.5057701  38.4602963  36.2470087  25.1804189
  37.5876152  35.8173053  26.3404460  42.0642472  40.3526976  24.7730172
  43.0159895  40.4525074  24.7942397  41.8945922  39.5605245  25.2828257
  40.0856852  37.4382560  24.9589573  39.4906784  37.7187572  24.2636062
  39.8006548  37.9276460  25.7306315  39.2164342  51.3905486  13.7192206
  40.1495015  51.3251048  13.9225081  39.1287555  52.2261753  13.2606739
  44.5430550  43.5733096  23.8872472  44.5106870  42.6349097  24.0732156
  45.1531173  43.6517133  23.1538297  44.6925038  40.3644139  23.9330755
  44.1764087  39.5802596  23.7460684  45.5764987  40.0362856  24.0977275
  50.3607100  44.6349103  23.0278509  51.0910488  44.3734391  23.5886212
  49.7514045  43.8977825  23.0680577  48.4422397  42.7756965  23.6252960
  47.7155560  42.6412930  23.0169452  48.0269684  43.0833794  24.4309678
  36.2652573  46.4946895  31.3900333  37.1855583  46.6725494  31.5840380
  36.2302156  45.5502941  31.2380032  29.2614646  44.4047930  24.0323114
  29.4800656  45.3365038  24.0511148  29.6740420  44.0455904  24.8177918
  34.1342511  39.9781136  33.4225863  34.0339238  40.9275493  33.3537954
  33.9164053  39.6499374  32.5501933  25.3522998  45.3088400  22.2846729
  24.6586470  44.8942353  21.7716684  26.0995989  45.3508937  21.6880148
  33.9973781  43.4078274  32.2390925  33.5140863  44.2078635  32.4454814
  34.0834720  43.4186219  31.2858369  29.9247119  47.2982809  24.2759359
  30.8790372  47.2666751  24.2089290  29.7259642  46.8373433  25.0909585
  30.5146501  45.8683925  26.8430156  31.3339390  46.3628004  26.8664994
  30.7883308  44.9515893  26.8147724  43.6227633  38.2841198  19.9212451
  44.3988023  38.7737651  20.1937068  42.8975767  38.7099253  20.3784321
  46.0600192  38.9968818  20.9786392  46.6544683  38.7564554  20.2679700
  46.1326775  38.2775948  21.6059928  28.2797347  52.8402429  21.2929557
  28.1451815  52.0802829  20.7267555  27.8629410  53.5643328  20.8258345
  40.2454121  43.7749213  16.4208402  40.1889322  44.2317765  15.5816034
  40.7982463  43.0139898  16.2431245  44.0558927  39.5638945  17.2458522
  43.7995861  39.1635581  18.0766729  43.4311795  40.2782739  17.1208661
  48.3671264  42.3035019  19.7529813  47.8070822  42.3728208  20.5261375
  47.7614768  42.1276003  19.0329309  31.4366473  53.7371746  21.5047999
  31.3198857  54.6817178  21.4026689  30.6158920  53.4345307  21.8933798
  41.3243008  48.4621881  12.3504592  42.1588612  48.0303080  12.1682067
  41.1627351  48.2903895  13.2781486  25.7681415  40.2022059  27.5422353
  26.4140279  39.6921013  28.0309579  25.5598566  40.9390741  28.1165779
  38.2934807  47.2702907  33.0414494  39.1625967  47.4443559  32.6801129
  37.8141559  48.0897323  32.9190223  32.4620987  54.3900008  24.7203928
  33.3648234  54.4223618  25.0370423  32.2358357  53.4600458  24.7350263
  34.2174589  53.1430994  21.3814006  33.2670220  53.1432856  21.2678379
  34.5207076  52.3963729  20.8650041  30.1078906  37.3489676  31.6397368
  30.9710368  36.9926481  31.8500692  29.5344317  37.0103571  32.3272772
  49.9527283  58.9791532  22.4459769  50.5905693  58.8598280  21.7423109
  49.8348126  59.9272376  22.5047721  46.7616989  58.9318961  22.3821293
  46.4235501  58.8160025  21.4941828  47.6306757  58.5310126  22.3622299
  42.6203805  60.7854437  18.3718184  42.0568670  60.6944374  17.6034472
  42.5056200  59.9654341  18.8520677  47.2436772  60.0853812  28.3407499
  47.2325413  59.6906611  27.4688003  47.4057412  59.3519885  28.9341270
  40.1668237  62.2805629  21.2102405  40.9589529  61.9396453  20.7948704
  40.4064887  62.3900604  22.1304558  48.2003364  64.4525405  13.6832649
  47.5491343  65.0379485  13.2966663  48.9947726  64.9831600  13.7427687
  42.1258991  61.5414542  14.0819784  42.8989867  60.9943529  13.9432659
  42.4784390  62.4058791  14.2934245  43.9644033  62.8690924  27.2886683
  43.6733899  63.7736555  27.1733349  44.6001018  62.9107452  28.0030752
  44.8900240  60.2467773  23.8788043  45.4863812  60.0223795  23.1645005
  44.9475212  59.5052518  24.4813490  44.4625269  57.7007208  11.7138233
  44.7150789  57.1788729  10.9521696  43.5249828  57.5373353  11.8164917
  49.5068551  56.7042986  19.5212977  50.2931641  56.2862409  19.1703394
  49.7707256  57.6089078  19.6894625  49.6778629  62.1415837  14.2201634
  49.0424462  62.2150463  14.9322538  49.3476035  62.7309435  13.5420713
  54.9076979  56.6418220  20.4245955  55.6402150  56.0717436  20.6583785
  54.1516334  56.2539820  20.8652461  44.1821557  59.6035314  13.9162608
  44.0657815  58.9280217  14.5843693  44.2923817  59.1167688  13.0994761
  46.5253098  59.0645461  17.6209298  46.1611306  58.5376082  18.3322219
  47.3820214  58.6743930  17.4475783  52.4302399  50.3539794  24.8840564
  52.0985724  51.2235205  24.6601779  51.8348012  50.0376078  25.5634594
  46.1658585  54.0935361  12.6170646  46.3332988  54.9615597  12.9841117
  45.9755754  54.2562642  11.6931935  48.9233918  62.5552340  24.2836477
  48.6234642  63.4577378  24.1752284  48.5784978  62.2884523  25.1357629
  42.3746400  59.0066136  20.3173181  41.4496896  58.8742351  20.5250873
  42.6230813  59.7860356  20.8143123  52.3231062  55.0734880  21.9633914
  51.4147940  55.0050288  21.6692675  52.2718658  55.5506825  22.7915739
  46.1447806  56.5493018  13.6017313  46.0247431  56.9950069  14.4402793
  45.4500395  56.8978336  13.0430851  39.7355211  58.6499410  21.1516970
  39.8647592  58.9033889  22.0656382  39.0552662  59.2427118  20.8321625
  43.9054698  69.3196660  17.2507444  43.8278728  70.2704485  17.3295925
  43.3016342  68.9742532  17.9082371  46.3971928  56.4924525  29.9068811
  45.6205262  57.0518446  29.8971676  47.0362491  56.9781308  30.4283681
  54.1892709  53.2751318  23.7411788  53.5467089  53.5683851  23.0951582
  53.6847637  53.1604239  24.5464984  51.8432872  57.0214491  14.4297647
  52.7550728  57.2541878  14.2545345  51.3342519  57.6051536  13.8672726
  44.6518300  59.3009979  29.4686778  45.3932985  59.8395023  29.1921602
  43.9455286  59.9276267  29.6258330  50.1273640  61.4439119  28.0658940
  50.5356996  61.0021530  27.3213572  49.4050901  60.8691747  28.3193133
  46.4804710  56.3811726  25.4392497  47.3265905  56.8051140  25.5827146
  46.4203348  55.7245350  26.1331060  50.4502455  62.0040310  21.8211229
  49.8211317  62.1686024  21.1187296  50.0628117  62.4181919  22.5922193
  54.3291686  62.9394748  19.1755592  53.6442725  63.3193649  18.6252626
  54.4135536  63.5490074  19.9087540  49.6304155  54.0416094  27.0973670
  49.3865087  54.7958155  26.5607946  49.9064086  54.4201442  27.9320917
  51.5842618  60.5854707  25.7750936  51.7959513  61.2286467  25.0985317
  51.5372366  59.7517023  25.3072866  49.1868847  53.1972527  22.6787508
  48.3253326  53.4953781  22.9704246  49.2131282  53.4142926  21.7468541
  46.0030416  61.7414718  19.0861314  46.4668762  62.0202421  18.2965936
  45.7387215  60.8398162  18.9034404  42.8954498  61.2886199  22.0241077
  43.4655855  61.7173468  21.3858561  43.4862609  61.0068784  22.7225263
  44.9399303  57.8637870  15.8950879  45.6423346  58.3158914  16.3624805
  44.6079931  57.2221689  16.5230772  43.3879664  56.4549627  30.2702088
  42.7578325  57.1365908  30.5037485  43.2815752  56.3432709  29.3255226
  38.6824636  56.1221423  21.1968012  37.8923690  56.3778951  20.7208123
  39.1735884  56.9369761  21.3020053  52.6988446  63.4626662  23.9473293
  53.5205890  63.0606849  23.6655975  52.6950849  63.3594896  24.8989409
  40.6339382  56.4866002  18.1551489  39.8370545  56.5984696  18.6734985
  40.4064974  56.8252654  17.2892380  46.4645049  63.0110705  26.1034004
  46.5289482  63.4731113  26.9392175  45.7555973  62.3808070  26.2316313
  36.9662339  56.3751913  23.6283003  37.2170378  57.2598923  23.8940579
  37.5021888  56.1956515  22.8558095  60.7894439  59.8065411  20.2958265
  60.0358147  59.2372809  20.1402269  60.9241980  59.7728075  21.2428899
  46.1793067  64.6778813  15.9712984  46.0438742  65.5230349  16.3997832
  46.7202880  64.8798091  15.2078918  42.6660407  50.7570393  32.6327339
  42.2727352  50.2036591  33.3074983  43.4826547  51.0680971  33.0233857
  39.6322465  62.1954251  16.5440909  40.1446985  62.9897501  16.6946474
  40.2845177  61.4980541  16.4774511  41.4417349  65.3120007  18.6263662
  41.6183978  66.2337972  18.4384646  42.2374183  64.9978426  19.0558042
  45.5828368  52.1728272  30.2247596  46.3238081  52.7735425  30.1452058
  45.8146291  51.4305910  29.6665638  40.7269706  57.3584639  28.5025825
  40.6123221  56.4569896  28.8032924  39.8714224  57.6048336  28.1510642
  47.8061544  65.3002379  30.1013326  47.3625398  64.5138758  29.7834231
  48.4678757  65.4881530  29.4357217  42.5648665  66.8298181  24.6274005
  43.1156090  66.7015244  23.8550998  41.7260141  67.1293070  24.2768897
  49.9042782  65.5805179  28.1294727  49.8861257  66.4014060  27.6374996
  50.8262702  65.4559255  28.3544868  46.3615836  63.0949309  28.9718236
  46.8944173  62.3337597  28.7417544  45.8329917  62.8022961  29.7142390
  49.5285531  48.2009375  24.5011877  49.1849800  49.0911016  24.4250988
  49.8964493  48.0111032  23.6381462  37.5971381  60.5242905  17.3200480
  38.4346603  60.9339914  17.1034187  37.7749649  59.5842347  17.2900673
  49.4935813  58.1917986  13.0084313  48.9782437  58.9622591  13.2472700
  49.2213122  57.5183122  13.6317374  47.0782924  53.0367687  18.0669551
  46.2224521  52.6474537  17.8875190  47.4909876  53.1159647  17.2069336
  48.6082071  50.5714030  22.4661111  48.1046867  50.5344165  21.6528916
  48.9012678  51.4806773  22.5257767  44.8524957  50.6552760  21.4727292
  45.7177954  50.4595568  21.1133182  44.9202466  50.4263111  22.3996649
  54.4670088  60.9450341  14.9437486  53.6899530  60.6061500  14.4992648
  55.1461569  60.9502964  14.2692451  49.2822117  56.0645078  14.8344094
  48.9772252  56.3791227  15.6854237  50.2352559  56.1426498  14.8771427
  47.7268548  62.2235301  16.4837048  47.1989910  61.4888061  16.1710285
  47.2256051  63.0009978  16.2377016  52.7061394  60.4184322  21.6004094
  52.0485069  61.1083583  21.6884223  53.5101794  60.8080754  21.9438080
  42.4587276  52.8854968  18.8443659  43.0331028  52.6630149  18.1116852
  43.0458259  52.9543662  19.5972261  51.5166853  58.7728694  19.6508036
  52.0298735  59.4058686  20.1529745  52.1668077  58.1729890  19.2851396
  42.7856863  54.9159429  12.8639544  41.9494175  55.2534115  13.1848819
  42.6461633  54.7808408  11.9266681  44.7609944  49.7596216  17.5718729
  44.1074356  49.4445234  16.9475343  44.7190418  49.1371957  18.2978552
  45.8721149  60.0415512   9.4872021  44.9648210  59.8104765   9.6863170
  46.3692181  59.2453131   9.6746002  48.7789228  68.7513019  12.4068707
  48.1050926  69.0544716  13.0153665  49.1655049  69.5542099  12.0574164
  47.9947684  56.2478150  21.8966376  47.0770246  56.4693097  21.7388064
  48.4107828  56.3224461  21.0378084  48.7782732  57.6469566  17.0269057
  49.5254551  58.1590963  16.7176179  49.0474321  57.3253618  17.8873450
  47.0509382  60.1428106  14.0096011  46.1420601  59.8587139  14.1068481
  47.0804466  60.5627185  13.1499318  52.2828649  63.7534696  17.7787178
  51.8290977  62.9125606  17.8352369  51.6522616  64.3896094  18.1161959
  51.2261569  54.6826682  19.0087846  50.4884326  54.1704068  19.3398088
  51.4788343  54.2427064  18.1971123  50.7261589  65.5911193  18.7136997
  51.0184563  66.1516250  17.9949362  51.2360209  65.8839754  19.4690156
  51.3273196  47.4602934  19.6029615  51.6332073  46.6000297  19.3155530
  52.0525801  48.0520554  19.4028609  37.6197552  57.8633621  17.9911213
  37.4221952  57.2702981  17.2662280  37.0644216  57.5585831  18.7087152
  45.5994276  57.7556727  20.1105806  45.6542886  56.8030563  20.0348283
  44.7885478  57.9116166  20.5947105  46.7485470  61.6836850  11.3484089
  46.3104900  60.9672709  10.8889727  47.4895911  61.9112965  10.7869181
  43.5386636  56.3733787  17.8696185  42.7254502  56.6727957  18.2761377
  44.0345630  55.9789476  18.5870667  45.6895214  66.3691544  19.8030450
  45.6471393  66.5952390  18.8738982  46.6057913  66.1354918  19.9516251
  49.1360848  56.8375611  26.7011079  49.4910235  57.0647084  27.5605545
  49.7832979  57.1693988  26.0788334  54.8658585  59.9594047  17.4060408
  54.7276483  60.1495643  16.4781597  54.5094803  60.7213430  17.8628459
  43.0300711  53.9452142  23.4857420  43.6700090  53.8040901  22.7880383
  42.1978241  53.6586656  23.1096022  54.8927964  62.0270574  22.4171679
  55.3264471  61.9345863  23.2654734  55.6059545  62.0028075  21.7791695
  43.8061015  63.2454573  19.5992412  44.6001613  62.7504893  19.3974987
  43.0952707  62.7172436  19.2360118  48.6255859  65.6272668  23.9504780
  48.6792881  66.1963605  24.7182496  47.7570641  65.7974553  23.5858817
  40.1143778  57.3897654  15.6752165  39.1841366  57.3282110  15.8922127
  40.2101250  56.8673607  14.8788806  40.0329327  53.9152467  18.2630407
  40.2936145  54.8297801  18.1539567  40.8546500  53.4476910  18.4127020
  41.5054253  55.3290224  25.4329231  42.1777306  55.1207587  24.7841880
  40.6784039  55.1312310  24.9934464  55.7543514  62.0694275  24.9504565
  55.9479404  62.9740085  25.1963840  55.6544132  61.6101694  25.7843150
  47.4079825  51.9552165  27.4494892  46.7607740  52.6542115  27.3559369
  48.1780840  52.3888309  27.8171140  50.8158622  62.2201018  30.5245445
  50.6644129  61.9911569  29.6075529  50.8063302  63.1771619  30.5376790
  47.5843959  59.7932930  25.5091712  48.5136019  59.9444090  25.3360679
  47.1634989  59.8816951  24.6540358  46.3832291  63.8183595  23.2790250
  46.2443376  63.4502379  24.1516188  45.5946887  64.3331234  23.1074207
  46.9780443  68.9192691  14.6215786  47.1532198  68.4480734  15.4361409
  46.2913231  69.5458457  14.8497047  47.9337506  63.1965197  20.6679087
  47.5987338  63.1565967  21.5636737  47.4341452  62.5309913  20.1949498
  41.9081750  58.6032827  26.1931668  41.7701548  57.8713066  26.7943208
  42.8186673  58.5141728  25.9115856  50.8696697  60.5421232  10.9416147
  50.2525868  59.8168060  10.8449200  50.4013186  61.3030592  10.5983221
  44.5364050  58.3152787  25.6815348  45.2463669  57.6745979  25.6401967
  44.4933359  58.5665682  26.6041529  52.5250829  65.2520140  28.6021927
  52.4663375  64.5679360  27.9352510  52.9270348  65.9939130  28.1502553
  43.2492984  55.3018005  27.5010988  42.7130341  54.8508743  28.1532584
  42.6609693  55.4363913  26.7581452  41.5441528  72.0682054  21.3955646
  41.7838126  72.7000578  22.0734665  40.7010724  71.7170094  21.6821006
  42.6595243  54.7606656  10.0637451  41.7824710  54.6395457   9.6999698
  43.1352996  53.9692734   9.8116340  52.5268236  63.2159724  26.8335907
  51.6395015  62.8785646  26.9562306  53.0966787  62.4842755  27.0704672
  34.1797384  59.5483816  20.1578958  34.8668423  59.2345546  19.5699974
  34.0245512  60.4525180  19.8846210  38.9832106  54.4374012  24.5863982
  38.8990294  53.8299682  23.8514392  38.1614812  54.9283031  24.5873478
  46.0569390  67.8761176  23.7997150  45.9839561  68.6816148  24.3116455
  45.6146783  68.0753142  22.9745172  45.8459169  67.1132946  17.3099972
  45.0626691  67.6554627  17.4038196  46.5451915  67.6306926  17.7094213
  49.1555820  52.9227576  19.9534177  49.6524519  52.1697538  19.6335247
  48.3842801  52.9591893  19.3877386  57.0085577  58.6267941  21.5952469
  56.9975453  59.5092657  21.2246402  56.1402956  58.2739492  21.4007006
  48.5168073  67.7748010  25.9555309  49.2296046  68.4095475  25.8831210
  48.0258102  67.8711876  25.1395311  50.2385600  61.6799263  17.5272601
  49.3041879  61.8000726  17.3577305  50.4162269  60.7771730  17.2632610
  45.7390788  55.0644959  19.6805862  45.3688576  54.5115999  20.3686767
  46.2349881  54.4603092  19.1280862  53.6258152  57.5216582  18.0622635
  54.0918604  58.3544574  17.9882937  54.0765652  57.0561564  18.7667893
  43.5679987  65.5242454  26.7760880  44.2689446  66.1578937  26.9290274
  43.0975102  65.8657185  26.0156519  51.6934383  63.8660404  15.0608787
  51.9694227  63.7516998  15.9702661  50.8238881  63.4677889  15.0220960
  51.5974814  49.8897169  22.1013536  50.6837894  50.1201396  22.2695743
  52.0267916  49.9735613  22.9527568  51.3681273  58.0787061  24.6013430
  50.7152723  58.3262969  23.9465883  51.7461653  57.2651200  24.2675907
  48.3288447  68.1146755  18.7041600  48.5110841  67.2968410  19.1669353
  49.1521433  68.3314447  18.2666490  48.6630612  67.0414940  15.9656649
  49.1918379  66.5307394  15.3526811  48.9258832  66.7257470  16.8302182
  47.4168846  58.8206872  31.0879467  46.7409483  58.7201002  31.7581842
  48.2396480  58.6646086  31.5515464  39.1647705  65.0578809  23.7091982
  39.7501142  64.3122497  23.8419887  38.9672543  65.3682766  24.5928646
  42.0186360  68.0930056  18.7254425  41.3496735  68.5776184  18.2418465
  41.8799230  68.3399277  19.6397803  33.7565360  57.6284409  22.4296426
  33.7949459  57.0948000  23.2233544  33.2505652  57.1019615  21.8107403
  46.1591629  70.1273800  25.3237083  46.7109937  70.2905421  26.0886168
  46.4997822  70.7178238  24.6517108  41.1356122  52.4748950  25.9258968
  41.1997448  53.3363781  25.5136366  41.0723242  51.8622951  25.1931326
  40.6108394  54.5472082  29.5732002  41.2380433  54.1649160  30.1869526
  39.7536313  54.3286284  29.9387695  51.0102503  64.9535057  31.1785738
  51.5542407  65.5665016  30.6840692  50.4289348  65.5114636  31.6952751
  37.3873937  56.3548511  15.5050357  37.6827378  55.4459190  15.4517411
  36.4861973  56.3336251  15.1831359  49.2960016  68.0755775  22.3100765
  49.1711155  67.2745515  21.8011711  49.9539107  68.5701969  21.8214735
  40.9168184  54.4304508  21.4877906  40.1954770  55.0440476  21.3485379
  41.7061440  54.9662273  21.4094551  51.3594924  65.8764795  23.9380315
  50.4125260  65.7570147  23.8658642  51.7077698  64.9887293  24.0206577
  43.7194498  51.7658934  27.7618557  44.2428900  52.0121231  28.5244867
  43.5006831  52.5978969  27.3421695  39.1161779  54.0362609  15.6289682
  38.7874485  53.1559988  15.4464788  39.4701150  53.9810278  16.5166071
  48.3641358  65.6717512  20.1384668  48.2166320  64.7434219  20.3192238
  49.1894851  65.6937602  19.6541743  42.2303602  54.3235579  15.9965160
  42.5699674  54.8521500  15.2743768  42.6775722  54.6615985  16.7723726
  51.9675480  66.4946070  21.2249540  52.8922027  66.2888932  21.0873992
  51.7990783  66.2462472  22.1338882  44.9247043  52.7072629  25.4468228
  44.5843863  51.9080443  25.8488908  44.2186049  53.0074340  24.8745061
  45.5763515  49.7921942  23.8995551  46.3989584  49.3182420  23.7774441
  45.8201578  50.5712426  24.3994237  44.2171749  52.8210200  14.1958453
  44.9380112  53.1991453  13.6922169  43.5937053  53.5399077  14.2993430
  48.3602872  53.5255349  15.1316785  48.5766486  54.4079987  14.8305613
  47.8796939  53.1341563  14.4022427  43.1002093  56.4841063  21.7087529
  42.9546674  56.7981366  22.6011811  42.6227297  57.1025963  21.1558428
  44.9598476  53.4743611  21.7568419  44.9460045  52.5784704  21.4200717
  45.6770904  53.4814274  22.3906705  46.8124607  53.9080951  23.8021546
  46.5542385  54.8298021  23.8005877  46.2809647  53.5111385  24.4922011
  51.7570796  67.0131738  16.5811632  51.9307673  66.4478160  15.8285484
  52.2499687  67.8132633  16.3991122  37.5747756  59.0246407  24.6475191
  37.0301224  59.8006215  24.7795465  38.4527105  59.3717211  24.4894312
  44.3635372  52.3557991  17.0255989  44.4851283  51.4274637  17.2246877
  44.0737415  52.3696677  16.1134305  47.2326563  50.0412901  20.1622709
  47.2548259  50.1052234  19.2074689  47.6494622  49.2017410  20.3563215
  57.6110187  59.7768161  18.2001932  58.0541333  59.0275486  17.8021055
  56.7336697  59.7678297  17.8175664  52.7445968  66.3298502  13.6808530
  53.4396873  66.9505195  13.8995845  53.0869118  65.4793853  13.9560908
  38.3613777  58.1516303  27.5405347  37.6195513  58.2998939  28.1269978
  38.0406522  58.4124569  26.6772097  54.6437391  63.7798208  15.2095861
  55.1688715  64.1185481  14.4845181  54.5559744  62.8445223  15.0258995
  46.3057440  67.6932281  27.3385737  46.6144567  67.4481428  28.2108437
  47.1032922  67.8978920  26.8504608  46.3278052  69.8470191  19.5691114
  45.8883042  69.3546570  20.2623971  47.0786169  69.3043159  19.3283189
  38.8070391  66.0381732  19.5715742  39.6328411  65.7385504  19.1914386
  38.4564443  65.2689354  20.0205531  43.7751924  65.3908200  21.6413416
  43.1531934  64.7278905  21.3415644  44.4456791  65.4169332  20.9587063
  37.0078996  63.9568058  20.5304676  36.1710904  63.5290233  20.3488677
  36.9802642  64.1500502  21.4675467  43.8476452  53.8689988  31.2345922
  43.8964607  54.7452111  30.8523691  44.3898966  53.3267381  30.6617565
  54.3331297  64.4131111  30.5147059  53.5426841  64.3955250  29.9751558
  54.0964652  64.9519405  31.2696095  54.4529172  61.2623578  27.8279787
  54.5027177  61.0973585  28.7695310  54.3443096  60.3950837  27.4377668
  43.3365431  63.9412123  15.1171876  43.4853552  64.6247588  14.4638549
  44.1431875  63.9217214  15.6321332  51.7432935  57.2454506  29.1439094
  52.6442798  57.1060971  28.8523092  51.8180909  57.4108961  30.0837272
  46.0775740  54.6221361  27.9892280  45.2079050  54.9154927  27.7174869
  46.3135221  55.2061806  28.7099544  55.9547369  63.6820519  28.0721809
  55.6632178  64.0450500  28.9085270  55.3419501  62.9687528  27.8935141
  57.1543052  61.2473399  20.5924379  57.9889943  61.6863203  20.7561939
  57.2902180  60.7712052  19.7732625  54.2034558  58.8053134  26.5401867
  54.6788679  58.9980780  25.7320718  53.2800123  58.8612320  26.2945251
  41.0918064  59.9677301  16.1232945  40.8464106  59.0639631  16.3213155
  41.2613979  59.9694452  15.1812423  48.7814774  50.8400978  25.5057701
  49.2996718  51.5762004  25.1804189  48.4269907  51.1464971  26.3404460
  40.3613712  55.7005659  13.6219107  39.6682957  55.7750014  12.9659143
  40.1165464  54.9366002  14.1440624  49.0327368  47.2601260  21.0258597
  49.3129122  46.5924449  21.6519024  49.8177975  47.4530356  20.5133261
  46.8360837  66.4360254  12.5883624  46.2634804  67.0550441  12.1354096
  47.4093630  66.9859616  13.1223546  52.9036227  55.6818894  24.7730172
  53.8553649  55.7816992  24.7942397  52.7339677  54.8897163  25.2828257
  50.9250606  52.7674477  24.9589573  50.3300538  53.0479490  24.2636062
  50.6400303  53.2568378  25.7306315  50.0558096  66.7197404  13.7192206
  50.9888770  66.6542966  13.9225081  49.9681309  67.5553671  13.2606739
  52.6846113  66.0363274  10.6796154  52.6059745  65.7023138  11.5731911
  53.5055780  66.5285042  10.6787626  55.3824304  58.9025014  23.8872472
  55.3500624  57.9641014  24.0732156  55.9924928  58.9809050  23.1538297
  47.2207635  57.7721067   9.9299676  48.1666740  57.6427275   9.9988094
  46.8421880  57.0335729  10.4069104  55.5318793  55.6936057  23.9330755
  55.0157841  54.9094514  23.7460684  56.4158741  55.3654774  24.0977275
  53.1929520  49.4377073  19.8926568  52.9954341  49.1292161  20.7769900
  53.8029225  50.1638712  20.0224498  61.2000854  59.9641021  23.0278509
  61.9304243  59.7026309  23.5886212  60.5907800  59.2269743  23.0680577
  59.2816151  58.1048883  23.6252960  58.5549315  57.9704848  23.0169452
  58.8663438  58.4125712  24.4309678  47.1046328  61.8238813  31.3900333
  48.0249337  62.0017412  31.5840380  47.0695911  60.8794858  31.2380032
  45.4050552  55.6971043   9.8654561  44.4982008  55.4004156   9.9417275
  45.6826533  55.4000861   8.9988848  36.3228493  57.0177406  20.3153608
  36.0031277  56.1642715  20.0227982  35.7761921  57.2325985  21.0711575
  40.1008400  59.7339847  24.0323114  40.3194410  60.6656955  24.0511148
  40.5134174  59.3747822  24.8177918  47.0212618  50.2407933  16.0198803
  46.2113346  49.8955018  16.3954049  47.7097035  49.9315477  16.6086414
  48.9503166  49.3185980  17.6423099  49.5034205  49.7381433  18.3013122
  49.1873253  48.3921728  17.6846055  44.9736266  55.3073053  33.4225863
  44.8732992  56.2567410  33.3537954  44.7557808  54.9791292  32.5501933
  44.1749337  52.5557978  10.0066541  45.0368501  52.8812877  10.2662358
  44.3599681  51.7689474   9.4939606  36.1916753  60.6380318  22.2846729
  35.4980224  60.2234271  21.7716684  36.9389744  60.6800854  21.6880148
  52.3281973  51.4286505  17.1501764  51.7480642  52.0871309  16.7679816
  52.0617906  50.6063849  16.7389181  50.7785540  50.8291562  19.3523084
  51.2785318  50.9408097  18.5437403  51.4221148  50.5252615  19.9923892
  44.8367536  58.7370192  32.2390925  44.3534617  59.5370552  32.4454814
  44.9228475  58.7478137  31.2858369  38.1053495  60.5698572  20.1612744
  38.0824183  60.6686259  19.2094627  38.4154132  61.4163723  20.4829910
  40.7640873  62.6274727  24.2759359  41.7184127  62.5958669  24.2089290
  40.5653397  62.1665351  25.0909585  41.3540255  61.1975843  26.8430156
  42.1733144  61.6919922  26.8664994  41.6277063  60.2807811  26.8147724
  51.1106851  53.5886595  16.2058112  50.2232706  53.8736246  15.9878307
  51.5260841  53.4280359  15.3585389  54.4621388  53.6133116  19.9212451
  55.2381778  54.1029569  20.1937068  53.7369522  54.0391170  20.3784321
  56.8993946  54.3260735  20.9786392  57.4938437  54.0856471  20.2679700
  56.9720530  53.6067866  21.6059928  39.1191102  68.1694346  21.2929557
  38.9845570  67.4094747  20.7267555  38.7023164  68.8935246  20.8258345
  50.2550065  63.3531270  10.3006132  50.9585915  63.5581272  10.9163787
  49.5312714  63.9208032  10.5655215  51.0847875  59.1041131  16.4208402
  51.0283077  59.5609683  15.5816034  51.6376218  58.3431816  16.2431245
  54.8952681  54.8930863  17.2458522  54.6389615  54.4927499  18.0766729
  54.2705549  55.6074657  17.1208661  59.2065019  57.6326936  19.7529813
  58.6464577  57.7020126  20.5261375  58.6008522  57.4567921  19.0329309
  42.2760228  69.0663663  21.5047999  42.1592612  70.0109096  21.4026689
  41.4552674  68.7637225  21.8933798  52.1636762  63.7913799  12.3504592
  52.9982366  63.3594997  12.1682067  52.0021105  63.6195813  13.2781486
  51.8182655  60.2945912  13.7160931  51.7631458  60.1290184  12.7749375
  51.1928710  61.0021945  13.8723121  36.6075169  55.5313977  27.5422353
  37.2534033  55.0212931  28.0309579  36.3992321  56.2682658  28.1165779
  49.1328562  62.5994824  33.0414494  50.0019721  62.7735476  32.6801129
  48.6535313  63.4189241  32.9190223  45.1278780  49.7954021  13.2946250
  45.1157450  50.7395861  13.4514520  46.0202202  49.6124167  13.0005711
  43.3014742  69.7191925  24.7203928  44.2041989  69.7515535  25.0370423
  43.0752112  68.7892376  24.7350263  45.0568344  68.4722912  21.3814006
  44.1063975  68.4724773  21.2678379  45.3600830  67.7255646  20.8650041
  48.9430899  46.3896798  17.5492186  48.1763295  45.8355285  17.6948869
  49.3541604  46.4618667  18.4106338  40.9472660  52.6781594  31.6397368
  41.8104122  52.3218399  31.8500692  40.3738071  52.3395489  32.3272772
  60.7921037  74.3083450  22.4459769  61.4299447  74.1890197  21.7423109
  60.6741880  75.2564294  22.5047721  57.6010744  74.2610878  22.3821293
  57.2629255  74.1451943  21.4941828  58.4700512  73.8602043  22.3622299
  53.4597559  76.1146355  18.3718184  52.8962425  76.0236292  17.6034472
  53.3449954  75.2946259  18.8520677  58.0830527  75.4145730  28.3407499
  58.0719167  75.0198528  27.4688003  58.2451166  74.6811803  28.9341270
  51.0061991  77.6097546  21.2102405  51.7983283  77.2688371  20.7948704
  51.2458641  77.7192521  22.1304558  59.0397118  79.7817322  13.6832649
  58.3885098  80.3671403  13.2966663  59.8341481  80.3123517  13.7427687
  52.9652745  76.8706459  14.0819784  53.7383621  76.3235447  13.9432659
  53.3178144  77.7350709  14.2934245  54.8037788  78.1982842  27.2886683
  54.5127654  79.1028473  27.1733349  55.4394772  78.2399369  28.0030752
  55.7293995  75.5759690  23.8788043  56.3257567  75.3515713  23.1645005
  55.7868966  74.8344436  24.4813490  55.3019023  73.0299126  11.7138233
  55.5544544  72.5080647  10.9521696  54.3643582  72.8665271  11.8164917
  60.3462306  72.0334904  19.5212977  61.1325395  71.6154327  19.1703394
  60.6101010  72.9380996  19.6894625  60.5172383  77.4707754  14.2201634
  59.8818216  77.5442381  14.9322538  60.1869790  78.0601353  13.5420713
  65.7470733  71.9710137  20.4245955  66.4795905  71.4009354  20.6583785
  64.9910089  71.5831738  20.8652461  55.0215312  74.9327232  13.9162608
  54.9051570  74.2572135  14.5843693  55.1317572  74.4459606  13.0994761
  57.3646853  74.3937379  17.6209298  57.0005060  73.8668000  18.3322219
  58.2213969  74.0035848  17.4475783  63.2696153  65.6831711  24.8840564
  62.9379478  66.5527122  24.6601779  62.6741767  65.3667995  25.5634594
  57.0052340  69.4227278  12.6170646  57.1726742  70.2907515  12.9841117
  56.8149509  69.5854560  11.6931935  59.7627673  77.8844257  24.2836477
  59.4628396  78.7869296  24.1752284  59.4178732  77.6176440  25.1357629
  53.2140154  74.3358054  20.3173181  52.2890651  74.2034268  20.5250873
  53.4624568  75.1152273  20.8143123  63.1624817  70.4026797  21.9633914
  62.2541694  70.3342206  21.6692675  63.1112413  70.8798742  22.7915739
  56.9841561  71.8784936  13.6017313  56.8641186  72.3241987  14.4402793
  56.2894149  72.2270254  13.0430851  50.5748965  73.9791328  21.1516970
  50.7041347  74.2325807  22.0656382  49.8946417  74.5719036  20.8321625
  54.7448453  84.6488578  17.2507444  54.6672482  85.5996403  17.3295925
  54.1410096  84.3034450  17.9082371  57.2365682  71.8216443  29.9068811
  56.4599017  72.3810363  29.8971676  57.8756246  72.3073226  30.4283681
  65.0286463  68.6043236  23.7411788  64.3860843  68.8975769  23.0951582
  64.5241392  68.4896156  24.5464984  62.6826627  72.3506409  14.4297647
  63.5944483  72.5833796  14.2545345  62.1736274  72.9343453  13.8672726
  55.4912055  74.6301896  29.4686778  56.2326739  75.1686940  29.1921602
  54.7849040  75.2568185  29.6258330  60.9667394  76.7731037  28.0658940
  61.3750750  76.3313447  27.3213572  60.2444656  76.1983664  28.3193133
  57.3198464  71.7103644  25.4392497  58.1659660  72.1343057  25.5827146
  57.2597102  71.0537268  26.1331060  61.2896209  77.3332227  21.8211229
  60.6605072  77.4977942  21.1187296  60.9021871  77.7473837  22.5922193
  65.1685441  78.2686665  19.1755592  64.4836479  78.6485567  18.6252626
  65.2529290  78.8781992  19.9087540  60.4697910  69.3708012  27.0973670
  60.2258842  70.1250073  26.5607946  60.7457840  69.7493360  27.9320917
  62.4236373  75.9146624  25.7750936  62.6353268  76.5578384  25.0985317
  62.3766121  75.0808941  25.3072866  60.0262602  68.5264445  22.6787508
  59.1647081  68.8245699  22.9704246  60.0525036  68.7434844  21.7468541
  56.8424171  77.0706636  19.0861314  57.3062516  77.3494339  18.2965936
  56.5780969  76.1690080  18.9034404  53.7348252  76.6178117  22.0241077
  54.3049609  77.0465386  21.3858561  54.3256364  76.3360702  22.7225263
  55.7793057  73.1929788  15.8950879  56.4817100  73.6450832  16.3624805
  55.4473686  72.5513607  16.5230772  54.2273419  71.7841545  30.2702088
  53.5972079  72.4657825  30.5037485  54.1209506  71.6724626  29.3255226
  49.5218391  71.4513341  21.1968012  48.7317445  71.7070869  20.7208123
  50.0129638  72.2661678  21.3020053  63.5382201  78.7918580  23.9473293
  64.3599644  78.3898767  23.6655975  63.5344603  78.6886814  24.8989409
  51.4733136  71.8157920  18.1551489  50.6764300  71.9276614  18.6734985
  51.2458729  72.1544572  17.2892380  57.3038804  78.3402623  26.1034004
  57.3683236  78.8023030  26.9392175  56.5949728  77.7099988  26.2316313
  47.8056094  71.7043831  23.6283003  48.0564132  72.5890841  23.8940579
  48.3415642  71.5248433  22.8558095  71.6288194  75.1357328  20.2958265
  70.8751902  74.5664726  20.1402269  71.7635735  75.1019993  21.2428899
  57.0186822  80.0070731  15.9712984  56.8832496  80.8522266  16.3997832
  57.5596634  80.2090008  15.2078918  53.5054161  66.0862310  32.6327339
  53.1121107  65.5328509  33.3074983  54.3220302  66.3972889  33.0233857
  50.4716219  77.5246169  16.5440909  50.9840740  78.3189419  16.6946474
  51.1238932  76.8272459  16.4774511  52.2811104  80.6411925  18.6263662
  52.4577732  81.5629890  18.4384646  53.0767937  80.3270344  19.0558042
  56.4222122  67.5020190  30.2247596  57.1631836  68.1027343  30.1452058
  56.6540045  66.7597827  29.6665638  51.5663460  72.6876557  28.5025825
  51.4516975  71.7861814  28.8032924  50.7107978  72.9340254  28.1510642
  58.6455298  80.6294297  30.1013326  58.2019152  79.8430676  29.7834231
  59.3072512  80.8173448  29.4357217  53.4042419  82.1590099  24.6274005
  53.9549844  82.0307162  23.8550998  52.5653895  82.4584988  24.2768897
  60.7436536  80.9097097  28.1294727  60.7255011  81.7305978  27.6374996
  61.6656456  80.7851172  28.3544868  57.2009590  78.4241227  28.9718236
  57.7337927  77.6629515  28.7417544  56.6723671  78.1314878  29.7142390
  60.3679285  63.5301292  24.5011877  60.0243555  64.4202934  24.4250988
  60.7358248  63.3402950  23.6381462  48.4365136  75.8534823  17.3200480
  49.2740358  76.2631831  17.1034187  48.6143404  74.9134265  17.2900673
  60.3329568  73.5209904  13.0084313  59.8176191  74.2914508  13.2472700
  60.0606876  72.8475040  13.6317374  57.9176679  68.3659604  18.0669551
  57.0618275  67.9766455  17.8875190  58.3303631  68.4451565  17.2069336
  59.4475826  65.9005948  22.4661111  58.9440621  65.8636083  21.6528916
  59.7406432  66.8098690  22.5257767  55.6918711  65.9844677  21.4727292
  56.5571708  65.7887486  21.1133182  55.7596220  65.7555029  22.3996649
  65.3063842  76.2742258  14.9437486  64.5293285  75.9353418  14.4992648
  65.9855323  76.2794881  14.2692451  60.1215871  71.3936996  14.8344094
  59.8166007  71.7083145  15.6854237  61.0746313  71.4718416  14.8771427
  58.5662303  77.5527219  16.4837048  58.0383665  76.8179979  16.1710285
  58.0649806  78.3301895  16.2377016  63.5455149  75.7476239  21.6004094
  62.8878823  76.4375501  21.6884223  64.3495548  76.1372671  21.9438080
  53.2981031  68.2146885  18.8443659  53.8724782  67.9922067  18.1116852
  53.8852013  68.2835580  19.5972261  62.3560608  74.1020612  19.6508036
  62.8692490  74.7350604  20.1529745  63.0061832  73.5021808  19.2851396
  53.6250618  70.2451346  12.8639544  52.7887930  70.5826033  13.1848819
  53.4855387  70.1100326  11.9266681  55.6003698  65.0888134  17.5718729
  54.9468111  64.7737151  16.9475343  55.5584172  64.4663875  18.2978552
  56.7114903  75.3707429   9.4872021  55.8041965  75.1396683   9.6863170
  57.2085935  74.5745048   9.6746002  59.6182982  84.0804936  12.4068707
  58.9444681  84.3836633  13.0153665  60.0048804  84.8834017  12.0574164
  58.8341439  71.5770068  21.8966376  57.9164000  71.7985015  21.7388064
  59.2501582  71.6516378  21.0378084  59.6176486  72.9761483  17.0269057
  60.3648305  73.4882881  16.7176179  59.8868076  72.6545536  17.8873450
  57.8903137  75.4720024  14.0096011  56.9814356  75.1879057  14.1068481
  57.9198220  75.8919103  13.1499318  63.1222404  79.0826614  17.7787178
  62.6684731  78.2417523  17.8352369  62.4916371  79.7188012  18.1161959
  62.0655324  70.0118600  19.0087846  61.3278080  69.4995986  19.3398088
  62.3182097  69.5718981  18.1971123  61.5655343  80.9203110  18.7136997
  61.8578318  81.4808167  17.9949362  62.0753964  81.2131671  19.4690156
  62.1666951  62.7894852  19.6029615  62.4725828  61.9292215  19.3155530
  62.8919556  63.3812472  19.4028609  48.4591307  73.1925538  17.9911213
  48.2615707  72.5994899  17.2662280  47.9037971  72.8877748  18.7087152
  56.4388031  73.0848645  20.1105806  56.4936640  72.1322481  20.0348283
  55.6279233  73.2408084  20.5947105  57.5879224  77.0128768  11.3484089
  57.1498654  76.2964627  10.8889727  58.3289665  77.2404883  10.7869181
  54.3780391  71.7025704  17.8696185  53.5648256  72.0019875  18.2761377
  54.8739385  71.3081393  18.5870667  56.5288968  81.6983461  19.8030450
  56.4865147  81.9244308  18.8738982  57.4451667  81.4646836  19.9516251
  59.9754602  72.1667529  26.7011079  60.3303990  72.3939002  27.5605545
  60.6226733  72.4985906  26.0788334  65.7052339  75.2885965  17.4060408
  65.5670238  75.4787561  16.4781597  65.3488558  76.0505348  17.8628459
  53.8694465  69.2744060  23.4857420  54.5093845  69.1332819  22.7880383
  53.0371996  68.9878573  23.1096022  65.7321719  77.3562492  22.4171679
  66.1658225  77.2637781  23.2654734  66.4453299  77.3319992  21.7791695
  54.6454769  78.5746490  19.5992412  55.4395368  78.0796811  19.3974987
  53.9346462  78.0464354  19.2360118  59.4649614  80.9564586  23.9504780
  59.5186636  81.5255522  24.7182496  58.5964395  81.1266471  23.5858817
  50.9537533  72.7189572  15.6752165  50.0235121  72.6574028  15.8922127
  51.0495005  72.1965525  14.8788806  50.8723082  69.2444385  18.2630407
  51.1329899  70.1589718  18.1539567  51.6940254  68.7768828  18.4127020
  52.3448007  70.6582142  25.4329231  53.0171060  70.4499504  24.7841880
  51.5177794  70.4604228  24.9934464  66.5937268  77.3986192  24.9504565
  66.7873158  78.3032003  25.1963840  66.4937886  76.9393612  25.7843150
  58.2473579  67.2844083  27.4494892  57.6001494  67.9834033  27.3559369
  59.0174594  67.7180227  27.8171140  61.6552377  77.5492935  30.5245445
  61.5037883  77.3203487  29.6075529  61.6457056  78.5063537  30.5376790
  58.4237713  75.1224848  25.5091712  59.3529773  75.2736008  25.3360679
  58.0028743  75.2108869  24.6540358  57.2226045  79.1475512  23.2790250
  57.0837131  78.7794297  24.1516188  56.4340641  79.6623152  23.1074207
  57.8174197  84.2484609  14.6215786  57.9925953  83.7772652  15.4361409
  57.1306985  84.8750375  14.8497047  58.7731260  78.5257115  20.6679087
  58.4381093  78.4857885  21.5636737  58.2735206  77.8601831  20.1949498
  52.7475504  73.9324745  26.1931668  52.6095302  73.2004984  26.7943208
  53.6580428  73.8433645  25.9115856  61.7090452  75.8713149  10.9416147
  61.0919623  75.1459978  10.8449200  61.2406940  76.6322510  10.5983221
  55.3757805  73.6444704  25.6815348  56.0857423  73.0037897  25.6401967
  55.3327113  73.8957599  26.6041529  63.3644584  80.5812058  28.6021927
  63.3057130  79.8971278  27.9352510  63.7664102  81.3231048  28.1502553
  54.0886739  70.6309922  27.5010988  53.5524096  70.1800661  28.1532584
  53.5003447  70.7655831  26.7581452  52.3835282  87.3973972  21.3955646
  52.6231881  88.0292496  22.0734665  51.5404479  87.0462012  21.6821006
  53.4988998  70.0898574  10.0637451  52.6218464  69.9687375   9.6999698
  53.9746751  69.2984652   9.8116340  63.3661991  78.5451642  26.8335907
  62.4788770  78.2077564  26.9562306  63.9360542  77.8134673  27.0704672
  45.0191138  74.8775733  20.1578958  45.7062178  74.5637463  19.5699974
  44.8639267  75.7817098  19.8846210  49.8225860  69.7665930  24.5863982
  49.7384049  69.1591600  23.8514392  49.0008567  70.2574948  24.5873478
  56.8963144  83.2053094  23.7997150  56.8233316  84.0108066  24.3116455
  56.4540537  83.4045060  22.9745172  56.6852924  82.4424864  17.3099972
  55.9020446  82.9846544  17.4038196  57.3845669  82.9598844  17.7094213
  59.9949574  68.2519494  19.9534177  60.4918274  67.4989456  19.6335247
  59.2236556  68.2883810  19.3877386  67.8479331  73.9559859  21.5952469
  67.8369208  74.8384575  21.2246402  66.9796711  73.6031410  21.4007006
  59.3561828  83.1039928  25.9555309  60.0689800  83.7387393  25.8831210
  58.8651856  83.2003794  25.1395311  61.0779355  77.0091181  17.5272601
  60.1435633  77.1292643  17.3577305  61.2556023  76.1063648  17.2632610
  56.5784543  70.3936877  19.6805862  56.2082330  69.8407917  20.3686767
  57.0743635  69.7895010  19.1280862  64.4651906  72.8508500  18.0622635
  64.9312358  73.6836492  17.9882937  64.9159407  72.3853482  18.7667893
  54.4073741  80.8534372  26.7760880  55.1083201  81.4870855  26.9290274
  53.9368856  81.1949103  26.0156519  62.5328137  79.1952321  15.0608787
  62.8087981  79.0808916  15.9702661  61.6632636  78.7969806  15.0220960
  62.4368569  65.2189087  22.1013536  61.5231649  65.4493314  22.2695743
  62.8661670  65.3027531  22.9527568  62.2075027  73.4078979  24.6013430
  61.5546478  73.6554886  23.9465883  62.5855407  72.5943117  24.2675907
  59.1682201  83.4438672  18.7041600  59.3504596  82.6260328  19.1669353
  59.9915187  83.6606364  18.2666490  59.5024367  82.3706857  15.9656649
  60.0312133  81.8599312  15.3526811  59.7652586  82.0549388  16.8302182
  58.2562600  74.1498790  31.0879467  57.5803237  74.0492919  31.7581842
  59.0790234  73.9938004  31.5515464  50.0041459  80.3870727  23.7091982
  50.5894896  79.6414415  23.8419887  49.8066298  80.6974683  24.5928646
  52.8580115  83.4221974  18.7254425  52.1890490  83.9068102  18.2418465
  52.7192984  83.6691194  19.6397803  44.5959114  72.9576327  22.4296426
  44.6343214  72.4239918  23.2233544  44.0899407  72.4311532  21.8107403
  56.9985383  85.4565718  25.3237083  57.5503691  85.6197339  26.0886168
  57.3391577  86.0470155  24.6517108  51.9749876  67.8040867  25.9258968
  52.0391203  68.6655698  25.5136366  51.9116997  67.1914869  25.1931326
  51.4502149  69.8764000  29.5732002  52.0774188  69.4941077  30.1869526
  50.5930068  69.6578202  29.9387695  61.8496258  80.2826975  31.1785738
  62.3936162  80.8956933  30.6840692  61.2683102  80.8406553  31.6952751
  48.2267692  71.6840429  15.5050357  48.5221133  70.7751107  15.4517411
  47.3255727  71.6628168  15.1831359  60.1353770  83.4047693  22.3100765
  60.0104910  82.6037433  21.8011711  60.7932862  83.8993886  21.8214735
  51.7561939  69.7596426  21.4877906  51.0348524  70.3732393  21.3485379
  52.5455194  70.2954190  21.4094551  62.1988679  81.2056713  23.9380315
  61.2519014  81.0862064  23.8658642  62.5471452  80.3179211  24.0206577
  54.5588252  67.0950852  27.7618557  55.0822654  67.3413149  28.5244867
  54.3400586  67.9270887  27.3421695  49.9555533  69.3654527  15.6289682
  49.6268239  68.4851906  15.4464788  50.3094904  69.3102195  16.5166071
  59.2035112  81.0009429  20.1384668  59.0560075  80.0726137  20.3192238
  60.0288606  81.0229520  19.6541743  53.0697356  69.6527496  15.9965160
  53.4093429  70.1813418  15.2743768  53.5169477  69.9907903  16.7723726
  62.8069234  81.8237988  21.2249540  63.7315781  81.6180849  21.0873992
  62.6384537  81.5754389  22.1338882  55.7640797  68.0364547  25.4468228
  55.4237618  67.2372360  25.8488908  55.0579804  68.3366258  24.8745061
  56.4157269  65.1213860  23.8995551  57.2383338  64.6474338  23.7774441
  56.6595333  65.9004343  24.3994237  55.0565504  68.1502118  14.1958453
  55.7773866  68.5283371  13.6922169  54.4330808  68.8690995  14.2993430
  59.1996626  68.8547267  15.1316785  59.4160241  69.7371905  14.8305613
  58.7190694  68.4633480  14.4022427  53.9395848  71.8132980  21.7087529
  53.7940429  72.1273283  22.6011811  53.4621052  72.4317881  21.1558428
  55.7992231  68.8035528  21.7568419  55.7853800  67.9076622  21.4200717
  56.5164659  68.8106192  22.3906705  57.6518361  69.2372868  23.8021546
  57.3936139  70.1589939  23.8005877  57.1203402  68.8403303  24.4922011
  62.5964550  82.3423656  16.5811632  62.7701428  81.7770078  15.8285484
  63.0893441  83.1424550  16.3991122  48.4141510  74.3538325  24.6475191
  47.8694978  75.1298133  24.7795465  49.2920860  74.7009129  24.4894312
  55.2029127  67.6849908  17.0255989  55.3245038  66.7566555  17.2246877
  54.9131169  67.6988594  16.1134305  58.0720317  65.3704819  20.1622709
  58.0942014  65.4344152  19.2074689  58.4888376  64.5309328  20.3563215
  68.4503941  75.1060078  18.2001932  68.8935087  74.3567404  17.8021055
  67.5730452  75.0970215  17.8175664  63.5839723  81.6590420  13.6808530
  64.2790627  82.2797113  13.8995845  63.9262873  80.8085771  13.9560908
  49.2007532  73.4808221  27.5405347  48.4589268  73.6290856  28.1269978
  48.8800276  73.7416486  26.6772097  65.4831146  79.1090125  15.2095861
  66.0082470  79.4477398  14.4845181  65.3953498  78.1737141  15.0258995
  57.1451195  83.0224199  27.3385737  57.4538321  82.7773346  28.2108437
  57.9426677  83.2270838  26.8504608  57.1671807  85.1762109  19.5691114
  56.7276797  84.6838487  20.2623971  57.9179924  84.6335076  19.3283189
  49.6464146  81.3673650  19.5715742  50.4722165  81.0677421  19.1914386
  49.2958198  80.5981272  20.0205531  54.6145679  80.7200118  21.6413416
  53.9925688  80.0570823  21.3415644  55.2850546  80.7461250  20.9587063
  47.8472751  79.2859976  20.5304676  47.0104659  78.8582150  20.3488677
  47.8196396  79.4792419  21.4675467  54.6870206  69.1981906  31.2345922
  54.7358362  70.0744029  30.8523691  55.2292720  68.6559299  30.6617565
  65.1725052  79.7423029  30.5147059  64.3820596  79.7247168  29.9751558
  64.9358406  80.2811323  31.2696095  65.2922927  76.5915495  27.8279787
  65.3420932  76.4265503  28.7695310  65.1836850  75.7242755  27.4377668
  54.1759186  79.2704041  15.1171876  54.3247306  79.9539506  14.4638549
  54.9825629  79.2509131  15.6321332  62.5826689  72.5746424  29.1439094
  63.4836552  72.4352888  28.8523092  62.6574664  72.7400878  30.0837272
  56.9169495  69.9513278  27.9892280  56.0472804  70.2446844  27.7174869
  57.1528975  70.5353723  28.7099544  66.7941124  79.0112437  28.0721809
  66.5025932  79.3742418  28.9085270  66.1813255  78.2979445  27.8935141
  67.9936806  76.5765317  20.5924379  68.8283697  77.0155121  20.7561939
  68.1295935  76.1003970  19.7732625  65.0428312  74.1345052  26.5401867
  65.5182434  74.3272698  25.7320718  64.1193877  74.1904237  26.2945251
  51.9311819  75.2969219  16.1232945  51.6857861  74.3931549  16.3213155
  52.1007733  75.2986369  15.1812423  59.6208529  66.1692895  25.5057701
  60.1390472  66.9053922  25.1804189  59.2663661  66.4756888  26.3404460
  51.2007466  71.0297576  13.6219107  50.5076711  71.1041931  12.9659143
  50.9559218  70.2657920  14.1440624  59.8721123  62.5893178  21.0258597
  60.1522876  61.9216367  21.6519024  60.6571730  62.7822273  20.5133261
  57.6754591  81.7652172  12.5883624  57.1028558  82.3842359  12.1354096
  58.2487385  82.3151533  13.1223546  63.7429981  71.0110812  24.7730172
  64.6947404  71.1108909  24.7942397  63.5733431  70.2189080  25.2828257
  61.7644360  68.0966395  24.9589573  61.1694293  68.3771408  24.2636062
  61.4794057  68.5860296  25.7306315  60.8951851  82.0489322  13.7192206
  61.8282524  81.9834883  13.9225081  60.8075064  82.8845589  13.2606739
  63.5239868  81.3655192  10.6796154  63.4453499  81.0315056  11.5731911
  64.3449534  81.8576960  10.6787626  66.2218059  74.2316931  23.8872472
  66.1894379  73.2932932  24.0732156  66.8318682  74.3100968  23.1538297
  58.0601390  73.1012984   9.9299676  59.0060494  72.9719192   9.9988094
  57.6815635  72.3627646  10.4069104  66.3712547  71.0227975  23.9330755
  65.8551596  70.2386431  23.7460684  67.2552496  70.6946691  24.0977275
  64.0323274  64.7668990  19.8926568  63.8348095  64.4584079  20.7769900
  64.6422980  65.4930629  20.0224498  72.0394609  75.2932938  23.0278509
  72.7697997  75.0318226  23.5886212  71.4301554  74.5561660  23.0680577
  70.1209906  73.4340801  23.6252960  69.3943069  73.2996766  23.0169452
  69.7057193  73.7417629  24.4309678  57.9440082  77.1530730  31.3900333
  58.8643092  77.3309330  31.5840380  57.9089665  76.2086776  31.2380032
  56.2444307  71.0262961   9.8654561  55.3375762  70.7296073   9.9417275
  56.5220288  70.7292779   8.9988848  47.1622247  72.3469324  20.3153608
  46.8425032  71.4934632  20.0227982  46.6155675  72.5617902  21.0711575
  50.9402155  75.0631765  24.0323114  51.1588165  75.9948873  24.0511148
  51.3527929  74.7039740  24.8177918  57.8606373  65.5699850  16.0198803
  57.0507101  65.2246935  16.3954049  58.5490789  65.2607394  16.6086414
  59.7896921  64.6477897  17.6423099  60.3427959  65.0673351  18.3013122
  60.0267007  63.7213645  17.6846055  55.8130020  70.6364971  33.4225863
  55.7126747  71.5859328  33.3537954  55.5951562  70.3083210  32.5501933
  55.0143091  67.8849896  10.0066541  55.8762255  68.2104794  10.2662358
  55.1993436  67.0981392   9.4939606  47.0310507  75.9672236  22.2846729
  46.3373979  75.5526188  21.7716684  47.7783498  76.0092772  21.6880148
  63.1675728  66.7578422  17.1501764  62.5874397  67.4163226  16.7679816
  62.9011661  65.9355767  16.7389181  61.6179294  66.1583480  19.3523084
  62.1179073  66.2700015  18.5437403  62.2614902  65.8544533  19.9923892
  55.6761290  74.0662110  32.2390925  55.1928372  74.8662470  32.4454814
  55.7622229  74.0770055  31.2858369  48.9447250  75.8990489  20.1612744
  48.9217938  75.9978177  19.2094627  49.2547886  76.7455640  20.4829910
  51.6034628  77.9566644  24.2759359  52.5577881  77.9250587  24.2089290
  51.4047151  77.4957268  25.0909585  52.1934010  76.5267761  26.8430156
  53.0126899  77.0211839  26.8664994  52.4670817  75.6099729  26.8147724
  61.9500606  68.9178513  16.2058112  61.0626461  69.2028163  15.9878307
  62.3654595  68.7572276  15.3585389  65.3015142  68.9425034  19.9212451
  66.0775532  69.4321486  20.1937068  64.5763276  69.3683088  20.3784321
  67.7387701  69.6552653  20.9786392  68.3332192  69.4148389  20.2679700
  67.8114284  68.9359784  21.6059928  49.9584856  83.4986264  21.2929557
  49.8239324  82.7386665  20.7267555  49.5416919  84.2227164  20.8258345
  61.0943819  78.6823187  10.3006132  61.7979670  78.8873190  10.9163787
  60.3706468  79.2499949  10.5655215  61.9241630  74.4333049  16.4208402
  61.8676831  74.8901600  15.5816034  62.4769972  73.6723733  16.2431245
  65.7346436  70.2222781  17.2458522  65.4783370  69.8219416  18.0766729
  65.1099304  70.9366575  17.1208661  70.0458773  72.9618854  19.7529813
  69.4858331  73.0312043  20.5261375  69.4402277  72.7859838  19.0329309
  53.1153982  84.3955581  21.5047999  52.9986366  85.3401013  21.4026689
  52.2946429  84.0929143  21.8933798  63.0030517  79.1205717  12.3504592
  63.8376121  78.6886915  12.1682067  62.8414860  78.9487730  13.2781486
  62.6576409  75.6237830  13.7160931  62.6025213  75.4582101  12.7749375
  62.0322464  76.3313863  13.8723121  47.4468924  70.8605894  27.5422353
  48.0927788  70.3504848  28.0309579  47.2386075  71.5974576  28.1165779
  59.9722316  77.9286742  33.0414494  60.8413476  78.1027394  32.6801129
  59.4929068  78.7481159  32.9190223  55.9672534  65.1245939  13.2946250
  55.9551204  66.0687779  13.4514520  56.8595956  64.9416084  13.0005711
  54.1408496  85.0483843  24.7203928  55.0435743  85.0807453  25.0370423
  53.9145866  84.1184294  24.7350263  55.8962098  83.8014829  21.3814006
  54.9457729  83.8016691  21.2678379  56.1994585  83.0547564  20.8650041
  59.7824654  61.7188716  17.5492186  59.0157050  61.1647202  17.6948869
  60.1935359  61.7910584  18.4106338  51.7866415  68.0073511  31.6397368
  52.6497877  67.6510316  31.8500692  51.2131826  67.6687406  32.3272772
  71.6314792  89.6375368  22.4459769  72.2693202  89.5182115  21.7423109
  71.5135635  90.5856212  22.5047721  68.4404498  89.5902796  22.3821293
  68.1023010  89.4743861  21.4941828  69.3094266  89.1893961  22.3622299
  64.2991314  91.4438272  18.3718184  63.7356179  91.3528209  17.6034472
  64.1843709  90.6238177  18.8520677  68.9224281  90.7437648  28.3407499
  68.9112922  90.3490446  27.4688003  69.0844921  90.0103720  28.9341270
  61.8455746  92.9389464  21.2102405  62.6377038  92.5980289  20.7948704
  62.0852396  93.0484439  22.1304558  69.8790873  95.1109240  13.6832649
  69.2278852  95.6963320  13.2966663  70.6735235  95.6415435  13.7427687
  63.8046500  92.1998377  14.0819784  64.5777376  91.6527364  13.9432659
  64.1571899  93.0642626  14.2934245  65.6431542  93.5274759  27.2886683
  65.3521408  94.4320390  27.1733349  66.2788527  93.5691287  28.0030752
  66.5687749  90.9051608  23.8788043  67.1651321  90.6807630  23.1645005
  66.6262721  90.1636353  24.4813490  66.1412778  88.3591043  11.7138233
  66.3938298  87.8372565  10.9521696  65.2037337  88.1957189  11.8164917
  71.1856060  87.3626822  19.5212977  71.9719150  86.9446245  19.1703394
  71.4494765  88.2672914  19.6894625  71.3566138  92.7999672  14.2201634
  70.7211971  92.8734298  14.9322538  71.0263544  93.3893271  13.5420713
  76.5864488  87.3002055  20.4245955  77.3189659  86.7301272  20.6583785
  75.8303843  86.9123655  20.8652461  65.8609066  90.2619149  13.9162608
  65.7445324  89.5864053  14.5843693  65.9711326  89.7751523  13.0994761
  68.2040607  89.7229296  17.6209298  67.8398814  89.1959917  18.3322219
  69.0607723  89.3327765  17.4475783  74.1089908  81.0123629  24.8840564
  73.7773233  81.8819040  24.6601779  73.5135521  80.6959913  25.5634594
  67.8446094  84.7519196  12.6170646  68.0120497  85.6199432  12.9841117
  67.6543263  84.9146478  11.6931935  70.6021427  93.2136175  24.2836477
  70.3022151  94.1161214  24.1752284  70.2572487  92.9468358  25.1357629
  64.0533909  89.6649972  20.3173181  63.1284405  89.5326186  20.5250873
  64.3018322  90.4444191  20.8143123  74.0018571  85.7318715  21.9633914
  73.0935449  85.6634124  21.6692675  73.9506167  86.2090660  22.7915739
  67.8235315  87.2076854  13.6017313  67.7034940  87.6533904  14.4402793
  67.1287903  87.5562171  13.0430851  61.4142720  89.3083245  21.1516970
  61.5435101  89.5617724  22.0656382  60.7340171  89.9010953  20.8321625
  65.5842207  99.9780495  17.2507444  65.5066237 100.9288320  17.3295925
  64.9803851  99.6326368  17.9082371  68.0759437  87.1508361  29.9068811
  67.2992771  87.7102281  29.8971676  68.7150000  87.6365144  30.4283681
  75.8680218  83.9335154  23.7411788  75.2254598  84.2267687  23.0951582
  75.3635146  83.8188074  24.5464984  73.5220381  87.6798327  14.4297647
  74.4338237  87.9125713  14.2545345  73.0130028  88.2635371  13.8672726
  66.3305809  89.9593814  29.4686778  67.0720494  90.4978858  29.1921602
  65.6242795  90.5860103  29.6258330  71.8061149  92.1022955  28.0658940
  72.2144505  91.6605365  27.3213572  71.0838410  91.5275582  28.3193133
  68.1592219  87.0395561  25.4392497  69.0053414  87.4634975  25.5827146
  68.0990857  86.3829186  26.1331060  72.1289964  92.6624145  21.8211229
  71.4998826  92.8269859  21.1187296  71.7415626  93.0765755  22.5922193
  76.0079195  93.5978583  19.1755592  75.3230234  93.9777484  18.6252626
  76.0923045  94.2073910  19.9087540  71.3091664  84.6999930  27.0973670
  71.0652596  85.4541990  26.5607946  71.5851595  85.0785277  27.9320917
  73.2630127  91.2438542  25.7750936  73.4747022  91.8870302  25.0985317
  73.2159875  90.4100859  25.3072866  70.8656356  83.8556363  22.6787508
  70.0040835  84.1537616  22.9704246  70.8918791  84.0726762  21.7468541
  67.6817925  92.3998553  19.0861314  68.1456271  92.6786256  18.2965936
  67.4174724  91.4981998  18.9034404  64.5742007  91.9470035  22.0241077
  65.1443364  92.3757303  21.3858561  65.1650118  91.6652620  22.7225263
  66.6186812  88.5221706  15.8950879  67.3210855  88.9742749  16.3624805
  66.2867440  87.8805524  16.5230772  65.0667173  87.1133462  30.2702088
  64.4365834  87.7949743  30.5037485  64.9603261  87.0016544  29.3255226
  60.3612145  86.7805258  21.1968012  59.5711199  87.0362787  20.7208123
  60.8523393  87.5953596  21.3020053  74.3775955  94.1210497  23.9473293
  75.1993399  93.7190685  23.6655975  74.3738358  94.0178732  24.8989409
  62.3126891  87.1449838  18.1551489  61.5158054  87.2568532  18.6734985
  62.0852483  87.4836490  17.2892380  68.1432558  93.6694541  26.1034004
  68.2076991  94.1314948  26.9392175  67.4343482  93.0391906  26.2316313
  58.6449848  87.0335749  23.6283003  58.8957887  87.9182759  23.8940579
  59.1809397  86.8540350  22.8558095  82.4681948  90.4649246  20.2958265
  81.7145656  89.8956644  20.1402269  82.6029489  90.4311910  21.2428899
  67.8580576  95.3362648  15.9712984  67.7226251  96.1814184  16.3997832
  68.3990389  95.5381926  15.2078918  64.3447916  81.4154228  32.6327339
  63.9514861  80.8620427  33.3074983  65.1614056  81.7264807  33.0233857
  61.3109974  92.8538086  16.5440909  61.8234494  93.6481337  16.6946474
  61.9632686  92.1564377  16.4774511  63.1204858  95.9703843  18.6263662
  63.2971487  96.8921807  18.4384646  63.9161692  95.6562262  19.0558042
  67.2615877  82.8312107  30.2247596  68.0025590  83.4319260  30.1452058
  67.4933800  82.0889745  29.6665638  62.4057215  88.0168474  28.5025825
  62.2910730  87.1153732  28.8032924  61.5501733  88.2632171  28.1510642
  69.4849053  95.9586215  30.1013326  69.0412907  95.1722593  29.7834231
  70.1466266  96.1465365  29.4357217  64.2436174  97.4882016  24.6274005
  64.7943599  97.3599080  23.8550998  63.4047650  97.7876905  24.2768897
  71.5830291  96.2389015  28.1294727  71.5648766  97.0597896  27.6374996
  72.5050211  96.1143090  28.3544868  68.0403345  93.7533144  28.9718236
  68.5731682  92.9921432  28.7417544  67.5117426  93.4606796  29.7142390
  71.2073040  78.8593210  24.5011877  70.8637309  79.7494852  24.4250988
  71.5752002  78.6694868  23.6381462  59.2758890  91.1826741  17.3200480
  60.1134112  91.5923749  17.1034187  59.4537158  90.2426183  17.2900673
  71.1723322  88.8501821  13.0084313  70.6569946  89.6206426  13.2472700
  70.9000631  88.1766957  13.6317374  68.7570433  83.6951522  18.0669551
  67.9012030  83.3058372  17.8875190  69.1697385  83.7743483  17.2069336
  70.2869580  81.2297865  22.4661111  69.7834376  81.1928000  21.6528916
  70.5800187  82.1390608  22.5257767  66.5312466  81.3136595  21.4727292
  67.3965463  81.1179404  21.1133182  66.5989975  81.0846947  22.3996649
  76.1457597  91.6034176  14.9437486  75.3687039  91.2645335  14.4992648
  76.8249078  91.6086799  14.2692451  70.9609626  86.7228913  14.8344094
  70.6559761  87.0375063  15.6854237  71.9140068  86.8010333  14.8771427
  69.4056057  92.8819137  16.4837048  68.8777419  92.1471896  16.1710285
  68.9043560  93.6593813  16.2377016  74.3848903  91.0768157  21.6004094
  73.7272578  91.7667419  21.6884223  75.1889303  91.4664589  21.9438080
  64.1374785  83.5438803  18.8443659  64.7118537  83.3213984  18.1116852
  64.7245767  83.6127497  19.5972261  73.1954362  89.4312530  19.6508036
  73.7086244  90.0642522  20.1529745  73.8455586  88.8313725  19.2851396
  64.4644372  85.5743264  12.8639544  63.6281684  85.9117951  13.1848819
  64.3249142  85.4392244  11.9266681  66.4397453  80.4180052  17.5718729
  65.7861865  80.1029069  16.9475343  66.3977927  79.7955792  18.2978552
  67.5508658  90.6999347   9.4872021  66.6435719  90.4688600   9.6863170
  68.0479690  89.9036966   9.6746002  70.4576736  99.4096854  12.4068707
  69.7838435  99.7128551  13.0153665  70.8442558 100.2125934  12.0574164
  69.6735193  86.9061985  21.8966376  68.7557754  87.1276932  21.7388064
  70.0895337  86.9808296  21.0378084  70.4570241  88.3053401  17.0269057
  71.2042060  88.8174798  16.7176179  70.7261830  87.9837454  17.8873450
  68.7296891  90.8011942  14.0096011  67.8208110  90.5170975  14.1068481
  68.7591975  91.2211020  13.1499318  73.9616158  94.4118531  17.7787178
  73.5078486  93.5709441  17.8352369  73.3310125  95.0479930  18.1161959
  72.9049078  85.3410517  19.0087846  72.1671835  84.8287904  19.3398088
  73.1575852  84.9010899  18.1971123  72.4049098  96.2495028  18.7136997
  72.6972072  96.8100085  17.9949362  72.9147718  96.5423589  19.4690156
  73.0060705  78.1186769  19.6029615  73.3119582  77.2584133  19.3155530
  73.7313310  78.7104390  19.4028609  59.2985061  88.5217456  17.9911213
  59.1009461  87.9286817  17.2662280  58.7431725  88.2169666  18.7087152
  67.2781785  88.4140562  20.1105806  67.3330395  87.4614399  20.0348283
  66.4672987  88.5700001  20.5947105  68.4272979  92.3420685  11.3484089
  67.9892409  91.6256544  10.8889727  69.1683420  92.5696800  10.7869181
  65.2174145  87.0317622  17.8696185  64.4042011  87.3311793  18.2761377
  65.7133139  86.6373311  18.5870667  67.3682723  97.0275379  19.8030450
  67.3258902  97.2536225  18.8738982  68.2845422  96.7938754  19.9516251
  70.8148357  87.4959447  26.7011079  71.1697744  87.7230920  27.5605545
  71.4620488  87.8277823  26.0788334  76.5446094  90.6177882  17.4060408
  76.4063992  90.8079478  16.4781597  76.1882312  91.3797265  17.8628459
  64.7088220  84.6035978  23.4857420  65.3487599  84.4624737  22.7880383
  63.8765750  84.3170491  23.1096022  76.5715473  92.6854409  22.4171679
  77.0051980  92.5929699  23.2654734  77.2847054  92.6611910  21.7791695
  65.4848524  93.9038408  19.5992412  66.2789122  93.4088728  19.3974987
  64.7740216  93.3756271  19.2360118  70.3043368  96.2856504  23.9504780
  70.3580390  96.8547440  24.7182496  69.4358150  96.4558389  23.5858817
  61.7931287  88.0481490  15.6752165  60.8628875  87.9865945  15.8922127
  61.8888759  87.5257443  14.8788806  61.7116836  84.5736303  18.2630407
  61.9723653  85.4881636  18.1539567  62.5334009  84.1060745  18.4127020
  63.1841762  85.9874060  25.4329231  63.8564815  85.7791422  24.7841880
  62.3571548  85.7896146  24.9934464  77.4331023  92.7278110  24.9504565
  77.6266913  93.6323921  25.1963840  77.3331641  92.2685529  25.7843150
  69.0867334  82.6136001  27.4494892  68.4395249  83.3125950  27.3559369
  69.8568349  83.0472145  27.8171140  72.4946131  92.8784853  30.5245445
  72.3431638  92.6495405  29.6075529  72.4850811  93.8355454  30.5376790
  69.2631468  90.4516766  25.5091712  70.1923528  90.6027925  25.3360679
  68.8422498  90.5400786  24.6540358  68.0619800  94.4767430  23.2790250
  67.9230885  94.1086214  24.1516188  67.2734396  94.9915069  23.1074207
  68.6567952  99.5776527  14.6215786  68.8319707  99.1064570  15.4361409
  67.9700740 100.2042293  14.8497047  69.6125015  93.8549033  20.6679087
  69.2774847  93.8149803  21.5636737  69.1128961  93.1893749  20.1949498
  63.5869259  89.2616663  26.1931668  63.4489057  88.5296902  26.7943208
  64.4974182  89.1725563  25.9115856  72.5484206  91.2005067  10.9416147
  71.9313377  90.4751895  10.8449200  72.0800695  91.9614427  10.5983221
  66.2151559  88.9736622  25.6815348  66.9251178  88.3329814  25.6401967
  66.1720868  89.2249517  26.6041529  74.2038338  95.9103975  28.6021927
  74.1450884  95.2263196  27.9352510  74.6057857  96.6522965  28.1502553
  64.9280493  85.9601840  27.5010988  64.3917850  85.5092578  28.1532584
  64.3397202  86.0947749  26.7581452  63.2229037 102.7265889  21.3955646
  63.4625635 103.3584413  22.0734665  62.3798233 102.3753929  21.6821006
  64.3382752  85.4190491  10.0637451  63.4612219  85.2979292   9.6999698
  64.8140505  84.6276570   9.8116340  74.2055745  93.8743559  26.8335907
  73.3182524  93.5369481  26.9562306  74.7754296  93.1426591  27.0704672
  55.8584893  90.2067651  20.1578958  56.5455932  89.8929381  19.5699974
  55.7033021  91.1109016  19.8846210  60.6619615  85.0957848  24.5863982
  60.5777803  84.4883517  23.8514392  59.8402321  85.5866866  24.5873478
  67.7356899  98.5345012  23.7997150  67.6627070  99.3399983  24.3116455
  67.2934292  98.7336978  22.9745172  67.5246678  97.7716782  17.3099972
  66.7414200  98.3138462  17.4038196  68.2239424  98.2890761  17.7094213
  70.8343329  83.5811411  19.9534177  71.3312028  82.8281374  19.6335247
  70.0630310  83.6175728  19.3877386  78.6873086  89.2851777  21.5952469
  78.6762962  90.1676492  21.2246402  77.8190465  88.9323328  21.4007006
  70.1955582  98.4331846  25.9555309  70.9083555  99.0679311  25.8831210
  69.7045611  98.5295712  25.1395311  71.9173109  92.3383098  17.5272601
  70.9829388  92.4584561  17.3577305  72.0949778  91.4355565  17.2632610
  67.4178297  85.7228794  19.6805862  67.0476085  85.1699835  20.3686767
  67.9137390  85.1186928  19.1280862  75.3045661  88.1800418  18.0622635
  75.7706113  89.0128409  17.9882937  75.7553161  87.7145399  18.7667893
  65.2467496  96.1826289  26.7760880  65.9476955  96.8162772  26.9290274
  64.7762611  96.5241021  26.0156519  73.3721892  94.5244239  15.0608787
  73.6481736  94.4100834  15.9702661  72.5026390  94.1261724  15.0220960
  73.2762323  80.5481005  22.1013536  72.3625403  80.7785232  22.2695743
  73.7055425  80.6319449  22.9527568  73.0468782  88.7370897  24.6013430
  72.3940232  88.9846804  23.9465883  73.4249162  87.9235035  24.2675907
  70.0075956  98.7730590  18.7041600  70.1898350  97.9552246  19.1669353
  70.8308942  98.9898282  18.2666490  70.3418121  97.6998775  15.9656649
  70.8705888  97.1891230  15.3526811  70.6046341  97.3841305  16.8302182
  69.0956355  89.4790708  31.0879467  68.4196992  89.3784837  31.7581842
  69.9183989  89.3229921  31.5515464  60.8435214  95.7162644  23.7091982
  61.4288651  94.9706332  23.8419887  60.6460052  96.0266601  24.5928646
  63.6973869  98.7513892  18.7254425  63.0284244  99.2360019  18.2418465
  63.5586739  98.9983112  19.6397803  55.4352869  88.2868244  22.4296426
  55.4736968  87.7531835  23.2233544  54.9293161  87.7603450  21.8107403
  67.8379138 100.7857635  25.3237083  68.3897446 100.9489257  26.0886168
  68.1785331 101.3762073  24.6517108  62.8143631  83.1332785  25.9258968
  62.8784957  83.9947616  25.5136366  62.7510751  82.5206787  25.1931326
  62.2895903  85.2055918  29.5732002  62.9167942  84.8232995  30.1869526
  61.4323822  84.9870119  29.9387695  72.6890012  95.6118893  31.1785738
  73.2329916  96.2248851  30.6840692  72.1076857  96.1698471  31.6952751
  59.0661446  87.0132347  15.5050357  59.3614887  86.1043025  15.4517411
  58.1649482  86.9920086  15.1831359  70.9747525  98.7339611  22.3100765
  70.8498664  97.9329351  21.8011711  71.6326616  99.2285804  21.8214735
  62.5955693  85.0888343  21.4877906  61.8742279  85.7024311  21.3485379
  63.3848949  85.6246108  21.4094551  73.0382433  96.5348631  23.9380315
  72.0912769  96.4153982  23.8658642  73.3865206  95.6471129  24.0206577
  65.3982007  82.4242770  27.7618557  65.9216409  82.6705066  28.5244867
  65.1794340  83.2562805  27.3421695  60.7949288  84.6946444  15.6289682
  60.4661994  83.8143823  15.4464788  61.1488658  84.6394113  16.5166071
  70.0428867  96.3301347  20.1384668  69.8953829  95.4018054  20.3192238
  70.8682360  96.3521438  19.6541743  63.9091111  84.9819414  15.9965160
  64.2487183  85.5105335  15.2743768  64.3563231  85.3199820  16.7723726
  73.6462989  97.1529906  21.2249540  74.5709536  96.9472767  21.0873992
  73.4778292  96.9046307  22.1338882  66.6034552  83.3656465  25.4468228
  66.2631372  82.5664278  25.8488908  65.8973558  83.6658176  24.8745061
  67.2551024  80.4505777  23.8995551  68.0777093  79.9766255  23.7774441
  67.4989087  81.2296261  24.3994237  65.8959258  83.4794036  14.1958453
  66.6167621  83.8575288  13.6922169  65.2724562  84.1982913  14.2993430
  70.0390381  84.1839185  15.1316785  70.2553995  85.0663823  14.8305613
  69.5584448  83.7925398  14.4022427  64.7789602  87.1424898  21.7087529
  64.6334183  87.4565201  22.6011811  64.3014806  87.7609798  21.1558428
  66.6385985  84.1327446  21.7568419  66.6247554  83.2368539  21.4200717
  67.3558413  84.1398110  22.3906705  68.4912116  84.5664786  23.8021546
  68.2329894  85.4881857  23.8005877  67.9597156  84.1695221  24.4922011
  73.4358305  97.6715573  16.5811632  73.6095182  97.1061996  15.8285484
  73.9287196  98.4716468  16.3991122  59.2535265  89.6830242  24.6475191
  58.7088733  90.4590050  24.7795465  60.1314614  90.0301047  24.4894312
  66.0422881  83.0141826  17.0255989  66.1638792  82.0858472  17.2246877
  65.7524924  83.0280512  16.1134305  68.9114072  80.6996737  20.1622709
  68.9335768  80.7636070  19.2074689  69.3282131  79.8601245  20.3563215
  79.2897696  90.4351996  18.2001932  79.7328842  89.6859321  17.8021055
  78.4124206  90.4262133  17.8175664  74.4233477  96.9882338  13.6808530
  75.1184382  97.6089030  13.8995845  74.7656627  96.1377689  13.9560908
  60.0401286  88.8100139  27.5405347  59.2983022  88.9582774  28.1269978
  59.7194031  89.0708404  26.6772097  76.3224900  94.4382043  15.2095861
  76.8476224  94.7769316  14.4845181  76.2347253  93.5029058  15.0258995
  67.9844949  98.3516117  27.3385737  68.2932075  98.1065264  28.2108437
  68.7820431  98.5562755  26.8504608  68.0065561 100.5054026  19.5691114
  67.5670551 100.0130405  20.2623971  68.7573678  99.9626994  19.3283189
  60.4857900  96.6965567  19.5715742  61.3115920  96.3969339  19.1914386
  60.1351952  95.9273190  20.0205531  65.4539433  96.0492036  21.6413416
  64.8319443  95.3862741  21.3415644  66.1244300  96.0753167  20.9587063
  58.6866505  94.6151894  20.5304676  57.8498413  94.1874068  20.3488677
  58.6590151  94.8084337  21.4675467  65.5263961  84.5273824  31.2345922
  65.5752116  85.4035946  30.8523691  66.0686475  83.9851217  30.6617565
  76.0118806  95.0714947  30.5147059  75.2214350  95.0539086  29.9751558
  75.7752161  95.6103240  31.2696095  76.1316681  91.9207413  27.8279787
  76.1814686  91.7557421  28.7695310  76.0230605  91.0534672  27.4377668
  65.0152940  94.5995959  15.1171876  65.1641061  95.2831423  14.4638549
  65.8219384  94.5801049  15.6321332  73.4220444  87.9038341  29.1439094
  74.3230307  87.7644806  28.8523092  73.4968418  88.0692796  30.0837272
  67.7563249  85.2805196  27.9892280  66.8866559  85.5738762  27.7174869
  67.9922730  85.8645641  28.7099544  77.6334878  94.3404355  28.0721809
  77.3419687  94.7034335  28.9085270  77.0207010  93.6271363  27.8935141
  78.8330561  91.9057234  20.5924379  79.6677452  92.3447039  20.7561939
  78.9689689  91.4295888  19.7732625  75.8822067  89.4636969  26.5401867
  76.3576188  89.6564616  25.7320718  74.9587632  89.5196155  26.2945251
  62.7705573  90.6261136  16.1232945  62.5251615  89.7223466  16.3213155
  62.9401488  90.6278287  15.1812423  70.4602283  81.4984813  25.5057701
  70.9784227  82.2345840  25.1804189  70.1057416  81.8048806  26.3404460
  62.0401221  86.3589494  13.6219107  61.3470466  86.4333849  12.9659143
  61.7952973  85.5949838  14.1440624  70.7114877  77.9185095  21.0258597
  70.9916631  77.2508284  21.6519024  71.4965484  78.1114191  20.5133261
  68.5148346  97.0944089  12.5883624  67.9422313  97.7134276  12.1354096
  69.0881139  97.6443451  13.1223546  74.5823736  86.3402729  24.7730172
  75.5341158  86.4400827  24.7942397  74.4127186  85.5480998  25.2828257
  72.6038115  83.4258313  24.9589573  72.0088047  83.7063325  24.2636062
  72.3187812  83.9152214  25.7306315  71.7345605  97.3781239  13.7192206
  72.6676279  97.3126801  13.9225081  71.6468818  98.2137506  13.2606739
  74.3633622  96.6947110  10.6796154  74.2847254  96.3606973  11.5731911
  75.1843289  97.1868878  10.6787626  77.0611813  89.5608849  23.8872472
  77.0288133  88.6224850  24.0732156  77.6712437  89.6392886  23.1538297
  68.8995144  88.4304902   9.9299676  69.8454249  88.3011110   9.9988094
  68.5209389  87.6919564  10.4069104  77.2106302  86.3519893  23.9330755
  76.6945350  85.5678349  23.7460684  78.0946250  86.0238609  24.0977275
  74.8717029  80.0960908  19.8926568  74.6741850  79.7875996  20.7769900
  75.4816734  80.8222547  20.0224498  82.8788363  90.6224856  23.0278509
  83.6091752  90.3610144  23.5886212  82.2695309  89.8853578  23.0680577
  80.9603660  88.7632718  23.6252960  80.2336824  88.6288683  23.0169452
  80.5450947  89.0709547  24.4309678  68.7833837  92.4822648  31.3900333
  69.7036846  92.6601247  31.5840380  68.7483420  91.5378694  31.2380032
  67.0838061  86.3554878   9.8654561  66.1769517  86.0587991   9.9417275
  67.3614042  86.0584697   8.9988848  58.0016002  87.6761242  20.3153608
  57.6818786  86.8226550  20.0227982  57.4549430  87.8909820  21.0711575
  61.7795909  90.3923683  24.0323114  61.9981919  91.3240791  24.0511148
  62.1921683  90.0331657  24.8177918  68.7000127  80.8991768  16.0198803
  67.8900855  80.5538853  16.3954049  69.3884544  80.5899312  16.6086414
  70.6290675  79.9769815  17.6423099  71.1821714  80.3965268  18.3013122
  70.8660762  79.0505563  17.6846055  66.6523775  85.9656889  33.4225863
  66.5520501  86.9151246  33.3537954  66.4345317  85.6375127  32.5501933
  65.8536846  83.2141814  10.0066541  66.7156010  83.5396712  10.2662358
  66.0387190  82.4273310   9.4939606  57.8704262  91.2964153  22.2846729
  57.1767733  90.8818106  21.7716684  58.6177253  91.3384690  21.6880148
  74.0069482  82.0870340  17.1501764  73.4268151  82.7455144  16.7679816
  73.7405415  81.2647685  16.7389181  72.4573049  81.4875398  19.3523084
  72.9572827  81.5991932  18.5437403  73.1008657  81.1836451  19.9923892
  66.5155045  89.3954027  32.2390925  66.0322126  90.1954388  32.4454814
  66.6015984  89.4061972  31.2858369  59.7841004  91.2282407  20.1612744
  59.7611692  91.3270094  19.2094627  60.0941641  92.0747558  20.4829910
  62.4428382  93.2858562  24.2759359  63.3971636  93.2542504  24.2089290
  62.2440906  92.8249186  25.0909585  63.0327764  91.8559678  26.8430156
  63.8520653  92.3503757  26.8664994  63.3064572  90.9391646  26.8147724
  72.7894360  84.2470430  16.2058112  71.9020215  84.5320081  15.9878307
  73.2048350  84.0864194  15.3585389  76.1408897  84.2716951  19.9212451
  76.9169287  84.7613404  20.1937068  75.4157031  84.6975006  20.3784321
  78.5781455  84.9844571  20.9786392  79.1725946  84.7440307  20.2679700
  78.6508039  84.2651701  21.6059928  60.7978611  98.8278182  21.2929557
  60.6633079  98.0678583  20.7267555  60.3810673  99.5519081  20.8258345
  71.9337574  94.0115105  10.3006132  72.6373424  94.2165108  10.9163787
  71.2100223  94.5791867  10.5655215  72.7635384  89.7624966  16.4208402
  72.7070586  90.2193518  15.5816034  73.3163727  89.0015651  16.2431245
  76.5740190  85.5514698  17.2458522  76.3177124  85.1511334  18.0766729
  75.9493058  86.2658492  17.1208661  80.8852528  88.2910772  19.7529813
  80.3252086  88.3603961  20.5261375  80.2796031  88.1151756  19.0329309
  63.9547737  99.7247499  21.5047999  63.8380121 100.6692931  21.4026689
  63.1340183  99.4221060  21.8933798  73.8424271  94.4497634  12.3504592
  74.6769875  94.0178833  12.1682067  73.6808614  94.2779648  13.2781486
  73.4970164  90.9529748  13.7160931  73.4418967  90.7874019  12.7749375
  72.8716219  91.6605781  13.8723121  58.2862678  86.1897812  27.5422353
  58.9321542  85.6796766  28.0309579  58.0779830  86.9266494  28.1165779
  70.8116071  93.2578660  33.0414494  71.6807230  93.4319312  32.6801129
  70.3322822  94.0773076  32.9190223  66.8066289  80.4537857  13.2946250
  66.7944959  81.3979697  13.4514520  67.6989711  80.2708002  13.0005711
  64.9802251 100.3775761  24.7203928  65.8829498 100.4099371  25.0370423
  64.7539621  99.4476211  24.7350263  66.7355853  99.1306747  21.3814006
  65.7851484  99.1308609  21.2678379  67.0388339  98.3839482  20.8650041
  70.6218408  77.0480633  17.5492186  69.8550804  76.4939120  17.6948869
  71.0329113  77.1202502  18.4106338  62.6260169  83.3365429  31.6397368
  63.4891631  82.9802234  31.8500692  62.0525580  82.9979324  32.3272772
  82.4708546 104.9667285  22.4459769  83.1086956 104.8474033  21.7423109
  82.3529389 105.9148129  22.5047721  79.2798253 104.9194714  22.3821293
  78.9416764 104.8035778  21.4941828  80.1488021 104.5185879  22.3622299
  75.1385068 106.7730190  18.3718184  74.5749934 106.6820127  17.6034472
  75.0237463 105.9530094  18.8520677  79.7618036 106.0729565  28.3407499
  79.7506676 105.6782364  27.4688003  79.9238675 105.3395638  28.9341270
  72.6849500 108.2681382  21.2102405  73.4770792 107.9272206  20.7948704
  72.9246150 108.3776357  22.1304558  80.7184627 110.4401158  13.6832649
  80.0672607 111.0255238  13.2966663  81.5128990 110.9707353  13.7427687
  74.6440254 107.5290295  14.0819784  75.4171130 106.9819282  13.9432659
  74.9965653 108.3934544  14.2934245  76.4825297 108.8566677  27.2886683
  76.1915163 109.7612308  27.1733349  77.1182281 108.8983205  28.0030752
  77.4081504 106.2343526  23.8788043  78.0045076 106.0099548  23.1645005
  77.4656475 105.4928271  24.4813490  76.9806532 103.6882961  11.7138233
  77.2332053 103.1664482  10.9521696  76.0431091 103.5249106  11.8164917
  82.0249815 102.6918739  19.5212977  82.8112904 102.2738162  19.1703394
  82.2888519 103.5964832  19.6894625  82.1959892 108.1291590  14.2201634
  81.5605725 108.2026216  14.9322538  81.8657299 108.7185188  13.5420713
  87.4258242 102.6293973  20.4245955  88.1583414 102.0593189  20.6583785
  86.6697598 102.2415573  20.8652461  76.7002821 105.5911067  13.9162608
  76.5839079 104.9155970  14.5843693  76.8105081 105.1043441  13.0994761
  79.0434362 105.0521214  17.6209298  78.6792569 104.5251835  18.3322219
  79.9001478 104.6619683  17.4475783  84.9483662  96.3415547  24.8840564
  84.6166987  97.2110958  24.6601779  84.3529276  96.0251831  25.5634594
  78.6839849 100.0811114  12.6170646  78.8514251 100.9491350  12.9841117
  78.4937018 100.2438395  11.6931935  81.4415182 108.5428093  24.2836477
  81.1415905 109.4453131  24.1752284  81.0966241 108.2760276  25.1357629
  74.8927663 104.9941889  20.3173181  73.9678160 104.8618104  20.5250873
  75.1412077 105.7736109  20.8143123  84.8412326 101.0610633  21.9633914
  83.9329203 100.9926041  21.6692675  84.7899921 101.5382578  22.7915739
  78.6629070 102.5368771  13.6017313  78.5428695 102.9825822  14.4402793
  77.9681658 102.8854089  13.0430851  72.2536474 104.6375163  21.1516970
  72.3828856 104.8909642  22.0656382  71.5733926 105.2302871  20.8321625
  76.4235962 115.3072413  17.2507444  76.3459991 116.2580238  17.3295925
  75.8197605 114.9618285  17.9082371  78.9153191 102.4800278  29.9068811
  78.1386526 103.0394199  29.8971676  79.5543755 102.9657061  30.4283681
  86.7073972  99.2627071  23.7411788  86.0648352  99.5559604  23.0951582
  86.2028901  99.1479992  24.5464984  84.3614136 103.0090244  14.4297647
  85.2731992 103.2417631  14.2545345  83.8523783 103.5927289  13.8672726
  77.1699564 105.2885732  29.4686778  77.9114248 105.8270776  29.1921602
  76.4636549 105.9152021  29.6258330  82.6454903 107.4314872  28.0658940
  83.0538259 106.9897283  27.3213572  81.9232165 106.8567500  28.3193133
  78.9985973 102.3687479  25.4392497  79.8447169 102.7926893  25.5827146
  78.9384611 101.7121103  26.1331060  82.9683718 107.9916063  21.8211229
  82.3392581 108.1561777  21.1187296  82.5809380 108.4057672  22.5922193
  86.8472950 108.9270501  19.1755592  86.1623988 109.3069402  18.6252626
  86.9316799 109.5365827  19.9087540  82.1485419 100.0291847  27.0973670
  81.9046351 100.7833908  26.5607946  82.4245349 100.4077195  27.9320917
  84.1023882 106.5730460  25.7750936  84.3140777 107.2162220  25.0985317
  84.0553630 105.7392776  25.3072866  81.7050111  99.1848280  22.6787508
  80.8434590  99.4829534  22.9704246  81.7312545  99.4018679  21.7468541
  78.5211680 107.7290471  19.0861314  78.9850025 108.0078174  18.2965936
  78.2568478 106.8273916  18.9034404  75.4135761 107.2761952  22.0241077
  75.9837118 107.7049221  21.3858561  76.0043873 106.9944537  22.7225263
  77.4580566 103.8513623  15.8950879  78.1604609 104.3034667  16.3624805
  77.1261194 103.2097442  16.5230772  75.9060928 102.4425380  30.2702088
  75.2759588 103.1241661  30.5037485  75.7997015 102.3308462  29.3255226
  71.2005900 102.1097176  21.1968012  70.4104954 102.3654705  20.7208123
  71.6917147 102.9245514  21.3020053  85.2169710 109.4502415  23.9473293
  86.0387153 109.0482602  23.6655975  85.2132112 109.3470649  24.8989409
  73.1520645 102.4741755  18.1551489  72.3551809 102.5860449  18.6734985
  72.9246238 102.8128407  17.2892380  78.9826313 108.9986458  26.1034004
  79.0470745 109.4606866  26.9392175  78.2737237 108.3683823  26.2316313
  69.4843603 102.3627666  23.6283003  69.7351641 103.2474676  23.8940579
  70.0203151 102.1832268  22.8558095  93.3075703 105.7941164  20.2958265
  92.5539411 105.2248562  20.1402269  93.4423244 105.7603828  21.2428899
  78.6974331 110.6654566  15.9712984  78.5620005 111.5106102  16.3997832
  79.2384143 110.8673844  15.2078918  75.1841670  96.7446146  32.6327339
  74.7908616  96.1912344  33.3074983  76.0007811  97.0556724  33.0233857
  72.1503728 108.1830004  16.5440909  72.6628249 108.9773254  16.6946474
  72.8026441 107.4856294  16.4774511  73.9598613 111.2995760  18.6263662
  74.1365241 112.2213725  18.4384646  74.7555446 110.9854179  19.0558042
  78.1009631  98.1604025  30.2247596  78.8419345  98.7611178  30.1452058
  78.3327554  97.4181663  29.6665638  73.2450969 103.3460392  28.5025825
  73.1304484 102.4445649  28.8032924  72.3895487 103.5924089  28.1510642
  80.3242807 111.2878132  30.1013326  79.8806661 110.5014511  29.7834231
  80.9860021 111.4757283  29.4357217  75.0829928 112.8173934  24.6274005
  75.6337353 112.6890997  23.8550998  74.2441404 113.1168823  24.2768897
  82.4224045 111.5680932  28.1294727  82.4042520 112.3889813  27.6374996
  83.3443965 111.4435008  28.3544868  78.8797099 109.0825062  28.9718236
  79.4125436 108.3213350  28.7417544  78.3511180 108.7898714  29.7142390
  82.0466794  94.1885128  24.5011877  81.7031064  95.0786769  24.4250988
  82.4145757  93.9986785  23.6381462  70.1152645 106.5118658  17.3200480
  70.9527867 106.9215667  17.1034187  70.2930912 105.5718100  17.2900673
  82.0117077 104.1793739  13.0084313  81.4963700 104.9498344  13.2472700
  81.7394385 103.5058875  13.6317374  79.5964188  99.0243440  18.0669551
  78.7405784  98.6350290  17.8875190  80.0091140  99.1035401  17.2069336
  81.1263335  96.5589783  22.4661111  80.6228130  96.5219918  21.6528916
  81.4193941  97.4682526  22.5257767  77.3706220  96.6428513  21.4727292
  78.2359217  96.4471321  21.1133182  77.4383729  96.4138864  22.3996649
  86.9851351 106.9326094  14.9437486  86.2080794 106.5937253  14.4992648
  87.6642832 106.9378717  14.2692451  81.8003380 102.0520831  14.8344094
  81.4953516 102.3666980  15.6854237  82.7533822 102.1302251  14.8771427
  80.2449812 108.2111054  16.4837048  79.7171173 107.4763814  16.1710285
  79.7437315 108.9885731  16.2377016  85.2242658 106.4060075  21.6004094
  84.5666332 107.0959336  21.6884223  86.0283057 106.7956507  21.9438080
  74.9768540  98.8730721  18.8443659  75.5512291  98.6505902  18.1116852
  75.5639522  98.9419415  19.5972261  84.0348117 104.7604448  19.6508036
  84.5479998 105.3934439  20.1529745  84.6849341 104.1605643  19.2851396
  75.3038127 100.9035182  12.8639544  74.4675439 101.2409868  13.1848819
  75.1642896 100.7684161  11.9266681  77.2791207  95.7471970  17.5718729
  76.6255620  95.4320987  16.9475343  77.2371681  95.1247710  18.2978552
  78.3902412 106.0291265   9.4872021  77.4829474 105.7980518   9.6863170
  78.8873444 105.2328884   9.6746002  81.2970491 114.7388772  12.4068707
  80.6232190 115.0420469  13.0153665  81.6836313 115.5417852  12.0574164
  80.5128948 102.2353903  21.8966376  79.5951509 102.4568850  21.7388064
  80.9289091 102.3100214  21.0378084  81.2963995 103.6345319  17.0269057
  82.0435814 104.1466716  16.7176179  81.5655585 103.3129371  17.8873450
  79.5690646 106.1303859  14.0096011  78.6601865 105.8462892  14.1068481
  79.5985729 106.5502938  13.1499318  84.8009913 109.7410449  17.7787178
  84.3472240 108.9001359  17.8352369  84.1703880 110.3771847  18.1161959
  83.7442833 100.6702435  19.0087846  83.0065589 100.1579821  19.3398088
  83.9969606 100.2302817  18.1971123  83.2442852 111.5786946  18.7136997
  83.5365827 112.1392003  17.9949362  83.7541473 111.8715507  19.4690156
  83.8454460  93.4478687  19.6029615  84.1513337  92.5876050  19.3155530
  84.5707065  94.0396307  19.4028609  70.1378816 103.8509374  17.9911213
  69.9403216 103.2578734  17.2662280  69.5825480 103.5461584  18.7087152
  78.1175540 103.7432480  20.1105806  78.1724149 102.7906316  20.0348283
  77.3066742 103.8991919  20.5947105  79.2666733 107.6712603  11.3484089
  78.8286163 106.9548462  10.8889727  80.0077174 107.8988718  10.7869181
  76.0567900 102.3609540  17.8696185  75.2435765 102.6603710  18.2761377
  76.5526894 101.9665229  18.5870667  78.2076477 112.3567297  19.8030450
  78.1652656 112.5828143  18.8738982  79.1239176 112.1230671  19.9516251
  81.6542111 102.8251364  26.7011079  82.0091499 103.0522837  27.5605545
  82.3014242 103.1569741  26.0788334  87.3839848 105.9469800  17.4060408
  87.2457747 106.1371396  16.4781597  87.0276067 106.7089183  17.8628459
  75.5481974  99.9327895  23.4857420  76.1881354  99.7916654  22.7880383
  74.7159505  99.6462409  23.1096022  87.4109228 108.0146327  22.4171679
  87.8445734 107.9221616  23.2654734  88.1240808 107.9903828  21.7791695
  76.3242278 109.2330326  19.5992412  77.1182877 108.7380646  19.3974987
  75.6133971 108.7048189  19.2360118  81.1437123 111.6148421  23.9504780
  81.1974145 112.1839358  24.7182496  80.2751904 111.7850306  23.5858817
  72.6325042 103.3773407  15.6752165  71.7022630 103.3157863  15.8922127
  72.7282514 102.8549360  14.8788806  72.5510591  99.9028220  18.2630407
  72.8117408 100.8173554  18.1539567  73.3727763  99.4352663  18.4127020
  74.0235516 101.3165977  25.4329231  74.6958569 101.1083340  24.7841880
  73.1965303 101.1188063  24.9934464  88.2724777 108.0570028  24.9504565
  88.4660667 108.9615838  25.1963840  88.1725395 107.5977447  25.7843150
  79.9261088  97.9427918  27.4494892  79.2789003  98.6417868  27.3559369
  80.6962103  98.3764062  27.8171140  83.3339886 108.2076771  30.5245445
  83.1825392 107.9787322  29.6075529  83.3244565 109.1647372  30.5376790
  80.1025222 105.7808683  25.5091712  81.0317282 105.9319843  25.3360679
  79.6816252 105.8692704  24.6540358  78.9013554 109.8059348  23.2790250
  78.7624640 109.4378132  24.1516188  78.1128150 110.3206987  23.1074207
  79.4961706 114.9068444  14.6215786  79.6713462 114.4356487  15.4361409
  78.8094494 115.5334210  14.8497047  80.4518769 109.1840950  20.6679087
  80.1168602 109.1441720  21.5636737  79.9522715 108.5185666  20.1949498
  74.4263013 104.5908580  26.1931668  74.2882811 103.8588819  26.7943208
  75.3367937 104.5017481  25.9115856  83.3877961 106.5296985  10.9416147
  82.7707132 105.8043813  10.8449200  82.9194449 107.2906345  10.5983221
  77.0545314 104.3028540  25.6815348  77.7644932 103.6621732  25.6401967
  77.0114622 104.5541435  26.6041529  85.0432093 111.2395893  28.6021927
  84.9844639 110.5555113  27.9352510  85.4451611 111.9814883  28.1502553
  75.7674248 101.2893758  27.5010988  75.2311605 100.8384496  28.1532584
  75.1790956 101.4239667  26.7581452  74.0622791 118.0557807  21.3955646
  74.3019390 118.6876331  22.0734665  73.2191988 117.7045847  21.6821006
  75.1776507 100.7482409  10.0637451  74.3005973 100.6271210   9.6999698
  75.6534260  99.9568487   9.8116340  85.0449500 109.2035477  26.8335907
  84.1576279 108.8661399  26.9562306  85.6148051 108.4718508  27.0704672
  66.6978647 105.5359569  20.1578958  67.3849687 105.2221299  19.5699974
  66.5426776 106.4400933  19.8846210  71.5013369 100.4249765  24.5863982
  71.4171558  99.8175435  23.8514392  70.6796076 100.9158784  24.5873478
  78.5750653 113.8636929  23.7997150  78.5020825 114.6691901  24.3116455
  78.1328046 114.0628895  22.9745172  78.3640433 113.1008699  17.3099972
  77.5807955 113.6430380  17.4038196  79.0633178 113.6182679  17.7094213
  81.6737083  98.9103329  19.9534177  82.1705783  98.1573291  19.6335247
  80.9024065  98.9467646  19.3877386  89.5266840 104.6143694  21.5952469
  89.5156717 105.4968410  21.2246402  88.6584220 104.2615245  21.4007006
  81.0349337 113.7623763  25.9555309  81.7477309 114.3971228  25.8831210
  80.5439365 113.8587629  25.1395311  82.7566864 107.6675016  17.5272601
  81.8223142 107.7876479  17.3577305  82.9343532 106.7647483  17.2632610
  78.2572052 101.0520712  19.6805862  77.8869839 100.4991752  20.3686767
  78.7531144 100.4478845  19.1280862  86.1439415 103.5092335  18.0622635
  86.6099867 104.3420327  17.9882937  86.5946916 103.0437317  18.7667893
  76.0861250 111.5118207  26.7760880  76.7870710 112.1454690  26.9290274
  75.6156365 111.8532938  26.0156519  84.2115646 109.8536157  15.0608787
  84.4875490 109.7392751  15.9702661  83.3420145 109.4553642  15.0220960
  84.1156078  95.8772922  22.1013536  83.2019158  96.1077149  22.2695743
  84.5449179  95.9611366  22.9527568  83.8862536 104.0662814  24.6013430
  83.2333987 104.3138722  23.9465883  84.2642916 103.2526953  24.2675907
  80.8469710 114.1022508  18.7041600  81.0292105 113.2844163  19.1669353
  81.6702696 114.3190200  18.2666490  81.1811876 113.0290693  15.9656649
  81.7099642 112.5183147  15.3526811  81.4440095 112.7133223  16.8302182
  79.9350109 104.8082625  31.0879467  79.2590746 104.7076755  31.7581842
  80.7577743 104.6521839  31.5515464  71.6828968 111.0454562  23.7091982
  72.2682405 110.2998250  23.8419887  71.4853807 111.3558519  24.5928646
  74.5367624 114.0805809  18.7254425  73.8677999 114.5651937  18.2418465
  74.3980493 114.3275030  19.6397803  66.2746623 103.6160162  22.4296426
  66.3130723 103.0823753  23.2233544  65.7686916 103.0895368  21.8107403
  78.6772892 116.1149553  25.3237083  79.2291200 116.2781174  26.0886168
  79.0179086 116.7053991  24.6517108  73.6537385  98.4624703  25.9258968
  73.7178712  99.3239534  25.5136366  73.5904506  97.8498704  25.1931326
  73.1289658 100.5347835  29.5732002  73.7561697 100.1524913  30.1869526
  72.2717577 100.3162037  29.9387695  83.5283767 110.9410810  31.1785738
  84.0723671 111.5540769  30.6840692  82.9470611 111.4990389  31.6952751
  69.9055201 102.3424264  15.5050357  70.2008642 101.4334943  15.4517411
  69.0043236 102.3212004  15.1831359  81.8141279 114.0631528  22.3100765
  81.6892419 113.2621268  21.8011711  82.4720371 114.5577722  21.8214735
  73.4349448 100.4180261  21.4877906  72.7136033 101.0316229  21.3485379
  74.2242703 100.9538026  21.4094551  83.8776188 111.8640548  23.9380315
  82.9306523 111.7445900  23.8658642  84.2258961 110.9763047  24.0206577
  76.2375761  97.7534687  27.7618557  76.7610163  97.9996984  28.5244867
  76.0188095  98.5854722  27.3421695  71.6343042 100.0238362  15.6289682
  71.3055748  99.1435741  15.4464788  71.9882413  99.9686031  16.5166071
  80.8822621 111.6593265  20.1384668  80.7347584 110.7309972  20.3192238
  81.7076115 111.6813355  19.6541743  74.7484865 100.3111332  15.9965160
  75.0880938 100.8397253  15.2743768  75.1956986 100.6491738  16.7723726
  84.4856743 112.4821823  21.2249540  85.4103290 112.2764685  21.0873992
  84.3172046 112.2338225  22.1338882  77.4428306  98.6948383  25.4468228
  77.1025127  97.8956196  25.8488908  76.7367313  98.9950093  24.8745061
  78.0944778  95.7797695  23.8995551  78.9170847  95.3058173  23.7774441
  78.3382842  96.5588179  24.3994237  76.7353013  98.8085953  14.1958453
  77.4561375  99.1867206  13.6922169  76.1118317  99.5274830  14.2993430
  80.8784135  99.5131102  15.1316785  81.0947750 100.3955740  14.8305613
  80.3978203  99.1217316  14.4022427  75.6183357 102.4716816  21.7087529
  75.4727938 102.7857119  22.6011811  75.1408560 103.0901716  21.1558428
  77.4779740  99.4619364  21.7568419  77.4641309  98.5660457  21.4200717
  78.1952168  99.4690027  22.3906705  79.3305870  99.8956704  23.8021546
  79.0723648 100.8173774  23.8005877  78.7990911  99.4987138  24.4922011
  84.2752059 113.0007491  16.5811632  84.4488937 112.4353913  15.8285484
  84.7680950 113.8008386  16.3991122  70.0929019 105.0122160  24.6475191
  69.5482487 105.7881968  24.7795465  70.9708369 105.3592964  24.4894312
  76.8816636  98.3433744  17.0255989  77.0032547  97.4150390  17.2246877
  76.5918678  98.3572430  16.1134305  79.7507826  96.0288654  20.1622709
  79.7729523  96.0927987  19.2074689  80.1675885  95.1893163  20.3563215
  90.1291450 105.7643914  18.2001932  90.5722596 105.0151239  17.8021055
  89.2517961 105.7554050  17.8175664  85.2627232 112.3174255  13.6808530
  85.9578136 112.9380948  13.8995845  85.6050382 111.4669607  13.9560908
  70.8795041 104.1392056  27.5405347  70.1376777 104.2874692  28.1269978
  70.5587785 104.4000322  26.6772097  87.1618655 109.7673961  15.2095861
  87.6869979 110.1061234  14.4845181  87.0741007 108.8320976  15.0258995
  78.8238704 113.6808034  27.3385737  79.1325830 113.4357181  28.2108437
  79.6214186 113.8854673  26.8504608  78.8459316 115.8345944  19.5691114
  78.4064306 115.3422323  20.2623971  79.5967433 115.2918912  19.3283189
  71.3251655 112.0257485  19.5715742  72.1509674 111.7261257  19.1914386
  70.9745707 111.2565107  20.0205531  76.2933188 111.3783953  21.6413416
  75.6713197 110.7154658  21.3415644  76.9638055 111.4045085  20.9587063
  69.5260260 109.9443811  20.5304676  68.6892168 109.5165986  20.3488677
  69.4983905 110.1376255  21.4675467  76.3657715  99.8565741  31.2345922
  76.4145871 100.7327864  30.8523691  76.9080229  99.3143134  30.6617565
  86.8512561 110.4006864  30.5147059  86.0608105 110.3831003  29.9751558
  86.6145915 110.9395158  31.2696095  86.9710436 107.2499331  27.8279787
  87.0208441 107.0849338  28.7695310  86.8624359 106.3826590  27.4377668
  75.8546695 109.9287877  15.1171876  76.0034815 110.6123341  14.4638549
  76.6613138 109.9092967  15.6321332  84.2614198 103.2330259  29.1439094
  85.1624061 103.0936724  28.8523092  84.3362173 103.3984714  30.0837272
  78.5957004 100.6097114  27.9892280  77.7260313 100.9030680  27.7174869
  78.8316484 101.1937559  28.7099544  88.4728633 109.6696272  28.0721809
  88.1813441 110.0326253  28.9085270  87.8600764 108.9563281  27.8935141
  89.6724315 107.2349152  20.5924379  90.5071206 107.6738956  20.7561939
  89.8083444 106.7587805  19.7732625  86.7215821 104.7928887  26.5401867
  87.1969943 104.9856533  25.7320718  85.7981386 104.8488073  26.2945251
  73.6099328 105.9553054  16.1232945  73.3645370 105.0515384  16.3213155
  73.7795242 105.9570205  15.1812423  81.2996037  96.8276731  25.5057701
  81.8177981  97.5637757  25.1804189  80.9451170  97.1340724  26.3404460
  72.8794975 101.6881412  13.6219107  72.1864220 101.7625767  12.9659143
  72.6346727 100.9241755  14.1440624  81.5508632  93.2477013  21.0258597
  81.8310385  92.5800202  21.6519024  82.3359239  93.4406109  20.5133261
  79.3542100 112.4236007  12.5883624  78.7816067 113.0426194  12.1354096
  79.9274894 112.9735369  13.1223546  85.4217490 101.6694647  24.7730172
  86.3734913 101.7692745  24.7942397  85.2520940 100.8772916  25.2828257
  83.4431869  98.7550230  24.9589573  82.8481802  99.0355243  24.2636062
  83.1581566  99.2444131  25.7306315  82.5739360 112.7073157  13.7192206
  83.5070033 112.6418719  13.9225081  82.4862573 113.5429424  13.2606739
  87.9005568 104.8900767  23.8872472  87.8681888 103.9516767  24.0732156
  88.5106191 104.9684803  23.1538297  79.7388899 103.7596820   9.9299676
  80.6848003 103.6303028   9.9988094  79.3603144 103.0211482  10.4069104
  88.0500056 101.6811810  23.9330755  87.5339105 100.8970267  23.7460684
  88.9340005 101.3530527  24.0977275  85.7110783  95.4252826  19.8926568
  85.5135604  95.1167914  20.7769900  86.3210489  96.1514465  20.0224498
  93.7182118 105.9516774  23.0278509  94.4485506 105.6902062  23.5886212
  93.1089063 105.2145496  23.0680577  91.7997415 104.0924636  23.6252960
  91.0730578 103.9580601  23.0169452  91.3844702 104.4001465  24.4309678
  79.6227591 107.8114566  31.3900333  80.5430601 107.9893165  31.5840380
  79.5877174 106.8670611  31.2380032  77.9231816 101.6846796   9.8654561
  77.0163271 101.3879909   9.9417275  78.2007797 101.3876614   8.9988848
  68.8409756 103.0053160  20.3153608  68.5212541 102.1518468  20.0227982
  68.2943184 103.2201738  21.0711575  72.6189664 105.7215601  24.0323114
  72.8375674 106.6532708  24.0511148  73.0315438 105.3623575  24.8177918
  79.5393882  96.2283686  16.0198803  78.7294610  95.8830771  16.3954049
  80.2278298  95.9191230  16.6086414  81.4684430  95.3061733  17.6423099
  82.0215468  95.7257186  18.3013122  81.7054516  94.3797481  17.6846055
  77.4917529 101.2948806  33.4225863  77.3914256 102.2443163  33.3537954
  77.2739071 100.9667045  32.5501933  76.6930600  98.5433731  10.0066541
  77.5549764  98.8688630  10.2662358  76.8780945  97.7565227   9.4939606
  68.7098016 106.6256071  22.2846729  68.0161488 106.2110024  21.7716684
  69.4571007 106.6676608  21.6880148  84.8463237  97.4162258  17.1501764
  84.2661906  98.0747062  16.7679816  84.5799170  96.5939602  16.7389181
  83.2966803  96.8167316  19.3523084  83.7966582  96.9283850  18.5437403
  83.9402411  96.5128368  19.9923892  77.3548799 104.7245945  32.2390925
  76.8715881 105.5246305  32.4454814  77.4409738 104.7353890  31.2858369
  70.6234759 106.5574325  20.1612744  70.6005447 106.6562012  19.2094627
  70.9335395 107.4039476  20.4829910  73.2822137 108.6150480  24.2759359
  74.2365390 108.5834422  24.2089290  73.0834660 108.1541104  25.0909585
  73.8721519 107.1851596  26.8430156  74.6914408 107.6795675  26.8664994
  74.1458326 106.2683564  26.8147724  83.6288115  99.5762348  16.2058112
  82.7413970  99.8611999  15.9878307  84.0442104  99.4156112  15.3585389
  86.9802651  99.6008869  19.9212451  87.7563041 100.0905322  20.1937068
  86.2550785 100.0266923  20.3784321  89.4175210 100.3136488  20.9786392
  90.0119700 100.0732224  20.2679700  89.4901793  99.5943619  21.6059928
  71.6372365 114.1570099  21.2929557  71.5026833 113.3970500  20.7267555
  71.2204428 114.8810999  20.8258345  82.7731328 109.3407023  10.3006132
  83.4767179 109.5457025  10.9163787  82.0493977 109.9083785  10.5655215
  83.6029139 105.0916884  16.4208402  83.5464340 105.5485436  15.5816034
  84.1557481 104.3307569  16.2431245  87.4133945 100.8806616  17.2458522
  87.1570879 100.4803252  18.0766729  86.7886813 101.5950410  17.1208661
  91.7246282 103.6202689  19.7529813  91.1645840 103.6895879  20.5261375
  91.1189786 103.4443674  19.0329309  74.7941491 115.0539416  21.5047999
  74.6773875 115.9984849  21.4026689  73.9733938 114.7512978  21.8933798
  84.6818026 109.7789552  12.3504592  85.5163630 109.3470751  12.1682067
  84.5202369 109.6071566  13.2781486  84.3363918 106.2821665  13.7160931
  84.2812722 106.1165937  12.7749375  83.7109973 106.9897698  13.8723121
  69.1256433 101.5189730  27.5422353  69.7715297 101.0088684  28.0309579
  68.9173584 102.2558411  28.1165779  81.6509825 108.5870577  33.0414494
  82.5200985 108.7611230  32.6801129  81.1716577 109.4064994  32.9190223
  77.6460043  95.7829774  13.2946250  77.6338713  96.7271614  13.4514520
  78.5383465  95.5999920  13.0005711  75.8196005 115.7067678  24.7203928
  76.7223252 115.7391288  25.0370423  75.5933375 114.7768129  24.7350263
  77.5749607 114.4598665  21.3814006  76.6245238 114.4600526  21.2678379
  77.8782094 113.7131399  20.8650041  81.4612163  92.3772551  17.5492186
  80.6944559  91.8231038  17.6948869  81.8722868  92.4494420  18.4106338
  73.4653924  98.6657347  31.6397368  74.3285386  98.3094152  31.8500692
  72.8919335  98.3271242  32.3272772  93.3102301 120.2959203  22.4459769
  93.9480711 120.1765951  21.7423109  93.1923144 121.2440047  22.5047721
  90.1192007 120.2486631  22.3821293  89.7810519 120.1327696  21.4941828
  90.9881775 119.8477796  22.3622299  85.9778823 122.1022108  18.3718184
  85.4143688 122.0112045  17.6034472  85.8631218 121.2822012  18.8520677
  90.6011790 121.4021483  28.3407499  90.5900431 121.0074281  27.4688003
  90.7632430 120.6687556  28.9341270  83.5243255 123.5973299  21.2102405
  84.3164547 123.2564124  20.7948704  83.7639905 123.7068274  22.1304558
  87.3219051 124.1858595  27.2886683  87.0308917 125.0904226  27.1733349
  87.9576036 124.2275122  28.0030752  88.2475258 121.5635443  23.8788043
  88.8438830 121.3391466  23.1645005  88.3050230 120.8220189  24.4813490
  92.8643569 118.0210657  19.5212977  93.6506659 117.6030080  19.1703394
  93.1282274 118.9256749  19.6894625  98.2651997 117.9585890  20.4245955
  98.9977168 117.3885107  20.6583785  97.5091352 117.5707491  20.8652461
  89.8828116 120.3813132  17.6209298  89.5186323 119.8543753  18.3322219
  90.7395232 119.9911601  17.4475783  95.7877417 111.6707464  24.8840564
  95.4560742 112.5402875  24.6601779  95.1923030 111.3543748  25.5634594
  92.2808936 123.8720010  24.2836477  91.9809659 124.7745049  24.1752284
  91.9359996 123.6052194  25.1357629  85.7321418 120.3233807  20.3173181
  84.8071914 120.1910021  20.5250873  85.9805831 121.1028026  20.8143123
  95.6806080 116.3902550  21.9633914  94.7722958 116.3217959  21.6692675
  95.6293676 116.8674495  22.7915739  83.0930229 119.9667081  21.1516970
  83.2222610 120.2201560  22.0656382  82.4127680 120.5594789  20.8321625
  89.7546946 117.8092196  29.9068811  88.9780280 118.3686116  29.8971676
  90.3937509 118.2948979  30.4283681  97.5467727 114.5918989  23.7411788
  96.9042107 114.8851522  23.0951582  97.0422655 114.4771909  24.5464984
  88.0093318 120.6177649  29.4686778  88.7508003 121.1562693  29.1921602
  87.3030304 121.2443938  29.6258330  93.4848658 122.7606790  28.0658940
  93.8932014 122.3189200  27.3213572  92.7625919 122.1859417  28.3193133
  89.8379728 117.6979397  25.4392497  90.6840923 118.1218810  25.5827146
  89.7778366 117.0413021  26.1331060  93.8077473 123.3207981  21.8211229
  93.1786335 123.4853695  21.1187296  93.4203135 123.7349590  22.5922193
  92.9879173 115.3583765  27.0973670  92.7440105 116.1125826  26.5607946
  93.2639104 115.7369113  27.9320917  94.9417636 121.9022377  25.7750936
  95.1534531 122.5454137  25.0985317  94.8947384 121.0684694  25.3072866
  92.5443865 114.5140198  22.6787508  91.6828344 114.8121452  22.9704246
  92.5706300 114.7310597  21.7468541  86.2529515 122.6053870  22.0241077
  86.8230873 123.0341139  21.3858561  86.8437627 122.3236455  22.7225263
  88.2974320 119.1805541  15.8950879  88.9998364 119.6326585  16.3624805
  87.9654949 118.5389360  16.5230772  86.7454682 117.7717298  30.2702088
  86.1153343 118.4533578  30.5037485  86.6390770 117.6600379  29.3255226
  82.0399654 117.4389094  21.1968012  81.2498708 117.6946622  20.7208123
  82.5310902 118.2537432  21.3020053  96.0563464 124.7794333  23.9473293
  96.8780908 124.3774520  23.6655975  96.0525867 124.6762567  24.8989409
  83.9914400 117.8033673  18.1551489  83.1945563 117.9152367  18.6734985
  83.7639992 118.1420325  17.2892380  89.8220067 124.3278376  26.1034004
  89.8864500 124.7898783  26.9392175  89.1130991 123.6975741  26.2316313
  80.3237357 117.6919584  23.6283003  80.5745396 118.5766594  23.8940579
  80.8596906 117.5124186  22.8558095  86.0235425 112.0738063  32.6327339
  85.6302370 111.5204262  33.3074983  86.8401565 112.3848642  33.0233857
  82.9897483 123.5121922  16.5440909  83.5022003 124.3065172  16.6946474
  83.6420195 122.8148212  16.4774511  88.9403386 113.4895943  30.2247596
  89.6813099 114.0903096  30.1452058  89.1721309 112.7473580  29.6665638
  84.0844724 118.6752310  28.5025825  83.9698239 117.7737567  28.8032924
  83.2289241 118.9216007  28.1510642  91.1636561 126.6170050  30.1013326
  90.7200416 125.8306429  29.7834231  91.8253775 126.8049201  29.4357217
  85.9223683 128.1465852  24.6274005  86.4731108 128.0182915  23.8550998
  85.0835159 128.4460741  24.2768897  93.2617800 126.8972850  28.1294727
  93.2436275 127.7181731  27.6374996  94.1837720 126.7726925  28.3544868
  89.7190854 124.4116980  28.9718236  90.2519191 123.6505268  28.7417544
  89.1904935 124.1190631  29.7142390  92.8860549 109.5177045  24.5011877
  92.5424818 110.4078687  24.4250988  93.2539511 109.3278703  23.6381462
  80.9546399 121.8410576  17.3200480  81.7921621 122.2507584  17.1034187
  81.1324667 120.9010018  17.2900673  90.4357942 114.3535357  18.0669551
  89.5799539 113.9642208  17.8875190  90.8484894 114.4327318  17.2069336
  91.9657089 111.8881701  22.4661111  91.4621885 111.8511836  21.6528916
  92.2587696 112.7974443  22.5257767  88.2099975 111.9720430  21.4727292
  89.0752972 111.7763239  21.1133182  88.2777484 111.7430782  22.3996649
  96.0636412 121.7351993  21.6004094  95.4060087 122.4251254  21.6884223
  96.8676812 122.1248424  21.9438080  85.8162294 114.2022638  18.8443659
  86.3906046 113.9797820  18.1116852  86.4033276 114.2711333  19.5972261
  94.8741871 120.0896365  19.6508036  95.3873753 120.7226357  20.1529745
  95.5243095 119.4897561  19.2851396  88.1184962 111.0763887  17.5718729
  87.4649374 110.7612904  16.9475343  88.0765436 110.4539628  18.2978552
  91.3522702 117.5645821  21.8966376  90.4345263 117.7860768  21.7388064
  91.7682846 117.6392131  21.0378084  94.5836587 115.9994353  19.0087846
  93.8459344 115.4871739  19.3398088  94.8363361 115.5594734  18.1971123
  94.6848214 108.7770605  19.6029615  94.9907091 107.9167968  19.3155530
  95.4100819 109.3688225  19.4028609  80.9772570 119.1801291  17.9911213
  80.7796970 118.5870652  17.2662280  80.4219234 118.8753501  18.7087152
  88.9569294 119.0724398  20.1105806  89.0117904 118.1198234  20.0348283
  88.1460496 119.2283837  20.5947105  86.8961654 117.6901457  17.8696185
  86.0829520 117.9895628  18.2761377  87.3920648 117.2957146  18.5870667
  92.4935866 118.1543282  26.7011079  92.8485253 118.3814755  27.5605545
  93.1407997 118.4861659  26.0788334  86.3875729 115.2619813  23.4857420
  87.0275108 115.1208572  22.7880383  85.5553259 114.9754326  23.1096022
  87.1636033 124.5622243  19.5992412  87.9576631 124.0672564  19.3974987
  86.4527725 124.0340107  19.2360118  91.9830877 126.9440339  23.9504780
  92.0367899 127.5131275  24.7182496  91.1145658 127.1142224  23.5858817
  83.4718796 118.7065325  15.6752165  82.5416384 118.6449781  15.8922127
  83.5676268 118.1841278  14.8788806  83.3904345 115.2320138  18.2630407
  83.6511162 116.1465471  18.1539567  84.2121518 114.7644581  18.4127020
  84.8629271 116.6457895  25.4329231  85.5352324 116.4375257  24.7841880
  84.0359057 116.4479981  24.9934464  99.1118532 123.3861946  24.9504565
  99.3054422 124.2907756  25.1963840  99.0119150 122.9269365  25.7843150
  90.7654843 113.2719836  27.4494892  90.1182758 113.9709786  27.3559369
  91.5355858 113.7055980  27.8171140  94.1733640 123.5368688  30.5245445
  94.0219147 123.3079240  29.6075529  94.1638320 124.4939290  30.5376790
  90.9418977 121.1100601  25.5091712  91.8711037 121.2611761  25.3360679
  90.5210007 121.1984622  24.6540358  89.7407309 125.1351265  23.2790250
  89.6018394 124.7670050  24.1516188  88.9521905 125.6498905  23.1074207
  91.2912524 124.5132868  20.6679087  90.9562356 124.4733638  21.5636737
  90.7916469 123.8477584  20.1949498  85.2656768 119.9200498  26.1931668
  85.1276566 119.1880737  26.7943208  86.1761691 119.8309398  25.9115856
  87.8939068 119.6320457  25.6815348  88.6038687 118.9913650  25.6401967
  87.8508377 119.8833352  26.6041529  95.8825847 126.5687811  28.6021927
  95.8238393 125.8847031  27.9352510  96.2845365 127.3106801  28.1502553
  86.6068002 116.6185675  27.5010988  86.0705359 116.1676414  28.1532584
  86.0184711 116.7531584  26.7581452  95.8843254 124.5327395  26.8335907
  94.9970033 124.1953317  26.9562306  96.4541805 123.8010426  27.0704672
  77.5372401 120.8651486  20.1578958  78.2243441 120.5513217  19.5699974
  77.3820530 121.7692851  19.8846210  82.3407124 115.7541683  24.5863982
  82.2565312 115.1467353  23.8514392  81.5189830 116.2450701  24.5873478
  89.4144408 129.1928847  23.7997150  89.3414579 129.9983819  24.3116455
  88.9721801 129.3920813  22.9745172  92.5130838 114.2395247  19.9534177
  93.0099537 113.4865209  19.6335247  91.7417819 114.2759563  19.3877386
  91.8743091 129.0915681  25.9555309  92.5871063 129.7263146  25.8831210
  91.3833120 129.1879547  25.1395311  89.0965806 116.3812630  19.6805862
  88.7263594 115.8283670  20.3686767  89.5924899 115.7770763  19.1280862
  86.9255005 126.8410125  26.7760880  87.6264464 127.4746608  26.9290274
  86.4550120 127.1824856  26.0156519  94.9549832 111.2064840  22.1013536
  94.0412912 111.4369067  22.2695743  95.3842934 111.2903284  22.9527568
  94.7256291 119.3954732  24.6013430  94.0727741 119.6430639  23.9465883
  95.1036671 118.5818870  24.2675907  90.7743864 120.1374543  31.0879467
  90.0984501 120.0368672  31.7581842  91.5971498 119.9813757  31.5515464
  82.5222723 126.3746480  23.7091982  83.1076160 125.6290168  23.8419887
  82.3247561 126.6850436  24.5928646  77.1140378 118.9452080  22.4296426
  77.1524477 118.4115671  23.2233544  76.6080670 118.4187285  21.8107403
  89.5166647 131.4441471  25.3237083  90.0684955 131.6073092  26.0886168
  89.8572840 132.0345908  24.6517108  84.4931140 113.7916620  25.9258968
  84.5572466 114.6531451  25.5136366  84.4298260 113.1790622  25.1931326
  83.9683412 115.8639753  29.5732002  84.5955451 115.4816830  30.1869526
  83.1111331 115.6453955  29.9387695  94.3677521 126.2702728  31.1785738
  94.9117425 126.8832686  30.6840692  93.7864366 126.8282306  31.6952751
  80.7448955 117.6716182  15.5050357  81.0402396 116.7626860  15.4517411
  79.8436991 117.6503921  15.1831359  84.2743202 115.7472179  21.4877906
  83.5529788 116.3608146  21.3485379  85.0636458 116.2829943  21.4094551
  94.7169942 127.1932466  23.9380315  93.7700278 127.0737817  23.8658642
  95.0652715 126.3054964  24.0206577  87.0769516 113.0826605  27.7618557
  87.6003918 113.3288902  28.5244867  86.8581849 113.9146640  27.3421695
  82.4736797 115.3530280  15.6289682  82.1449503 114.4727659  15.4464788
  82.8276167 115.2977948  16.5166071  85.5878620 115.6403249  15.9965160
  85.9274692 116.1689171  15.2743768  86.0350740 115.9783656  16.7723726
  88.2822061 114.0240300  25.4468228  87.9418881 113.2248113  25.8488908
  87.5761067 114.3242011  24.8745061  88.9338533 111.1089613  23.8995551
  89.7564602 110.6350091  23.7774441  89.1776596 111.8880096  24.3994237
  87.5746767 114.1377871  14.1958453  88.2955130 114.5159124  13.6922169
  86.9512071 114.8566748  14.2993430  86.4577111 117.8008733  21.7087529
  86.3121692 118.1149036  22.6011811  85.9802315 118.4193634  21.1558428
  88.3173494 114.7911281  21.7568419  88.3035063 113.8952375  21.4200717
  89.0345922 114.7981945  22.3906705  90.1699625 115.2248621  23.8021546
  89.9117403 116.1465692  23.8005877  89.6384665 114.8279056  24.4922011
  80.9322774 120.3414078  24.6475191  80.3876242 121.1173886  24.7795465
  81.8102123 120.6884882  24.4894312  87.7210390 113.6725662  17.0255989
  87.8426301 112.7442308  17.2246877  87.4312433 113.6864347  16.1134305
  90.5901581 111.3580572  20.1622709  90.6123277 111.4219905  19.2074689
  91.0069640 110.5185081  20.3563215  81.7188795 119.4683974  27.5405347
  80.9770531 119.6166609  28.1269978  81.3981540 119.7292240  26.6772097
  89.6632458 129.0099952  27.3385737  89.9719584 128.7649099  28.2108437
  90.4607940 129.2146591  26.8504608  82.1645409 127.3549403  19.5715742
  82.9903429 127.0553174  19.1914386  81.8139461 126.5857025  20.0205531
  87.1326942 126.7075871  21.6413416  86.5106952 126.0446576  21.3415644
  87.8031809 126.7337003  20.9587063  80.3654014 125.2735729  20.5304676
  79.5285922 124.8457903  20.3488677  80.3377660 125.4668172  21.4675467
  87.2051470 115.1857659  31.2345922  87.2539625 116.0619782  30.8523691
  87.7473984 114.6435052  30.6617565  97.6906315 125.7298782  30.5147059
  96.9001859 125.7122921  29.9751558  97.4539670 126.2687076  31.2696095
  97.8104190 122.5791249  27.8279787  97.8602195 122.4141256  28.7695310
  97.7018114 121.7118508  27.4377668  95.1007953 118.5622177  29.1439094
  96.0017816 118.4228641  28.8523092  95.1755927 118.7276631  30.0837272
  89.4350758 115.9389031  27.9892280  88.5654068 116.2322597  27.7174869
  89.6710239 116.5229476  28.7099544  99.3122387 124.9988190  28.0721809
  99.0207196 125.3618171  28.9085270  98.6994519 124.2855198  27.8935141
  97.5609576 120.1220805  26.5401867  98.0363697 120.3148451  25.7320718
  96.6375141 120.1779990  26.2945251  92.1389792 112.1568648  25.5057701
  92.6571736 112.8929675  25.1804189  91.7844925 112.4632642  26.3404460
  83.7188730 117.0173329  13.6219107  83.0257975 117.0917684  12.9659143
  83.4740482 116.2533673  14.1440624  92.3902386 108.5768931  21.0258597
  92.6704140 107.9092120  21.6519024  93.1752993 108.7698026  20.5133261
  96.2611245 116.9986565  24.7730172  97.2128667 117.0984662  24.7942397
  96.0914695 116.2064833  25.2828257  94.2825624 114.0842148  24.9589573
  93.6875556 114.3647161  24.2636062  93.9975321 114.5736049  25.7306315
  98.7399322 120.2192684  23.8872472  98.7075642 119.2808685  24.0732156
  99.3499946 120.2976721  23.1538297  98.8893811 117.0103728  23.9330755
  98.3732859 116.2262184  23.7460684  99.7733759 116.6822444  24.0977275
  96.5504538 110.7544743  19.8926568  96.3529359 110.4459832  20.7769900
  97.1604243 111.4806382  20.0224498 102.6391169 119.4216554  23.6252960
 101.9124333 119.2872519  23.0169452 102.2238456 119.7293382  24.4309678
  90.4621346 123.1406484  31.3900333  91.3824355 123.3185083  31.5840380
  90.4270929 122.1962529  31.2380032  79.6803511 118.3345077  20.3153608
  79.3606295 117.4810385  20.0227982  79.1336939 118.5493655  21.0711575
  83.4583418 121.0507518  24.0323114  83.6769428 121.9824626  24.0511148
  83.8709192 120.6915493  24.8177918  90.3787636 111.5575603  16.0198803
  89.5688364 111.2122688  16.3954049  91.0672053 111.2483147  16.6086414
  92.3078184 110.6353650  17.6423099  92.8609223 111.0549104  18.3013122
  92.5448271 109.7089398  17.6846055  88.3311284 116.6240724  33.4225863
  88.2308010 117.5735081  33.3537954  88.1132826 116.2958963  32.5501933
  79.5491771 121.9547989  22.2846729  78.8555242 121.5401941  21.7716684
  80.2964762 121.9968525  21.6880148  95.6856991 112.7454175  17.1501764
  95.1055660 113.4038979  16.7679816  95.4192924 111.9231520  16.7389181
  94.1360558 112.1459233  19.3523084  94.6360336 112.2575768  18.5437403
  94.7796166 111.8420286  19.9923892  88.1942554 120.0537863  32.2390925
  87.7109635 120.8538223  32.4454814  88.2803493 120.0645808  31.2858369
  81.4628513 121.8866242  20.1612744  81.4399201 121.9853930  19.2094627
  81.7729150 122.7331393  20.4829910  84.1215891 123.9442397  24.2759359
  85.0759145 123.9126340  24.2089290  83.9228415 123.4833021  25.0909585
  84.7115273 122.5143514  26.8430156  85.5308162 123.0087592  26.8664994
  84.9852081 121.5975482  26.8147724  97.8196406 114.9300787  19.9212451
  98.5956796 115.4197239  20.1937068  97.0944540 115.3558841  20.3784321
 100.2568964 115.6428406  20.9786392 100.8513455 115.4024142  20.2679700
 100.3295548 114.9235537  21.6059928  82.4766120 129.4862017  21.2929557
  82.3420588 128.7262418  20.7267555  82.0598182 130.2102917  20.8258345
  85.6335246 130.3831334  21.5047999  85.5167630 131.3276766  21.4026689
  84.8127692 130.0804896  21.8933798  79.9650187 116.8481647  27.5422353
  80.6109051 116.3380601  28.0309579  79.7567339 117.5850329  28.1165779
  92.4903580 123.9162495  33.0414494  93.3594739 124.0903147  32.6801129
  92.0110331 124.7356912  32.9190223  88.4853798 111.1121692  13.2946250
  88.4732468 112.0563532  13.4514520  89.3777220 110.9291837  13.0005711
  86.6589760 131.0359596  24.7203928  87.5617007 131.0683206  25.0370423
  86.4327130 130.1060047  24.7350263  92.3005917 107.7064469  17.5492186
  91.5338313 107.1522955  17.6948869  92.7116622 107.7786337  18.4106338
  84.3047678 113.9949264  31.6397368  85.1679140 113.6386069  31.8500692
  83.7313089 113.6563159  32.3272772 100.5940700 133.1384114  29.9068811
  99.8174035 133.6978034  29.8971676 101.2331264 133.6240897  30.4283681
  97.5848437 133.1009215  30.2702088  96.9547097 133.7825496  30.5037485
  97.4784524 132.9892297  29.3255226  96.8629179 127.4029981  32.6327339
  96.4696125 126.8496180  33.3074983  97.6795320 127.7140560  33.0233857
  99.7797140 128.8187860  30.2247596 100.5206854 129.4195013  30.1452058
 100.0115063 128.0765498  29.6665638  94.9238478 134.0044227  28.5025825
  94.8091993 133.1029485  28.8032924  94.0682996 134.2507924  28.1510642
 101.6048597 128.6011754  27.4494892 100.9576512 129.3001703  27.3559369
 102.3749612 129.0347898  27.8171140  97.4461757 131.9477593  27.5010988
  96.9099114 131.4968331  28.1532584  96.8578465 132.0823502  26.7581452
 101.6137618 135.4666461  31.0879467 100.9378255 135.3660590  31.7581842
 102.4365252 135.3105675  31.5515464  95.3324894 129.1208538  25.9258968
  95.3966221 129.9823369  25.5136366  95.2692015 128.5082540  25.1931326
  94.8077167 131.1931671  29.5732002  95.4349206 130.8108748  30.1869526
  93.9505086 130.9745873  29.9387695  97.9163270 128.4118523  27.7618557
  98.4397672 128.6580819  28.5244867  97.6975603 129.2438558  27.3421695
  92.5582550 134.7975892  27.5405347  91.8164286 134.9458527  28.1269978
  92.2375294 135.0584157  26.6772097  98.0445224 130.5149577  31.2345922
  98.0933380 131.3911699  30.8523691  98.5867738 129.9726970  30.6617565
 100.2744513 131.2680949  27.9892280  99.4047822 131.5614515  27.7174869
 100.5103993 131.8521394  28.7099544  99.1705038 131.9532642  33.4225863
  99.0701765 132.9026999  33.3537954  98.9526580 131.6250881  32.5501933
  99.0336308 135.3829780  32.2390925  98.5503390 136.1830141  32.4454814
  99.1197247 135.3937725  31.2858369  90.8043942 132.1773565  27.5422353
  91.4502806 131.6672519  28.0309579  90.5961093 132.9142247  28.1165779
  95.1441433 129.3241182  31.6397368  96.0072895 128.9677987  31.8500692
  94.5706844 128.9855077  32.3272772  47.8061545  42.3064502  16.8258633
  47.3625399  41.5200881  16.5079537  48.4678758  42.4943653  16.1602523
  49.9042783  42.5867302  14.8540034  49.8861258  43.4076183  14.3620303
  50.8262703  42.4621377  15.0790175  46.3615837  40.1011431  15.6963542
  46.8944174  39.3399720  15.4662850  45.8329918  39.8085083  16.4387697
  50.8158624  39.2263140  17.2490752  50.6644130  38.9973692  16.3320836
  50.8063303  40.1833742  17.2622097  52.5250830  42.2582263  15.3267234
  52.4663377  41.5741483  14.6597817  52.9270349  43.0001253  14.8747860
  52.5268238  40.2221847  13.5581214  51.6395016  39.8847768  13.6807613
  53.0966789  39.4904878  13.7949979  48.5168075  44.7810133  12.6800616
  49.2296047  45.4157598  12.6076517  48.0258103  44.8773999  11.8640617
  47.4168847  35.8268995  17.8124774  46.7409484  35.7263124  18.4827149
  48.2396481  35.6708209  18.2760771  46.1591630  47.1335922  12.0482390
  46.7109938  47.2967544  12.8131475  46.4997823  47.7240360  11.3762415
  51.0102504  41.9597180  17.9031044  51.5542408  42.5727138  17.4085999
  50.4289349  42.5176758  18.4198057  46.3057441  44.6994404  14.0631044
  46.6144568  44.4543551  14.9353744  47.1032923  44.9041042  13.5749914
  54.3331299  41.4193234  17.2392365  53.5426842  41.4017373  16.6996865
  54.0964653  41.9581528  17.9941402  54.4529174  38.2685700  14.5525094
  54.5027179  38.1035708  15.4940617  54.3443097  37.4012959  14.1622975
  55.9547371  40.6882642  14.7967116  55.6632179  41.0512622  15.6330577
  55.3419502  39.9749650  14.6180448  47.1046329  38.8300935  18.1145640
  48.0249338  39.0079534  18.3085686  47.0695912  37.8856981  17.9625339
  49.1328563  39.6056947  19.7659801  50.0019723  39.7797599  19.4046436
  48.6535314  40.4251364  19.6435530  60.7921039  51.3145573   9.1705075
  61.4299449  51.1952320   8.4668415  60.6741882  52.2626417   9.2293027
  57.6010745  51.2673001   9.1066600  57.2629256  51.1514066   8.2187135
  58.4700513  50.8664166   9.0867606  58.0830528  52.4207853  15.0652806
  58.0719169  52.0260651  14.1933309  58.2451167  51.6873925  15.6586577
  51.0061993  54.6159669   7.9347711  51.7983285  54.2750493   7.5194011
  51.2458643  54.7254644   8.8549865  54.8037789  55.2044964  14.0131989
  54.5127655  56.1090595  13.8978656  55.4394773  55.2461492  14.7276059
  55.7293996  52.5821813  10.6033349  56.3257568  52.3577835   9.8890312
  55.7868967  51.8406558  11.2058797  60.3462307  49.0397027   6.2458283
  61.1325396  48.6216450   5.8948700  60.6101011  49.9443119   6.4139932
  65.7470734  48.9772260   7.1491262  66.4795906  48.4071477   7.3829091
  64.9910090  48.5893860   7.5897767  57.3646854  51.3999501   4.3454604
  57.0005061  50.8730122   5.0567526  58.2213970  51.0097970   4.1721090
  63.2696155  42.6893834  11.6085870  62.9379479  43.5589245  11.3847085
  62.6741768  42.3730118  12.2879901  59.7627674  54.8906380  11.0081783
  59.4628397  55.7931419  10.8997590  59.4178734  54.6238563  11.8602936
  53.2140156  51.3420177   7.0418488  52.2890652  51.2096391   7.2496179
  53.4624569  52.1214396   7.5388430  63.1624818  47.4088920   8.6879220
  62.2541695  47.3404328   8.3937981  63.1112414  47.8860865   9.5161046
  50.5748967  50.9853450   7.8762277  50.7041348  51.2387929   8.7901688
  49.8946418  51.5781158   7.5566932  54.7448454  61.6550700   3.9752751
  54.6672484  62.6058525   4.0541231  54.1410098  61.3096573   4.6327677
  57.2365684  48.8278566  16.6314118  56.4599018  49.3872486  16.6216982
  57.8756247  49.3135349  17.1528988  65.0286464  45.6105358  10.4657094
  64.3860845  45.9037892   9.8196889  64.5241393  45.4958279  11.2710291
  55.4912056  51.6364019  16.1932085  56.2326740  52.1749063  15.9166908
  54.7849042  52.2630308  16.3503637  60.9667396  53.7793159  14.7904246
  61.3750752  53.3375570  14.0458879  60.2444657  53.2045787  15.0438439
  57.3198466  48.7165766  12.1637803  58.1659661  49.1405180  12.3072452
  57.2597103  48.0599391  12.8576366  61.2896210  54.3394350   8.5456535
  60.6605073  54.5040064   7.8432603  60.9021872  54.7535960   9.3167499
  65.1685442  55.2748788   5.9000899  64.4836480  55.6547689   5.3497932
  65.2529292  55.8844115   6.6332847  60.4697911  46.3770135  13.8218977
  60.2258843  47.1312195  13.2853253  60.7457842  46.7555482  14.6566224
  62.4236374  52.9208747  12.4996242  62.6353269  53.5640507  11.8230624
  62.3766122  52.0871064  12.0318173  60.0262603  45.5326568   9.4032815
  59.1647082  45.8307821   9.6949552  60.0525037  45.7496967   8.4713847
  56.8424172  54.0768758   5.8106620  57.3062518  54.3556461   5.0211243
  56.5780970  53.1752203   5.6279711  53.7348253  53.6240240   8.7486383
  54.3049610  54.0527508   8.1103868  54.3256365  53.3422824   9.4470569
  54.2273420  48.7903667  16.9947395  53.5972080  49.4719948  17.2282792
  54.1209508  48.6786749  16.0500533  63.5382202  55.7980702  10.6718600
  64.3599646  55.3960890  10.3901281  63.5344605  55.6948937  11.6234716
  57.3038805  55.3464746  12.8279310  57.3683238  55.8085153  13.6637482
  56.5949729  54.7162111  12.9561620  47.8056095  48.7105954  10.3528310
  48.0564134  49.5952964  10.6185886  48.3415644  48.5310555   9.5803402
  71.6288195  52.1419451   7.0203571  70.8751903  51.5726849   6.8647576
  71.7635736  52.1082115   7.9674206  57.0186823  57.0132853   2.6958291
  56.8832498  57.8584389   3.1243138  57.5596635  57.2152131   1.9324224
  53.5054163  43.0924433  19.3572646  53.1121108  42.5390632  20.0320290
  54.3220303  43.4035012  19.7479163  52.2811105  57.6474047   5.3508969
  52.4577733  58.5692012   5.1629953  53.0767939  57.3332467   5.7803349
  56.4222124  44.5082312  16.9492902  57.1631837  45.1089465  16.8697365
  56.6540046  43.7659950  16.3910945  51.5663462  49.6938679  15.2271132
  51.4516977  48.7923937  15.5278231  50.7107979  49.9402376  14.8755949
  58.6455299  57.6356420  16.8258633  58.2019153  56.8492798  16.5079537
  59.3072513  57.8235570  16.1602523  53.4042420  59.1652221  11.3519311
  53.9549846  59.0369285  10.5796305  52.5653896  59.4647110  11.0014204
  60.7436537  57.9159220  14.8540034  60.7255013  58.7368101  14.3620303
  61.6656457  57.7913295  15.0790175  57.2009592  55.4303349  15.6963542
  57.7337928  54.6691637  15.4662850  56.6723673  55.1377001  16.4387697
  60.3679286  40.5363415  11.2257184  60.0243556  41.4265057  11.1496295
  60.7358249  40.3465073  10.3626769  59.4475827  42.9068070   9.1906417
  58.9440622  42.8698205   8.3774223  59.7406434  43.8160813   9.2503074
  65.3063843  53.2804381   1.6682793  64.5293286  52.9415540   1.2237955
  65.9855324  53.2857004   0.9937758  58.5662304  54.5589342   3.2082354
  58.0383666  53.8242101   2.8955592  58.0649807  55.3364018   2.9622323
  63.5455150  52.7538362   8.3249401  62.8878825  53.4437623   8.4129529
  64.3495549  53.1434794   8.6683387  62.3560609  51.1082735   6.3753342
  62.8692491  51.7412727   6.8775052  63.0061833  50.5083930   6.0096702
  59.6182983  61.0867059  -0.8685986  58.9444682  61.3898756  -0.2601029
  60.0048805  61.8896139  -1.2180529  58.8341440  48.5832190   8.6211683
  57.9164001  48.8047137   8.4633371  59.2501584  48.6578501   7.7623390
  63.1222405  56.0888736   4.5032485  62.6684732  55.2479646   4.5597675
  62.4916372  56.7250135   4.8407265  62.0655325  47.0180722   5.7333152
  61.3278082  46.5058108   6.0643395  62.3182098  46.5781104   4.9216429
  61.5655344  57.9265233   5.4382303  61.8578319  58.4870290   4.7194669
  62.0753965  58.2193794   6.1935462  56.4388032  50.0910767   6.8351113
  56.4936642  49.1384604   6.7593589  55.6279234  50.2470206   7.3192411
  56.5288970  58.7045584   6.5275756  56.4865148  58.9306430   5.5984288
  57.4451669  58.4708959   6.6761558  59.9754603  49.1729652  13.4256386
  60.3303991  49.4001125  14.2850851  60.6226735  49.5048028  12.8033641
  65.7052340  52.2948087   4.1305715  65.5670239  52.4849683   3.2026904
  65.3488559  53.0567470   4.5873766  53.8694467  46.2806183  10.2102727
  54.5093846  46.1394942   9.5125690  53.0371997  45.9940696   9.8341329
  65.7321720  54.3624614   9.1416986  66.1658227  54.2699904   9.9900040
  66.4453301  54.3382115   8.5037002  54.6454770  55.5808613   6.3237719
  55.4395369  55.0858933   6.1220294  53.9346463  55.0526476   5.9605425
  59.4649615  57.9626709  10.6750087  59.5186637  58.5317645  11.4427803
  58.5964396  58.1328594  10.3104124  52.3448008  47.6644265  12.1574538
  53.0171062  47.4561627  11.5087187  51.5177795  47.4666351  11.7179770
  66.5937270  54.4048315  11.6749872  66.7873160  55.3094126  11.9209146
  66.4937888  53.9455734  12.5088457  58.2473580  44.2906206  14.1740199
  57.6001495  44.9896155  14.0804675  59.0174596  44.7242350  14.5416447
  61.6552378  54.5555058  17.2490752  61.5037885  54.3265610  16.3320836
  61.6457058  55.5125659  17.2622097  58.4237715  52.1286971  12.2337019
  59.3529775  52.2798130  12.0605986  58.0028745  52.2170991  11.3785665
  57.2226046  56.1537635  10.0035556  57.0837132  55.7856419  10.8761494
  56.4340643  56.6685274   9.8319514  57.8174198  61.2546731   1.3461093
  57.9925954  60.7834775   2.1606715  57.1306986  61.8812498   1.5742353
  58.7731262  55.5319238   7.3924394  58.4381094  55.4920008   8.2882044
  58.2735207  54.8663954   6.9194804  52.7475506  50.9386868  12.9176975
  52.6095303  50.2067107  13.5188514  53.6580429  50.8495768  12.6361163
  55.3757806  50.6506827  12.4060655  56.0857425  50.0100019  12.3647273
  55.3327114  50.9019722  13.3286836  63.3644585  57.5874180  15.3267234
  63.3057131  56.9033401  14.6597817  63.7664103  58.3293170  14.8747860
  54.0886740  47.6372045  14.2256294  53.5524097  47.1862783  14.8777891
  53.5003449  47.7717954  13.4826759  52.3835284  64.4036094   8.1200953
  52.6231882  65.0354618   8.7979971  51.5404480  64.0524134   8.4066312
  63.3661992  55.5513764  13.5581214  62.4788771  55.2139686  13.6807613
  63.9360543  54.8196796  13.7949979  49.8225861  46.7728053  11.3109289
  49.7384050  46.1653722  10.5759699  49.0008568  47.2637071  11.3118785
  56.8963146  60.2115217  10.5242457  56.8233317  61.0170188  11.0361761
  56.4540539  60.4107182   9.6990478  56.6852925  59.4486987   4.0345278
  55.9020447  59.9908667   4.1283503  57.3845670  59.9660966   4.4339520
  67.8479333  50.9621982   8.3197775  67.8369209  51.8446697   7.9491708
  66.9796712  50.6093533   8.1252312  59.3561829  60.1102051  12.6800616
  60.0689801  60.7449516  12.6076517  58.8651858  60.2065917  11.8640617
  61.0779356  54.0153303   4.2517907  60.1435635  54.1354766   4.0822612
  61.2556024  53.1125770   3.9877917  64.4651907  49.8570623   4.7867941
  64.9312360  50.6898614   4.7128244  64.9159408  49.3915604   5.4913200
  54.4073743  57.8596494  13.5006186  55.1083202  58.4932977  13.6535581
  53.9368858  58.2011226  12.7401826  62.5328138  56.2014444   1.7854093
  62.8087982  56.0871039   2.6947967  61.6632637  55.8031929   1.7466266
  62.4368570  42.2251210   8.8258843  61.5231650  42.4555436   8.9941050
  62.8661672  42.3089654   9.6772875  62.2075029  50.4141102  11.3258737
  61.5546479  50.6617009  10.6711189  62.5855408  49.6005240  10.9921214
  59.1682202  60.4500795   5.4286907  59.3504597  59.6322451   5.8914659
  59.9915188  60.6668487   4.9911797  59.5024368  59.3768980   2.6901955
  60.0312134  58.8661435   2.0772118  59.7652588  59.0611510   3.5547488
  58.2562602  51.1560913  17.8124774  57.5803239  51.0555042  18.4827149
  59.0790235  51.0000126  18.2760771  50.0041461  57.3932849  10.4337289
  50.5894897  56.6476537  10.5665193  49.8066299  57.7036806  11.3173953
  52.8580116  60.4284097   5.4499731  52.1890491  60.9130224   4.9663771
  52.7192986  60.6753317   6.3643110  56.9985384  62.4627840  12.0482390
  57.5503693  62.6259462  12.8131475  57.3391578  63.0532278  11.3762415
  51.9749878  44.8102990  12.6504274  52.0391204  45.6717821  12.2381672
  51.9116998  44.1976992  11.9176633  51.4502150  46.8826122  16.2977309
  52.0774189  46.5003200  16.9114833  50.5930069  46.6640324  16.6633001
  61.8496259  57.2889098  17.9031044  62.3936163  57.9019056  17.4085999
  61.2683104  57.8468676  18.4198057  60.1353772  60.4109816   9.0346072
  60.0104911  59.6099555   8.5257017  60.7932863  60.9056009   8.5460042
  62.1988680  58.2118836  10.6625622  61.2519016  58.0924187  10.5903949
  62.5471453  57.3241334  10.7451883  54.5588254  44.1012975  14.4863864
  55.0822655  44.3475271  15.2490173  54.3400587  44.9333009  14.0667001
  59.2035113  58.0071552   6.8629974  59.0560076  57.0788259   7.0437544
  60.0288607  58.0291643   6.3787049  62.8069235  58.8300111   7.9494847
  63.7315783  58.6242972   7.8119298  62.6384539  58.5816512   8.8584188
  55.7640799  45.0426670  12.1713534  55.4237619  44.2434483  12.5734214
  55.0579805  45.3428381  11.5990368  56.4157270  42.1275982  10.6240857
  57.2383340  41.6536460  10.5019748  56.6595334  42.9066466  11.1239544
  53.9395849  48.8195103   8.4332836  53.7940430  49.1335406   9.3257118
  53.4621053  49.4380003   7.8803735  57.6518363  46.2434991  10.5266853
  57.3936141  47.1652062  10.5251183  57.1203403  45.8465426  11.2167317
  62.5964552  59.3485778   3.3056938  62.7701429  58.7832201   2.5530791
  63.0893443  60.1486673   3.1236428  48.4141511  51.3600447  11.3720497
  47.8694979  52.1360255  11.5040772  49.2920861  51.7071252  11.2139619
  68.4503943  52.1122201   4.9247238  68.8935089  51.3629526   4.5266361
  67.5730453  52.1032337   4.5420970  63.5839724  58.6652543   0.4053837
  64.2790629  59.2859235   0.6241151  63.9262874  57.8147894   0.6806215
  49.2007533  50.4870343  14.2650654  48.4589269  50.6352979  14.8515285
  48.8800277  50.7478609  13.4017404  65.4831147  56.1152248   1.9341167
  66.0082471  56.4539521   1.2090488  65.3953500  55.1799263   1.7504302
  57.1451196  60.0286322  14.0631044  57.4538322  59.7835468  14.9353744
  57.9426678  60.2332960  13.5749914  57.1671808  62.1824231   6.2936421
  56.7276798  61.6900610   6.9869277  57.9179925  61.6397199   6.0528496
  49.6464147  58.3735772   6.2961049  50.4722167  58.0739544   5.9159692
  49.2958199  57.6043395   6.7450837  54.6145680  57.7262240   8.3658722
  53.9925689  57.0632945   8.0660950  55.2850547  57.7523372   7.6832370
  47.8472752  56.2922099   7.2549982  47.0104660  55.8644273   7.0733984
  47.8196397  56.4854542   8.1920774  54.6870207  46.2044028  17.9591228
  54.7358363  47.0806151  17.5768998  55.2292722  45.6621421  17.3862872
  65.1725053  56.7485152  17.2392365  64.3820597  56.7309291  16.6996865
  64.9358408  57.2873445  17.9941402  65.2922928  53.5977618  14.5525094
  65.3420933  53.4327626  15.4940617  65.1836852  52.7304877  14.1622975
  62.5826691  49.5808546  15.8684401  63.4836553  49.4415011  15.5768399
  62.6574665  49.7463001  16.8082578  56.9169496  46.9575401  14.7137587
  56.0472805  47.2508967  14.4420176  57.1528976  47.5415846  15.4344851
  66.7941125  56.0174560  14.7967116  66.5025933  56.3804540  15.6330577
  66.1813256  55.3041568  14.6180448  67.9936807  53.5827439   7.3169686
  68.8283699  54.0217243   7.4807246  68.1295936  53.1066093   6.4977932
  65.0428313  51.1407174  13.2647174  65.5182435  51.3334821  12.4566025
  64.1193879  51.1966360  13.0190557  59.6208530  43.1755018  12.2303007
  60.1390474  43.9116045  11.9049496  59.2663663  43.4819011  13.0649767
  63.7429982  48.0172934  11.4975479  64.6947405  48.1171032  11.5187703
  63.5733433  47.2251203  12.0073563  61.7644362  45.1028518  11.6834880
  61.1694294  45.3833530  10.9881369  61.4794058  45.5922418  12.4551621
  60.8951852  59.0551444   0.4437513  61.8282525  58.9897006   0.6470388
  60.8075065  59.8907711  -0.0147955  66.2218060  51.2379054  10.6117779
  66.1894380  50.2995055  10.7977463  66.8318684  51.3163091   9.8783604
  66.3712549  48.0290097  10.6576062  65.8551597  47.2448554  10.4705991
  67.2552497  47.7008814  10.8222581  72.0394610  52.2995061   9.7523816
  72.7697998  52.0380349  10.3131519  71.4301555  51.5623783   9.7925884
  70.1209907  50.4402923  10.3498267  69.3943071  50.3058888   9.7414758
  69.7057194  50.7479752  11.1554985  57.9440083  54.1592853  18.1145640
  58.8643093  54.3371452  18.3085686  57.9089667  53.2148898  17.9625339
  50.9402156  52.0693888  10.7568421  51.1588166  53.0010996  10.7756455
  51.3527930  51.7101862  11.5423225  55.8130021  47.6427094  20.1471170
  55.7126748  48.5921450  20.0783261  55.5951563  47.3145332  19.2747240
  47.0310508  52.9734358   9.0092036  46.3373980  52.5588311   8.4961990
  47.7783499  53.0154895   8.4125455  55.6761291  51.0724232  18.9636232
  55.1928373  51.8724592  19.1700121  55.7622230  51.0832177  18.0103676
  51.6034629  54.9628767  11.0004665  52.5577882  54.9312709  10.9334597
  51.4047152  54.5019391  11.8154891  52.1934011  53.5329883  13.5675463
  53.0126900  54.0273962  13.5910300  52.4670819  52.6161851  13.5393030
  65.3015143  45.9487156   6.6457758  66.0775533  46.4383609   6.9182375
  64.5763278  46.3745211   7.1029627  67.7387702  46.6614776   7.7031698
  68.3332193  46.4210512   6.9925007  67.8114286  45.9421906   8.3305235
  49.9584858  60.5048387   8.0174863  49.8239326  59.7448787   7.4512861
  49.5416920  61.2289286   7.5503652  61.9241631  51.4395171   3.1453709
  61.8676832  51.8963723   2.3061341  62.4769973  50.6785856   2.9676551
  65.7346437  47.2284903   3.9703828  65.4783371  46.8281539   4.8012036
  65.1099305  47.9428697   3.8453967  70.0458775  49.9680976   6.4775120
  69.4858333  50.0374166   7.2506682  69.4402278  49.7921961   5.7574616
  53.1153984  61.4017704   8.2293306  52.9986368  62.3463136   8.1271996
  52.2946430  61.0991265   8.6179105  63.0030518  56.1267839  -0.9250101
  63.8376122  55.6949038  -1.1072627  62.8414861  55.9549853   0.0026793
  47.4468925  47.8668017  14.2667660  48.0927789  47.3566971  14.7554885
  47.2386076  48.6036699  14.8411085  59.9722317  54.9348864  19.7659801
  60.8413477  55.1089517  19.4046436  59.4929069  55.7543281  19.6435530
  54.1408498  62.0545965  11.4449234  55.0435744  62.0869576  11.7615729
  53.9145868  61.1246416  11.4595570  55.8962100  60.8076952   8.1059313
  54.9457731  60.8078814   7.9923685  56.1994586  60.0609687   7.5895348
  51.7866416  45.0135634  18.3642674  52.6497878  44.6572439  18.5745999
  51.2131827  44.6749529  19.0518079  71.6314793  66.6437490   9.1705075
  72.2693203  66.5244238   8.4668415  71.5135636  67.5918334   9.2293027
  68.4404499  66.5964919   9.1066600  68.1023011  66.4805983   8.2187135
  69.3094268  66.1956084   9.0867606  64.2991315  68.4500395   5.0963491
  63.7356180  68.3590332   4.3279779  64.1843710  67.6300299   5.5765983
  68.9224282  67.7499770  15.0652806  68.9112923  67.3552569  14.1933309
  69.0844922  67.0165843  15.6586577  61.8455747  69.9451587   7.9347711
  62.6377039  69.6042411   7.5194011  62.0852397  70.0546562   8.8549865
  69.8790874  72.1171363   0.4077956  69.2278854  72.7025443   0.0211970
  70.6735237  72.6477558   0.4672993  63.8046501  69.2060500   0.8065090
  64.5777377  68.6589487   0.6677966  64.1571900  70.0704749   1.0179552
  65.6431544  70.5336882  14.0131989  65.3521410  71.4382513  13.8978656
  66.2788528  70.5753410  14.7276059  66.5687750  67.9113731  10.6033349
  67.1651323  67.6869753   9.8890312  66.6262722  67.1698476  11.2058797
  66.1412779  65.3653166  -1.5616460  66.3938300  64.8434687  -2.3232997
  65.2037338  65.2019311  -1.4589776  71.1856062  64.3688944   6.2458283
  71.9719151  63.9508367   5.8948700  71.4494766  65.2735036   6.4139932
  71.3566139  69.8061795   0.9446940  70.7211972  69.8796421   1.6567845
  71.0263545  70.3955393   0.2666019  76.5864489  64.3064177   7.1491262
  77.3189661  63.7363394   7.3829091  75.8303844  63.9185778   7.5897767
  65.8609068  67.2681272   0.6407915  65.7445326  66.5926175   1.3088999
  65.9711327  66.7813646  -0.1759932  68.2040609  66.7291419   4.3454604
  67.8398816  66.2022040   5.0567526  69.0607724  66.3389888   4.1721090
  74.1089909  58.0185752  11.6085870  73.7773234  58.8881163  11.3847085
  73.5135523  57.7022036  12.2879901  67.8446095  61.7581319  -0.6584047
  68.0120498  62.6261555  -0.2913576  67.6543265  61.9208600  -1.5822758
  70.6021429  70.2198298  11.0081783  70.3022152  71.1223336  10.8997590
  70.2572488  69.9530481  11.8602936  64.0533910  66.6712094   7.0418488
  63.1284407  66.5388308   7.2496179  64.3018323  67.4506314   7.5388430
  74.0018572  62.7380838   8.6879220  73.0935450  62.6696246   8.3937981
  73.9506168  63.2152783   9.5161046  67.8235316  64.2138976   0.3262620
  67.7034942  64.6596027   1.1648100  67.1287905  64.5624294  -0.2323842
  61.4142721  66.3145368   7.8762277  61.5435102  66.5679847   8.7901688
  60.7340172  66.9073076   7.5566932  65.5842208  76.9842618   3.9752751
  65.5066238  77.9350443   4.0541231  64.9803852  76.6388490   4.6327677
  68.0759438  64.1570483  16.6314118  67.2992772  64.7164403  16.6216982
  68.7150001  64.6427266  17.1528988  75.8680219  60.9397276  10.4657094
  75.2254599  61.2329809   9.8196889  75.3635147  60.8250196  11.2710291
  73.5220383  64.6860449   1.1542954  74.4338239  64.9187836   0.9790651
  73.0130030  65.2697494   0.5918032  66.3305811  66.9655937  16.1932085
  67.0720495  67.5040981  15.9166908  65.6242796  67.5922225  16.3503637
  71.8061150  69.1085077  14.7904246  72.2144506  68.6667488  14.0458879
  71.0838412  68.5337705  15.0438439  68.1592220  64.0457684  12.1637803
  69.0053415  64.4697097  12.3072452  68.0990858  63.3891308  12.8576366
  72.1289965  69.6686268   8.5456535  71.4998827  69.8331982   7.8432603
  71.7415627  70.0827877   9.3167499  76.0079197  70.6040706   5.9000899
  75.3230235  70.9839607   5.3497932  76.0923046  71.2136032   6.6332847
  71.3091666  61.7062052  13.8218977  71.0652597  62.4604113  13.2853253
  71.5851596  62.0847400  14.6566224  73.2630128  68.2500665  12.4996242
  73.4747024  68.8932425  11.8230624  73.2159877  67.4162981  12.0318173
  70.8656357  60.8618485   9.4032815  70.0040836  61.1599739   9.6949552
  70.8918792  61.0788884   8.4713847  67.6817927  69.4060676   5.8106620
  68.1456272  69.6848379   5.0211243  67.4174725  68.5044120   5.6279711
  64.5742008  68.9532157   8.7486383  65.1443365  69.3819426   8.1103868
  65.1650120  68.6714742   9.4470569  66.6186813  65.5283828   2.6196185
  67.3210856  65.9804872   3.0870112  66.2867441  64.8867647   3.2476078
  65.0667174  64.1195585  16.9947395  64.4365835  64.8011866  17.2282792
  64.9603262  64.0078666  16.0500533  60.3612147  63.7867381   7.9213319
  59.5711201  64.0424909   7.4453430  60.8523394  64.6015719   8.0265359
  74.3775956  71.1272620  10.6718600  75.1993400  70.7252807  10.3901281
  74.3738359  71.0240854  11.6234716  62.3126892  64.1511960   4.8796796
  61.5158055  64.2630654   5.3980291  62.0852484  64.4898612   4.0137686
  68.1432560  70.6756663  12.8279310  68.2076992  71.1377071  13.6637482
  67.4343484  70.0454028  12.9561620  58.6449850  64.0397871  10.3528310
  58.8957888  64.9244881  10.6185886  59.1809398  63.8602473   9.5803402
  82.4681949  67.4711369   7.0203571  81.7145658  66.9018767   6.8647576
  82.6029491  67.4374033   7.9674206  67.8580577  72.3424771   2.6958291
  67.7226252  73.1876307   3.1243138  68.3990390  72.5444048   1.9324224
  64.3447917  58.4216351  19.3572646  63.9514863  57.8682549  20.0320290
  65.1614057  58.7326929  19.7479163  61.3109975  69.8600209   3.2686216
  61.8234495  70.6543459   3.4191780  61.9632688  69.1626499   3.2019817
  63.1204859  72.9765965   5.3508969  63.2971488  73.8983930   5.1629953
  63.9161693  72.6624384   5.7803349  67.2615878  59.8374230  16.9492902
  68.0025591  60.4381383  16.8697365  67.4933801  59.0951868  16.3910945
  62.4057216  65.0230597  15.2271132  62.2910731  64.1215854  15.5278231
  61.5501734  65.2694294  14.8755949  69.4849054  72.9648337  16.8258633
  69.0412908  72.1784716  16.5079537  70.1466267  73.1527488  16.1602523
  64.2436175  74.4944139  11.3519311  64.7943600  74.3661202  10.5796305
  63.4047651  74.7939028  11.0014204  71.5830292  73.2451137  14.8540034
  71.5648767  74.0660018  14.3620303  72.5050212  73.1205213  15.0790175
  68.0403346  70.7595267  15.6963542  68.5731683  69.9983555  15.4662850
  67.5117427  70.4668919  16.4387697  71.2073041  55.8655333  11.2257184
  70.8637310  56.7556974  11.1496295  71.5752004  55.6756990  10.3626769
  59.2758892  68.1888863   4.0445786  60.1134114  68.5985872   3.8279494
  59.4537159  67.2488305   4.0145980  71.1723324  65.8563944  -0.2670381
  70.6569947  66.6268548  -0.0281993  70.9000632  65.1829080   0.3562681
  68.7570435  60.7013645   4.7914858  67.9012031  60.3120495   4.6120496
  69.1697386  60.7805605   3.9314643  70.2869581  58.2359988   9.1906417
  69.7834377  58.1990123   8.3774223  70.5800188  59.1452731   9.2503074
  66.5312467  58.3198718   8.1972599  67.3965464  58.1241526   7.8378489
  66.5989976  58.0909069   9.1241956  76.1457598  68.6096298   1.6682793
  75.3687041  68.2707458   1.2237955  76.8249079  68.6148922   0.9937758
  70.9609627  63.7291036   1.5589400  70.6559762  64.0437185   2.4099544
  71.9140069  63.8072456   1.6016733  69.4056059  69.8881259   3.2082354
  68.8777420  69.1534019   2.8955592  68.9043561  70.6655936   2.9622323
  74.3848905  68.0830280   8.3249401  73.7272579  68.7729541   8.4129529
  75.1889304  68.4726712   8.6683387  64.1374786  60.5500926   5.5688966
  64.7118538  60.3276107   4.8362159  64.7245769  60.6189620   6.3217567
  73.1954364  66.4374652   6.3753342  73.7086245  67.0704644   6.8775052
  73.8455587  65.8375848   6.0096702  64.4644373  62.5805387  -0.4115149
  63.6281686  62.9180073  -0.0905874  64.3249143  62.4454366  -1.3488012
  66.4397454  57.4242174   4.2964035  65.7861866  57.1091192   3.6720650
  66.3977928  56.8017915   5.0223858  67.5508659  67.7061470  -3.7882673
  66.6435721  67.4750723  -3.5891524  68.0479691  66.9099089  -3.6008691
  70.4576738  76.4158977  -0.8685986  69.7838437  76.7190673  -0.2601029
  70.8442560  77.2188057  -1.2180529  69.6735194  63.9124108   8.6211683
  68.7557756  64.1339055   8.4633371  70.0895338  63.9870418   7.7623390
  70.4570242  65.3115524   3.7514363  71.2042061  65.8236921   3.4421485
  70.7261832  64.9899576   4.6118757  68.7296892  67.8074064   0.7341317
  67.8208112  67.5233097   0.8313787  68.7591976  68.2273143  -0.1255376
  73.9616160  71.4180654   4.5032485  73.5078487  70.5771564   4.5597675
  73.3310126  72.0542052   4.8407265  72.9049079  62.3472640   5.7333152
  72.1671836  61.8350026   6.0643395  73.1575853  61.9073022   4.9216429
  72.4049099  73.2557151   5.4382303  72.6972073  73.8162208   4.7194669
  72.9147720  73.5485712   6.1935462  73.0060707  55.1248892   6.3274922
  73.3119583  54.2646255   6.0400837  73.7313311  55.7166512   6.1273916
  59.2985063  65.5279579   4.7156520  59.1009463  64.9348939   3.9907586
  58.7431727  65.2231789   5.4332458  67.2781786  65.4202685   6.8351113
  67.3330396  64.4676521   6.7593589  66.4672988  65.5762124   7.3192411
  68.4272980  69.3482808  -1.9270604  67.9892410  68.6318667  -2.3864967
  69.1683421  69.5758923  -2.4885513  65.2174146  64.0379745   4.5941492
  64.4042012  64.3373915   5.0006684  65.7133140  63.6435434   5.3115974
  67.3682724  74.0337502   6.5275756  67.3258903  74.2598348   5.5984288
  68.2845423  73.8000876   6.6761558  70.8148358  64.5021569  13.4256386
  71.1697746  64.7293042  14.2850851  71.4620489  64.8339946  12.8033641
  76.5446095  67.6240005   4.1305715  76.4063993  67.8141601   3.2026904
  76.1882314  68.3859388   4.5873766  64.7088221  61.6098100  10.2102727
  65.3487600  61.4686859   9.5125690  63.8765752  61.3232614   9.8341329
  76.5715475  69.6916532   9.1416986  77.0051981  69.5991821   9.9900040
  77.2847055  69.6674033   8.5037002  65.4848525  70.9100531   6.3237719
  66.2789123  70.4150851   6.1220294  64.7740217  70.3818394   5.9605425
  70.3043369  73.2918626  10.6750087  70.3580392  73.8609563  11.4427803
  69.4358151  73.4620511  10.3104124  61.7931288  65.0543612   2.3997472
  60.8628877  64.9928068   2.6167434  61.8888760  64.5319565   1.6034113
  61.7116837  61.5798425   4.9875713  61.9723655  62.4943758   4.8784874
  62.5334010  61.1122868   5.1372326  63.1841763  62.9936182  12.1574538
  63.8564816  62.7853545  11.5087187  62.3571549  62.7958268  11.7179770
  77.4331024  69.7340233  11.6749872  77.6266914  70.6386043  11.9209146
  77.3331642  69.2747652  12.5088457  69.0867335  59.6198123  14.1740199
  68.4395250  60.3188073  14.0804675  69.8568350  60.0534267  14.5416447
  72.4946133  69.8846976  17.2490752  72.3431639  69.6557527  16.3320836
  72.4850812  70.8417577  17.2622097  69.2631469  67.4578888  12.2337019
  70.1923529  67.6090048  12.0605986  68.8422499  67.5462909  11.3785665
  68.0619801  71.4829553  10.0035556  67.9230887  71.1148337  10.8761494
  67.2734397  71.9977192   9.8319514  68.6567953  76.5838649   1.3461093
  68.8319709  76.1126692   2.1606715  67.9700741  77.2104415   1.5742353
  69.6125016  70.8611155   7.3924394  69.2774849  70.8211925   8.2882044
  69.1128962  70.1955871   6.9194804  63.5869260  66.2678785  12.9176975
  63.4489058  65.5359024  13.5188514  64.4974184  66.1787685  12.6361163
  72.5484208  68.2067190  -2.3338546  71.9313378  67.4814018  -2.4305494
  72.0800696  68.9676550  -2.6771472  66.2151561  65.9798745  12.4060655
  66.9251179  65.3391937  12.3647273  66.1720869  66.2311640  13.3286836
  74.2038339  72.9166098  15.3267234  74.1450886  72.2325318  14.6597817
  74.6057858  73.6585088  14.8747860  64.9280495  62.9663963  14.2256294
  64.3917852  62.5154701  14.8777891  64.3397203  63.1009871  13.4826759
  63.2229038  79.7328012   8.1200953  63.4625636  80.3646536   8.7979971
  62.3798235  79.3816052   8.4066312  64.3382754  62.4252614  -3.2117242
  63.4612220  62.3041415  -3.5754995  64.8140507  61.6338692  -3.4638353
  74.2055747  70.8805682  13.5581214  73.3182525  70.5431604  13.6807613
  74.7754298  70.1488713  13.7949979  55.8584894  67.2129774   6.8824265
  56.5455934  66.8991504   6.2945280  55.7033022  68.1171138   6.6091516
  60.6619616  62.1019970  11.3109289  60.5777805  61.4945640  10.5759699
  59.8402322  62.5928989  11.3118785  67.7356900  75.5407134  10.5242457
  67.6627072  76.3462106  11.0361761  67.2934293  75.7399100   9.6990478
  67.5246680  74.7778904   4.0345278  66.7414202  75.3200585   4.1283503
  68.2239425  75.2952884   4.4339520  70.8343330  60.5873534   6.6779484
  71.3312029  59.8343496   6.3580554  70.0630311  60.6237850   6.1122693
  78.6873087  66.2913899   8.3197775  78.6762963  67.1738615   7.9491708
  77.8190467  65.9385450   8.1252312  70.1955584  75.4393968  12.6800616
  70.9083556  76.0741433  12.6076517  69.7045612  75.5357834  11.8640617
  71.9173110  69.3445221   4.2517907  70.9829389  69.4646684   4.0822612
  72.0949779  68.4417688   3.9877917  67.4178299  62.7290917   6.4051168
  67.0476086  62.1761957   7.0932074  67.9137391  62.1249050   5.8526168
  75.3045662  65.1862540   4.7867941  75.7706114  66.0190532   4.7128244
  75.7553162  64.7207522   5.4913200  65.2467497  73.1888412  13.5006186
  65.9476957  73.8224895  13.6535581  64.7762612  73.5303143  12.7401826
  73.3721893  71.5306362   1.7854093  73.6481737  71.4162956   2.6947967
  72.5026392  71.1323846   1.7466266  73.2762325  57.5543127   8.8258843
  72.3625404  57.7847354   8.9941050  73.7055426  57.6381571   9.6772875
  73.0468783  65.7433019  11.3258737  72.3940233  65.9908927  10.6711189
  73.4249163  64.9297157  10.9921214  70.0075957  75.7792712   5.4286907
  70.1898351  74.9614368   5.8914659  70.8308943  75.9960405   4.9911797
  70.3418122  74.7060898   2.6901955  70.8705889  74.1953352   2.0772118
  70.6046342  74.3903428   3.5547488  69.0956356  66.4852830  17.8124774
  68.4196993  66.3846960  18.4827149  69.9183990  66.3292044  18.2760771
  60.8435215  72.7224767  10.4337289  61.4288652  71.9768455  10.5665193
  60.6460054  73.0328724  11.3173953  63.6973870  75.7576014   5.4499731
  63.0284246  76.2422142   4.9663771  63.5586740  76.0045235   6.3643110
  55.4352870  65.2930367   9.1541732  55.4736969  64.7593958   9.9478850
  54.9293163  64.7665573   8.5352709  67.8379139  77.7919758  12.0482390
  68.3897447  77.9551379  12.8131475  68.1785332  78.3824196  11.3762415
  62.8143632  60.1394908  12.6504274  62.8784959  61.0009738  12.2381672
  62.7510752  59.5268909  11.9176633  62.2895905  62.2118040  16.2977309
  62.9167944  61.8295117  16.9114833  61.4323824  61.9932242  16.6633001
  72.6890013  72.6181015  17.9031044  73.2329917  73.2310974  17.4085999
  72.1076858  73.1760594  18.4198057  59.0661447  64.0194469   2.2295664
  59.3614889  63.1105148   2.1762717  58.1649483  63.9982209   1.9076666
  70.9747526  75.7401733   9.0346072  70.8498666  74.9391473   8.5257017
  71.6326617  76.2347927   8.5460042  62.5955694  62.0950466   8.2123212
  61.8742280  62.7086434   8.0730685  63.3848950  62.6308231   8.1339858
  73.0382435  73.5410753  10.6625622  72.0912770  73.4216105  10.5903949
  73.3865208  72.6533251  10.7451883  65.3982008  59.4304892  14.4863864
  65.9216410  59.6767189  15.2490173  65.1794341  60.2624927  14.0667001
  60.7949289  61.7008567   2.3534989  60.4661995  60.8205946   2.1710095
  61.1488660  61.6456236   3.2411378  70.0428868  73.3363470   6.8629974
  69.8953830  72.4080177   7.0437544  70.8682361  73.3583560   6.3787049
  63.9091112  61.9881537   2.7210466  64.2487185  62.5167458   1.9989075
  64.3563233  62.3261943   3.4969033  73.6462990  74.1592028   7.9494847
  74.5709537  73.9534890   7.8119298  73.4778293  73.9108430   8.8584188
  66.6034553  60.3718587  12.1713534  66.2631373  59.5726400  12.5734214
  65.8973559  60.6720298  11.5990368  67.2551025  57.4567900  10.6240857
  68.0777094  56.9828378  10.5019748  67.4989088  58.2358384  11.1239544
  65.8959259  60.4856158   0.9203759  66.6167622  60.8637411   0.4167476
  65.2724563  61.2045035   1.0238737  70.0390382  61.1901307   1.8562091
  70.2553997  62.0725945   1.5550920  69.5584449  60.7987521   1.1267733
  64.7789604  64.1487020   8.4332836  64.6334184  64.4627324   9.3257118
  64.3014807  64.7671921   7.8803735  66.6385987  61.1389568   8.4813726
  66.6247555  60.2430662   8.1446024  67.3558415  61.1460232   9.1152012
  68.4912117  61.5726909  10.5266853  68.2329895  62.4943979  10.5251183
  67.9597158  61.1757343  11.2167317  73.4358306  74.6777696   3.3056938
  73.6095184  74.1124118   2.5530791  73.9287197  75.4778591   3.1236428
  59.2535266  66.6892365  11.3720497  58.7088734  67.4652173  11.5040772
  60.1314616  67.0363169  11.2139619  66.0422882  60.0203949   3.7501296
  66.1638794  59.0920595   3.9492183  65.7524925  60.0342635   2.8379611
  68.9114073  57.7058859   6.8868016  68.9335770  57.7698192   5.9319995
  69.3282132  56.8663368   7.0808522  79.2897697  67.4414119   4.9247238
  79.7328843  66.6921444   4.5266361  78.4124207  67.4324255   4.5420970
  74.4233478  73.9944460   0.4053837  75.1184383  74.6151153   0.6241151
  74.7656629  73.1439811   0.6806215  60.0401288  65.8162261  14.2650654
  59.2983024  65.9644897  14.8515285  59.7194032  66.0770527  13.4017404
  76.3224902  71.4444166   1.9341167  76.8476226  71.7831438   1.2090488
  76.2347254  70.5091181   1.7504302  67.9844950  75.3578239  14.0631044
  68.2932077  75.1127386  14.9353744  68.7820432  75.5624878  13.5749914
  68.0065562  77.5116149   6.2936421  67.5670553  77.0192528   6.9869277
  68.7573679  76.9689117   6.0528496  60.4857901  73.7027690   6.2961049
  61.3115921  73.4031462   5.9159692  60.1351953  72.9335312   6.7450837
  65.4539434  73.0554158   8.3658722  64.8319444  72.3924863   8.0660950
  66.1244301  73.0815290   7.6832370  58.6866506  71.6214016   7.2549982
  57.8498415  71.1936191   7.0733984  58.6590152  71.8146460   8.1920774
  65.5263962  61.5335946  17.9591228  65.5752117  62.4098069  17.5768998
  66.0686476  60.9913339  17.3862872  76.0118808  72.0777069  17.2392365
  75.2214351  72.0601208  16.6996865  75.7752162  72.6165363  17.9941402
  76.1316683  68.9269536  14.5525094  76.1814688  68.7619543  15.4940617
  76.0230606  68.0596795  14.1622975  65.0152941  71.6058081   1.8417183
  65.1641062  72.2893546   1.1883856  65.8219385  71.5863172   2.3566639
  73.4220445  64.9100464  15.8684401  74.3230308  64.7706929  15.5768399
  73.4968420  65.0754919  16.8082578  67.7563250  62.2867319  14.7137587
  66.8866560  62.5800885  14.4420176  67.9922731  62.8707764  15.4344851
  77.6334880  71.3466477  14.7967116  77.3419688  71.7096458  15.6330577
  77.0207011  70.6333486  14.6180448  78.8330562  68.9119357   7.3169686
  79.6677453  69.3509161   7.4807246  78.9689691  68.4358010   6.4977932
  75.8822068  66.4699092  13.2647174  76.3576189  66.6626738  12.4566025
  74.9587633  66.5258278  13.0190557  62.7705574  67.6323259   2.8478252
  62.5251616  66.7285589   3.0458462  62.9401489  67.6340410   1.9057730
  70.4602284  58.5046935  12.2303007  70.9784228  59.2407962  11.9049496
  70.1057417  58.8110929  13.0649767  62.0401222  63.3651617   0.3464413
  61.3470467  63.4395972  -0.3095551  61.7952974  62.6011960   0.8685930
  70.7114878  54.9247218   7.7503904  70.9916632  54.2570407   8.3764331
  71.4965485  55.1176314   7.2378568  68.5148347  74.1006212  -0.6871070
  67.9422314  74.7196399  -1.1400598  69.0881141  74.6505574  -0.1531148
  74.5823737  63.3464852  11.4975479  75.5341160  63.4462950  11.5187703
  74.4127187  62.5543121  12.0073563  72.6038116  60.4320435  11.6834880
  72.0088048  60.7125448  10.9881369  72.3187813  60.9214336  12.4551621
  71.7345607  74.3843362   0.4437513  72.6676280  74.3188924   0.6470388
  71.6468820  75.2199629  -0.0147955  74.3633623  73.7009232  -2.5958540
  74.2847255  73.3669096  -1.7022782  75.1843290  74.1931000  -2.5967067
  77.0611815  66.5670972  10.6117779  77.0288135  65.6286972  10.7977463
  77.6712438  66.6455008   9.8783604  68.8995145  65.4367025  -3.3455017
  69.8454250  65.3073233  -3.2766599  68.5209390  64.6981687  -2.8685589
  77.2106303  63.3582015  10.6576062  76.6945352  62.5740472  10.4705991
  78.0946252  63.0300732  10.8222581  74.8717030  57.1023031   6.6171875
  74.6741851  56.7938119   7.5015207  75.4816736  57.8284670   6.7469804
  82.8788364  67.6286979   9.7523816  83.6091753  67.3672267  10.3131519
  82.2695310  66.8915700   9.7925884  80.9603662  65.7694841  10.3498267
  80.2336825  65.6350806   9.7414758  80.5450948  66.0771670  11.1554985
  68.7833838  69.4884771  18.1145640  69.7036847  69.6663370  18.3085686
  68.7483421  68.5440816  17.9625339  67.0838063  63.3617001  -3.4100132
  66.1769518  63.0650114  -3.3337418  67.3614044  63.0646819  -4.2765846
  58.0016003  64.6823364   7.0398914  57.6818787  63.8288673   6.7473288
  57.4549431  64.8971943   7.7956882  61.7795911  67.3985805  10.7568421
  61.9981920  68.3302913  10.7756455  62.1921684  67.0393780  11.5423225
  68.7000128  57.9053891   2.7444109  67.8900857  57.5600976   3.1199355
  69.3884545  57.5961434   3.3331721  70.6290677  56.9831938   4.3668406
  71.1821715  57.4027391   5.0258429  70.8660763  56.0567686   4.4091362
  66.6523776  62.9719011  20.1471170  66.5520503  63.9213368  20.0783261
  66.4345318  62.6437250  19.2747240  65.8536847  60.2203936  -3.2688153
  66.7156011  60.5458835  -3.0092335  66.0387191  59.4335432  -3.7815087
  57.8704263  68.3026276   9.0092036  57.1767734  67.8880229   8.4961990
  58.6177254  68.3446812   8.4125455  74.0069484  59.0932463   3.8747070
  73.4268153  59.7517267   3.4925123  73.7405416  58.2709807   3.4634488
  72.4573050  58.4937520   6.0768391  72.9572828  58.6054055   5.2682709
  73.1008658  58.1898573   6.7169199  66.5155046  66.4016150  18.9636232
  66.0322128  67.2016510  19.1700121  66.6015985  66.4124095  18.0103676
  59.7841005  68.2344530   6.8858051  59.7611694  68.3332217   5.9339934
  60.0941642  69.0809681   7.2075217  62.4428383  70.2920685  11.0004665
  63.3971637  70.2604627  10.9334597  62.2440907  69.8311308  11.8154891
  63.0327765  68.8621801  13.5675463  63.8520654  69.3565879  13.5910300
  63.3064573  67.9453769  13.5393030  72.7894362  61.2532553   2.9303419
  71.9020217  61.5382204   2.7123613  73.2048351  61.0926316   2.0830695
  76.1408898  61.2779074   6.6457758  76.9169288  61.7675527   6.9182375
  75.4157032  61.7037128   7.1029627  78.5781456  61.9906693   7.7031698
  79.1725947  61.7502429   6.9925007  78.6508040  61.2713824   8.3305235
  60.7978612  75.8340304   8.0174863  60.6633080  75.0740705   7.4512861
  60.3810674  76.5581204   7.5503652  71.9337575  71.0177228  -2.9748562
  72.6373425  71.2227230  -2.3590906  71.2100224  71.5853990  -2.7099478
  72.7635385  66.7687089   3.1453709  72.7070587  67.2255640   2.3061341
  73.3163728  66.0077774   2.9676551  76.5740191  62.5576821   3.9703828
  76.3177126  62.1573457   4.8012036  75.9493059  63.2720615   3.8453967
  80.8852529  65.2972894   6.4775120  80.3252087  65.3666083   7.2506682
  80.2796033  65.1213879   5.7574616  63.9547738  76.7309621   8.2293306
  63.8380122  77.6755054   8.1271996  63.1340184  76.4283183   8.6179105
  73.8424273  71.4559757  -0.9250101  74.6769877  71.0240955  -1.1072627
  73.6808615  71.2841771   0.0026793  73.4970165  67.9591870   0.4406238
  73.4418969  67.7936142  -0.5005318  72.8716220  68.6667903   0.5968428
  58.2862680  63.1959935  14.2667660  58.9321543  62.6858889  14.7554885
  58.0779831  63.9328616  14.8411085  70.8116072  70.2640782  19.7659801
  71.6807232  70.4381434  19.4046436  70.3322823  71.0835199  19.6435530
  66.8066290  57.4599979   0.0191556  66.7944960  58.4041819   0.1759827
  67.6989712  57.2770125  -0.2748983  64.9802252  77.3837883  11.4449234
  65.8829499  77.4161493  11.7615729  64.7539622  76.4538334  11.4595570
  66.7355854  76.1368870   8.1059313  65.7851485  76.1370731   7.9923685
  67.0388340  75.3901604   7.5895348  70.6218410  54.0542756   4.2737493
  69.8550805  53.5001243   4.4194175  71.0329115  54.1264625   5.1351645
  62.6260171  60.3427552  18.3642674  63.4891632  59.9864357  18.5745999
  62.0525581  60.0041447  19.0518079  82.4708548  81.9729408   9.1705075
  83.1086958  81.8536155   8.4668415  82.3529391  82.9210252   9.2293027
  79.2798254  81.9256836   9.1066600  78.9416765  81.8097901   8.2187135
  80.1488022  81.5248001   9.0867606  75.1385070  83.7792313   5.0963491
  74.5749935  83.6882250   4.3279779  75.0237465  82.9592217   5.5765983
  79.7618037  83.0791688  15.0652806  79.7506678  82.6844486  14.1933309
  79.9238676  82.3457761  15.6586577  72.6849502  85.2743504   7.9347711
  73.4770793  84.9334329   7.5194011  72.9246152  85.3838479   8.8549865
  80.7184628  87.4463280   0.4077956  80.0672608  88.0317361   0.0211970
  81.5128991  87.9769475   0.4672993  74.6440256  84.5352417   0.8065090
  75.4171132  83.9881405   0.6677966  74.9965654  85.3996667   1.0179552
  76.4825298  85.8628800  14.0131989  76.1915164  86.7674431  13.8978656
  77.1182282  85.9045327  14.7276059  77.4081505  83.2405648  10.6033349
  78.0045077  83.0161671   9.8890312  77.4656476  82.4990394  11.2058797
  76.9806533  80.6945084  -1.5616460  77.2332054  80.1726605  -2.3232997
  76.0431092  80.5311229  -1.4589776  82.0249816  79.6980862   6.2458283
  82.8112905  79.2800285   5.8948700  82.2888520  80.6026954   6.4139932
  82.1959894  85.1353712   0.9446940  81.5605726  85.2088339   1.6567845
  81.8657300  85.7247311   0.2666019  87.4258243  79.6356095   7.1491262
  88.1583415  79.0655312   7.3829091  86.6697599  79.2477696   7.5897767
  76.7002822  82.5973190   0.6407915  76.5839080  81.9218093   1.3088999
  76.8105082  82.1105563  -0.1759932  79.0434363  82.0583337   4.3454604
  78.6792570  81.5313958   5.0567526  79.9001479  81.6681806   4.1721090
  84.9483664  73.3477669  11.6085870  84.6166988  74.2173080  11.3847085
  84.3529277  73.0313953  12.2879901  78.6839850  77.0873236  -0.6584047
  78.8514252  77.9553473  -0.2913576  78.4937019  77.2500518  -1.5822758
  81.4415183  85.5490215  11.0081783  81.1415906  86.4515254  10.8997590
  81.0966243  85.2822398  11.8602936  74.8927665  82.0004012   7.0418488
  73.9678161  81.8680226   7.2496179  75.1412078  82.7798231   7.5388430
  84.8412327  78.0672755   8.6879220  83.9329204  77.9988164   8.3937981
  84.7899923  78.5444700   9.5161046  78.6629071  79.5430894   0.3262620
  78.5428696  79.9887945   1.1648100  77.9681659  79.8916211  -0.2323842
  72.2536476  81.6437286   7.8762277  72.3828857  81.8971765   8.7901688
  71.5733927  82.2364994   7.5566932  76.4235963  92.3134536   3.9752751
  76.3459993  93.2642361   4.0541231  75.8197607  91.9680408   4.6327677
  78.9153193  79.4862401  16.6314118  78.1386527  80.0456321  16.6216982
  79.5543756  79.9719184  17.1528988  86.7073973  76.2689194  10.4657094
  86.0648354  76.5621727   9.8196889  86.2028902  76.1542114  11.2710291
  84.3614137  80.0152367   1.1542954  85.2731993  80.2479754   0.9790651
  83.8523784  80.5989411   0.5918032  77.1699565  82.2947854  16.1932085
  77.9114249  82.8332898  15.9166908  76.4636551  82.9214143  16.3503637
  82.6454905  84.4376995  14.7904246  83.0538261  83.9959405  14.0458879
  81.9232166  83.8629622  15.0438439  78.9985975  79.3749602  12.1637803
  79.8447170  79.7989015  12.3072452  78.9384612  78.7183226  12.8576366
  82.9683719  84.9978185   8.5456535  82.3392582  85.1623900   7.8432603
  82.5809381  85.4119795   9.3167499  86.8472951  85.9332623   5.9000899
  86.1623989  86.3131525   5.3497932  86.9316801  86.5427950   6.6332847
  82.1485420  77.0353970  13.8218977  81.9046352  77.7896030  13.2853253
  82.4245351  77.4139318  14.6566224  84.1023883  83.5792582  12.4996242
  84.3140778  84.2224342  11.8230624  84.0553631  82.7454899  12.0318173
  81.7050112  76.1910403   9.4032815  80.8434591  76.4891657   9.6949552
  81.7312546  76.4080802   8.4713847  78.5211681  84.7352594   5.8106620
  78.9850027  85.0140297   5.0211243  78.2568479  83.8336038   5.6279711
  75.4135762  84.2824075   8.7486383  75.9837119  84.7111343   8.1103868
  76.0043874  84.0006660   9.4470569  77.4580567  80.8575746   2.6196185
  78.1604611  81.3096790   3.0870112  77.1261196  80.2159565   3.2476078
  75.9060929  79.4487503  16.9947395  75.2759589  80.1303783  17.2282792
  75.7997017  79.3370584  16.0500533  71.2005901  79.1159299   7.9213319
  70.4104955  79.3716827   7.4453430  71.6917149  79.9307636   8.0265359
  85.2169711  86.4564538  10.6718600  86.0387155  86.0544725  10.3901281
  85.2132114  86.3532772  11.6234716  73.1520647  79.4803878   4.8796796
  72.3551810  79.5922572   5.3980291  72.9246239  79.8190530   4.0137686
  78.9826314  86.0048581  12.8279310  79.0470747  86.4668988  13.6637482
  78.2737238  85.3745946  12.9561620  69.4843604  79.3689789  10.3528310
  69.7351643  80.2536799  10.6185886  70.0203153  79.1894391   9.5803402
  93.3075704  82.8003286   7.0203571  92.5539412  82.2310684   6.8647576
  93.4423245  82.7665951   7.9674206  78.6974332  87.6716689   2.6958291
  78.5620007  88.5168224   3.1243138  79.2384144  87.8735966   1.9324224
  75.1841672  73.7508268  19.3572646  74.7908617  73.1974467  20.0320290
  76.0007812  74.0618847  19.7479163  72.1503729  85.1892127   3.2686216
  72.6628250  85.9835377   3.4191780  72.8026442  84.4918417   3.2019817
  73.9598614  88.3057883   5.3508969  74.1365242  89.2275848   5.1629953
  74.7555447  87.9916302   5.7803349  78.1009633  75.1666147  16.9492902
  78.8419346  75.7673301  16.8697365  78.3327555  74.4243785  16.3910945
  73.2450971  80.3522515  15.2271132  73.1304486  79.4507772  15.5278231
  72.3895488  80.5986211  14.8755949  80.3242808  88.2940255  16.8258633
  79.8806662  87.5076634  16.5079537  80.9860022  88.4819406  16.1602523
  75.0829929  89.8236057  11.3519311  75.6337355  89.6953120  10.5796305
  74.2441405  90.1230946  11.0014204  82.4224046  88.5743055  14.8540034
  82.4042522  89.3951936  14.3620303  83.3443966  88.4497130  15.0790175
  78.8797100  86.0887184  15.6963542  79.4125437  85.3275473  15.4662850
  78.3511182  85.7960836  16.4387697  82.0466795  71.1947250  11.2257184
  81.7031065  72.0848892  11.1496295  82.4145758  71.0048908  10.3626769
  70.1152646  83.5180781   4.0445786  70.9527868  83.9277789   3.8279494
  70.2930914  82.5780223   4.0145980  82.0117078  81.1855862  -0.2670381
  81.4963702  81.9560466  -0.0281993  81.7394387  80.5120998   0.3562681
  79.5964189  76.0305562   4.7914858  78.7405786  75.6412413   4.6120496
  80.0091141  76.1097523   3.9314643  81.1263336  73.5651906   9.1906417
  80.6228131  73.5282041   8.3774223  81.4193943  74.4744648   9.2503074
  77.3706222  73.6490635   8.1972599  78.2359218  73.4533444   7.8378489
  77.4383731  73.4200987   9.1241956  86.9851352  83.9388216   1.6682793
  86.2080795  83.5999376   1.2237955  87.6642833  83.9440839   0.9937758
  81.8003381  79.0582954   1.5589400  81.4953517  79.3729103   2.4099544
  82.7533823  79.1364374   1.6016733  80.2449813  85.2173177   3.2082354
  79.7171175  84.4825937   2.8955592  79.7437316  85.9947853   2.9622323
  85.2242659  83.4122197   8.3249401  84.5666334  84.1021459   8.4129529
  86.0283058  83.8018629   8.6683387  74.9768541  75.8792843   5.5688966
  75.5512293  75.6568025   4.8362159  75.5639523  75.9481538   6.3217567
  84.0348118  81.7666570   6.3753342  84.5480000  82.3996562   6.8775052
  84.6849342  81.1667766   6.0096702  75.3038128  77.9097304  -0.4115149
  74.4675440  78.2471991  -0.0905874  75.1642898  77.7746284  -1.3488012
  77.2791209  72.7534092   4.2964035  76.6255621  72.4383109   3.6720650
  77.2371683  72.1309833   5.0223858  78.3902413  83.0353387  -3.7882673
  77.4829475  82.8042641  -3.5891524  78.8873445  82.2391006  -3.6008691
  81.2970492  91.7450894  -0.8685986  80.6232191  92.0482591  -0.2601029
  81.6836314  92.5479975  -1.2180529  80.5128949  79.2416026   8.6211683
  79.5951510  79.4630973   8.4633371  80.9289092  79.3162336   7.7623390
  81.2963997  80.6407441   3.7514363  82.0435816  81.1528839   3.4421485
  81.5655586  80.3191494   4.6118757  79.5690647  83.1365982   0.7341317
  78.6601866  82.8525015   0.8313787  79.5985731  83.5565061  -0.1255376
  84.8009914  86.7472572   4.5032485  84.3472241  85.9063481   4.5597675
  84.1703881  87.3833970   4.8407265  83.7442834  77.6764558   5.7333152
  83.0065591  77.1641944   6.0643395  83.9969607  77.2364939   4.9216429
  83.2442853  88.5849068   5.4382303  83.5365828  89.1454125   4.7194669
  83.7541474  88.8777629   6.1935462  83.8454461  70.4540810   6.3274922
  84.1513338  69.5938173   6.0400837  84.5707066  71.0458430   6.1273916
  70.1378817  80.8571496   4.7156520  69.9403217  80.2640857   3.9907586
  69.5825481  80.5523706   5.4332458  78.1175541  80.7494603   6.8351113
  78.1724151  79.7968439   6.7593589  77.3066743  80.9054042   7.3192411
  79.2666735  84.6774726  -1.9270604  78.8286165  83.9610585  -2.3864967
  80.0077175  84.9050841  -2.4885513  76.0567901  79.3671662   4.5941492
  75.2435766  79.6665833   5.0006684  76.5526895  78.9727351   5.3115974
  78.2076479  89.3629419   6.5275756  78.1652657  89.5890266   5.5984288
  79.1239178  89.1292794   6.6761558  81.6542112  79.8313487  13.4256386
  82.0091500  80.0584960  14.2850851  82.3014244  80.1631864  12.8033641
  87.3839849  82.9531923   4.1305715  87.2457748  83.1433519   3.2026904
  87.0276068  83.7151306   4.5873766  75.5481976  76.9390018  10.2102727
  76.1881355  76.7978777   9.5125690  74.7159506  76.6524531   9.8341329
  87.4109229  85.0208450   9.1416986  87.8445736  84.9283739   9.9900040
  88.1240810  84.9965950   8.5037002  76.3242279  86.2392448   6.3237719
  77.1182878  85.7442768   6.1220294  75.6133972  85.7110311   5.9605425
  81.1437124  88.6210544  10.6750087  81.1974146  89.1901480  11.4427803
  80.2751905  88.7912429  10.3104124  72.6325043  80.3835530   2.3997472
  71.7022631  80.3219986   2.6167434  72.7282515  79.8611483   1.6034113
  72.5510592  76.9090343   4.9875713  72.8117409  77.8235676   4.8784874
  73.3727764  76.4414785   5.1372326  74.0235517  78.3228100  12.1574538
  74.6958571  78.1145462  11.5087187  73.1965304  78.1250186  11.7179770
  88.2724779  85.0632150  11.6749872  88.4660669  85.9677961  11.9209146
  88.1725397  84.6039570  12.5088457  79.9261089  74.9490041  14.1740199
  79.2789004  75.6479991  14.0804675  80.6962105  75.3826185  14.5416447
  83.3339887  85.2138893  17.2490752  83.1825394  84.9849445  16.3320836
  83.3244567  86.1709495  17.2622097  80.1025224  82.7870806  12.2337019
  81.0317284  82.9381966  12.0605986  79.6816254  82.8754827  11.3785665
  78.9013555  86.8121470  10.0035556  78.7624641  86.4440255  10.8761494
  78.1128152  87.3269110   9.8319514  79.4961707  91.9130567   1.3461093
  79.6713463  91.4418610   2.1606715  78.8094495  92.5396333   1.5742353
  80.4518771  86.1903073   7.3924394  80.1168603  86.1503843   8.2882044
  79.9522716  85.5247789   6.9194804  74.4263015  81.5970703  12.9176975
  74.2882812  80.8650942  13.5188514  75.3367938  81.5079603  12.6361163
  83.3877962  83.5359107  -2.3338546  82.7707133  82.8105936  -2.4305494
  82.9194451  84.2968468  -2.6771472  77.0545315  81.3090662  12.4060655
  77.7644934  80.6683855  12.3647273  77.0114623  81.5603557  13.3286836
  85.0432094  88.2458016  15.3267234  84.9844640  87.5617236  14.6597817
  85.4451612  88.9877006  14.8747860  75.7674249  78.2955880  14.2256294
  75.2311606  77.8446619  14.8777891  75.1790958  78.4301789  13.4826759
  74.0622793  95.0619930   8.1200953  74.3019391  95.6938454   8.7979971
  73.2191989  94.7107970   8.4066312  75.1776508  77.7544532  -3.2117242
  74.3005974  77.6333332  -3.5754995  75.6534261  76.9630610  -3.4638353
  85.0449501  86.2097600  13.5581214  84.1576280  85.8723521  13.6807613
  85.6148052  85.4780631  13.7949979  66.6978648  82.5421691   6.8824265
  67.3849688  82.2283421   6.2945280  66.5426777  83.4463056   6.6091516
  71.5013370  77.4311888  11.3109289  71.4171559  76.8237558  10.5759699
  70.6796077  77.9220906  11.3118785  78.5750655  90.8699052  10.5242457
  78.5020826  91.6754024  11.0361761  78.1328048  91.0691018   9.6990478
  78.3640434  90.1070822   4.0345278  77.5807956  90.6492502   4.1283503
  79.0633179  90.6244802   4.4339520  81.6737084  75.9165452   6.6779484
  82.1705784  75.1635414   6.3580554  80.9024066  75.9529768   6.1122693
  89.5266842  81.6205817   8.3197775  89.5156718  82.5030532   7.9491708
  88.6584221  81.2677368   8.1252312  81.0349338  90.7685886  12.6800616
  81.7477310  91.4033351  12.6076517  80.5439367  90.8649752  11.8640617
  82.7566865  84.6737139   4.2517907  81.8223144  84.7938601   4.0822612
  82.9343533  83.7709605   3.9877917  78.2572053  78.0582834   6.4051168
  77.8869841  77.5053875   7.0932074  78.7531145  77.4540968   5.8526168
  86.1439416  80.5154458   4.7867941  86.6099869  81.3482450   4.7128244
  86.5946917  80.0499440   5.4913200  76.0861252  88.5180330  13.5006186
  76.7870711  89.1516812  13.6535581  75.6156367  88.8595061  12.7401826
  84.2115647  86.8598279   1.7854093  84.4875491  86.7454874   2.6947967
  83.3420146  86.4615764   1.7466266  84.1156079  72.8835045   8.8258843
  83.2019159  73.1139272   8.9941050  84.5449181  72.9673489   9.6772875
  83.8862538  81.0724937  11.3258737  83.2333988  81.3200844  10.6711189
  84.2642917  80.2589075  10.9921214  80.8469711  91.1084630   5.4286907
  81.0292106  90.2906286   5.8914659  81.6702697  91.3252322   4.9911797
  81.1811877  90.0352815   2.6901955  81.7099643  89.5245270   2.0772118
  81.4440097  89.7195345   3.5547488  79.9350111  81.8144748  17.8124774
  79.2590748  81.7138877  18.4827149  80.7577744  81.6583962  18.2760771
  71.6828970  88.0516685  10.4337289  72.2682406  87.3060372  10.5665193
  71.4853808  88.3620641  11.3173953  74.5367625  91.0867932   5.4499731
  73.8678000  91.5714060   4.9663771  74.3980495  91.3337152   6.3643110
  66.2746624  80.6222285   9.1541732  66.3130724  80.0885875   9.9478850
  65.7686917  80.0957490   8.5352709  78.6772893  93.1211675  12.0482390
  79.2291201  93.2843297  12.8131475  79.0179087  93.7116113  11.3762415
  73.6537387  75.4686825  12.6504274  73.7178713  76.3301656  12.2381672
  73.5904507  74.8560827  11.9176633  73.1289659  77.5409958  16.2977309
  73.7561698  77.1587035  16.9114833  72.2717578  77.3224160  16.6633001
  83.5283768  87.9472933  17.9031044  84.0723672  88.5602891  17.4085999
  82.9470613  88.5052511  18.4198057  69.9055202  79.3486387   2.2295664
  70.2008643  78.4397065   2.1762717  69.0043238  79.3274126   1.9076666
  81.8141281  91.0693651   9.0346072  81.6892420  90.2683391   8.5257017
  82.4720372  91.5639844   8.5460042  73.4349449  77.4242383   8.2123212
  72.7136035  78.0378351   8.0730685  74.2242705  77.9600148   8.1339858
  83.8776189  88.8702671  10.6625622  82.9306525  88.7508022  10.5903949
  84.2258962  87.9825169  10.7451883  76.2375762  74.7596810  14.4863864
  76.7610164  75.0059107  15.2490173  76.0188096  75.5916845  14.0667001
  71.6343044  77.0300485   2.3534989  71.3055750  76.1497864   2.1710095
  71.9882414  76.9748153   3.2411378  80.8822622  88.6655387   6.8629974
  80.7347585  87.7372095   7.0437544  81.7076116  88.6875478   6.3787049
  74.7484867  77.3173454   2.7210466  75.0880939  77.8459376   1.9989075
  75.1956987  77.6553861   3.4969033  84.4856744  89.4883946   7.9494847
  85.4103292  89.2826807   7.8119298  84.3172048  89.2400347   8.8584188
  77.4428308  75.7010505  12.1713534  77.1025128  74.9018318  12.5734214
  76.7367314  76.0012216  11.5990368  78.0944779  72.7859818  10.6240857
  78.9170849  72.3120296  10.5019748  78.3382843  73.5650301  11.1239544
  76.7353014  75.8148076   0.9203759  77.4561376  76.1929329   0.4167476
  76.1118318  76.5336953   1.0238737  80.8784137  76.5193225   1.8562091
  81.0947751  77.4017863   1.5550920  80.3978204  76.1279438   1.1267733
  75.6183358  79.4778938   8.4332836  75.4727939  79.7919241   9.3257118
  75.1408562  80.0963838   7.8803735  77.4779741  76.4681486   8.4813726
  77.4641310  75.5722579   8.1446024  78.1952169  76.4752150   9.1152012
  79.3305872  76.9018826  10.5266853  79.0723650  77.8235897  10.5251183
  78.7990912  76.5049261  11.2167317  84.2752060  90.0069613   3.3056938
  84.4488938  89.4416036   2.5530791  84.7680952  90.8070508   3.1236428
  70.0929020  82.0184283  11.3720497  69.5482488  82.7944091  11.5040772
  70.9708370  82.3655087  11.2139619  76.8816637  75.3495866   3.7501296
  77.0032548  74.4212513   3.9492183  76.5918679  75.3634552   2.8379611
  79.7507827  73.0350777   6.8868016  79.7729524  73.0990110   5.9319995
  80.1675886  72.1955286   7.0808522  90.1291452  82.7706036   4.9247238
  90.5722598  82.0213362   4.5266361  89.2517962  82.7616173   4.5420970
  85.2627233  89.3236378   0.4053837  85.9578138  89.9443071   0.6241151
  85.6050383  88.4731729   0.6806215  70.8795042  81.1454179  14.2650654
  70.1376778  81.2936814  14.8515285  70.5587786  81.4062444  13.4017404
  87.1618656  86.7736083   1.9341167  87.6869980  87.1123356   1.2090488
  87.0741009  85.8383099   1.7504302  78.8238705  90.6870157  14.0631044
  79.1325831  90.4419304  14.9353744  79.6214187  90.8916796  13.5749914
  78.8459317  92.8408067   6.2936421  78.4064307  92.3484445   6.9869277
  79.5967434  92.2981034   6.0528496  71.3251656  89.0319608   6.2961049
  72.1509676  88.7323379   5.9159692  70.9745708  88.2627230   6.7450837
  76.2933189  88.3846076   8.3658722  75.6713198  87.7216781   8.0660950
  76.9638056  88.4107208   7.6832370  69.5260261  86.9505934   7.2549982
  68.6892169  86.5228108   7.0733984  69.4983906  87.1438377   8.1920774
  76.3657716  76.8627864  17.9591228  76.4145872  77.7389987  17.5768998
  76.9080231  76.3205257  17.3862872  86.8512562  87.4068987  17.2392365
  86.0608106  87.3893126  16.6996865  86.6145917  87.9457281  17.9941402
  86.9710437  84.2561453  14.5525094  87.0208442  84.0911461  15.4940617
  86.8624361  83.3888712  14.1622975  75.8546696  86.9349999   1.8417183
  76.0034816  87.6185464   1.1883856  76.6613139  86.9155089   2.3566639
  84.2614200  80.2392381  15.8684401  85.1624062  80.0998846  15.5768399
  84.3362174  80.4046836  16.8082578  78.5957005  77.6159236  14.7137587
  77.7260314  77.9092802  14.4420176  78.8316485  78.1999681  15.4344851
  88.4728634  86.6758395  14.7967116  88.1813442  87.0388375  15.6330577
  87.8600765  85.9625403  14.6180448  89.6724316  84.2411275   7.3169686
  90.5071208  84.6801079   7.4807246  89.8083445  83.7649928   6.4977932
  86.7215822  81.7991010  13.2647174  87.1969944  81.9918656  12.4566025
  85.7981388  81.8550195  13.0190557  73.6099329  82.9615177   2.8478252
  73.3645371  82.0577507   3.0458462  73.7795243  82.9632327   1.9057730
  81.2996039  73.8338853  12.2303007  81.8177983  74.5699880  11.9049496
  80.9451172  74.1402846  13.0649767  72.8794976  78.6943534   0.3464413
  72.1864221  78.7687889  -0.3095551  72.6346728  77.9303878   0.8685930
  81.5508633  70.2539136   7.7503904  81.8310387  69.5862325   8.3764331
  82.3359240  70.4468231   7.2378568  79.3542101  89.4298130  -0.6871070
  78.7816069  90.0488317  -1.1400598  79.9274895  89.9797491  -0.1531148
  85.4217491  78.6756770  11.4975479  86.3734914  78.7754867  11.5187703
  85.2520942  77.8835038  12.0073563  83.4431871  75.7612353  11.6834880
  82.8481803  76.0417366  10.9881369  83.1581567  76.2506254  12.4551621
  82.5739361  89.7135280   0.4437513  83.5070034  89.6480841   0.6470388
  82.4862574  90.5491547  -0.0147955  87.9005569  81.8962889  10.6117779
  87.8681889  80.9578890  10.7977463  88.5106193  81.9746926   9.8783604
  79.7388900  80.7658942  -3.3455017  80.6848005  80.6365150  -3.2766599
  79.3603145  80.0273604  -2.8685589  88.0500058  78.6873933  10.6576062
  87.5339106  77.9032389  10.4705991  88.9340006  78.3592649  10.8222581
  85.7110784  72.4314948   6.6171875  85.5135606  72.1230037   7.5015207
  86.3210490  73.1576587   6.7469804  93.7182119  82.9578896   9.7523816
  94.4485507  82.6964184  10.3131519  93.1089064  82.2207618   9.7925884
  91.7997416  81.0986759  10.3498267  91.0730580  80.9642724   9.7414758
  91.3844703  81.4063587  11.1554985  79.6227592  84.8176688  18.1145640
  80.5430602  84.9955287  18.3085686  79.5877175  83.8732734  17.9625339
  77.9231817  78.6908919  -3.4100132  77.0163272  78.3942031  -3.3337418
  78.2007798  78.3938737  -4.2765846  68.8409757  80.0115282   7.0398914
  68.5212542  79.1580590   6.7473288  68.2943186  80.2263860   7.7956882
  72.6189665  82.7277723  10.7568421  72.8375675  83.6594831  10.7756455
  73.0315439  82.3685698  11.5423225  79.5393883  73.2345808   2.7444109
  78.7294611  72.8892893   3.1199355  80.2278300  72.9253352   3.3331721
  81.4684431  72.3123855   4.3668406  82.0215470  72.7319309   5.0258429
  81.7054517  71.3859603   4.4091362  77.4917530  78.3010929  20.1471170
  77.3914257  79.2505286  20.0783261  77.2739072  77.9729168  19.2747240
  76.6930602  75.5495854  -3.2688153  77.5549766  75.8750752  -3.0092335
  76.8780946  74.7627350  -3.7815087  68.7098017  83.6318194   9.0092036
  68.0161489  83.2172146   8.4961990  69.4571008  83.6738730   8.4125455
  84.8463238  74.4224380   3.8747070  84.2661907  75.0809184   3.4925123
  84.5799171  73.6001725   3.4634488  83.2966805  73.8229438   6.0768391
  83.7966583  73.9345973   5.2682709  83.9402412  73.5190491   6.7169199
  77.3548800  81.7308068  18.9636232  76.8715882  82.5308428  19.1700121
  77.4409739  81.7416013  18.0103676  70.6234760  83.5636447   6.8858051
  70.6005448  83.6624135   5.9339934  70.9335396  84.4101598   7.2075217
  73.2822138  85.6212602  11.0004665  74.2365391  85.5896545  10.9334597
  73.0834661  85.1603226  11.8154891  73.8721520  84.1913718  13.5675463
  74.6914409  84.6857797  13.5910300  74.1458328  83.2745687  13.5393030
  83.6288116  76.5824471   2.9303419  82.7413971  76.8674121   2.7123613
  84.0442105  76.4218234   2.0830695  86.9802652  76.6070992   6.6457758
  87.7563042  77.0967444   6.9182375  86.2550786  77.0329046   7.1029627
  89.4175211  77.3198611   7.7031698  90.0119702  77.0794347   6.9925007
  89.4901795  76.6005742   8.3305235  71.6372367  91.1632222   8.0174863
  71.5026835  90.4032623   7.4512861  71.2204429  91.8873122   7.5503652
  82.7731330  86.3469145  -2.9748562  83.4767180  86.5519148  -2.3590906
  82.0493978  86.9145907  -2.7099478  83.6029140  82.0979007   3.1453709
  83.5464341  82.5547558   2.3061341  84.1557482  81.3369691   2.9676551
  87.4133946  77.8868739   3.9703828  87.1570880  77.4865374   4.8012036
  86.7886814  78.6012533   3.8453967  91.7246284  80.6264812   6.4775120
  91.1645842  80.6958001   7.2506682  91.1189787  80.4505796   5.7574616
  74.7941493  92.0601539   8.2293306  74.6773877  93.0046971   8.1271996
  73.9733939  91.7575100   8.6179105  84.6818027  86.7851675  -0.9250101
  85.5163631  86.3532873  -1.1072627  84.5202370  86.6133688   0.0026793
  84.3363919  83.2883788   0.4406238  84.2812723  83.1228059  -0.5005318
  83.7109975  83.9959821   0.5968428  69.1256434  78.5251852  14.2667660
  69.7715298  78.0150806  14.7554885  68.9173585  79.2620534  14.8411085
  81.6509826  85.5932700  19.7659801  82.5200986  85.7673352  19.4046436
  81.1716578  86.4127117  19.6435530  77.6460045  72.7891897   0.0191556
  77.6338715  73.7333737   0.1759827  78.5383467  72.6062042  -0.2748983
  75.8196007  92.7129801  11.4449234  76.7223253  92.7453411  11.7615729
  75.5933377  91.7830252  11.4595570  77.5749609  91.4660787   8.1059313
  76.6245240  91.4662649   7.9923685  77.8782095  90.7193522   7.5895348
  81.4612164  69.3834674   4.2737493  80.6944560  68.8293160   4.4194175
  81.8722869  69.4556542   5.1351645  73.4653925  75.6719469  18.3642674
  74.3285387  75.3156274  18.5745999  72.8919336  75.3333364  19.0518079
  93.3102302  97.3021326   9.1705075  93.9480712  97.1828073   8.4668415
  93.1923145  98.2502170   9.2293027  90.1192008  97.2548754   9.1066600
  89.7810520  97.1389819   8.2187135  90.9881777  96.8539919   9.0867606
  85.9778824  99.1084230   5.0963491  85.4143689  99.0174167   4.3279779
  85.8631219  98.2884135   5.5765983  90.6011791  98.4083606  15.0652806
  90.5900432  98.0136404  14.1933309  90.7632431  97.6749678  15.6586577
  83.5243256 100.6035422   7.9347711  84.3164548 100.2626247   7.5194011
  83.7639906 100.7130397   8.8549865  87.3219053 101.1920717  14.0131989
  87.0308919 102.0966348  13.8978656  87.9576037 101.2337245  14.7276059
  88.2475259  98.5697566  10.6033349  88.8438832  98.3453588   9.8890312
  88.3050231  97.8282311  11.2058797  92.8643571  95.0272780   6.2458283
  93.6506660  94.6092203   5.8948700  93.1282275  95.9318872   6.4139932
  98.2651998  94.9648013   7.1491262  98.9977170  94.3947230   7.3829091
  97.5091353  94.5769613   7.5897767  89.8828117  97.3875254   4.3454604
  89.5186325  96.8605875   5.0567526  90.7395233  96.9973723   4.1721090
  95.7877418  88.6769587  11.6085870  95.4560743  89.5464998  11.3847085
  95.1923032  88.3605871  12.2879901  92.2808938 100.8782133  11.0081783
  91.9809661 101.7807172  10.8997590  91.9359997 100.6114316  11.8602936
  85.7321419  97.3295930   7.0418488  84.8071916  97.1972144   7.2496179
  85.9805832  98.1090149   7.5388430  95.6806081  93.3964673   8.6879220
  94.7722959  93.3280082   8.3937981  95.6293677  93.8736618   9.5161046
  83.0930230  96.9729203   7.8762277  83.2222611  97.2263682   8.7901688
  82.4127681  97.5656911   7.5566932  89.7546947  94.8154319  16.6314118
  88.9780281  95.3748239  16.6216982  90.3937510  95.3011102  17.1528988
  97.5467728  91.5981111  10.4657094  96.9042108  91.8913645   9.8196889
  97.0422656  91.4834032  11.2710291  88.0093320  97.6239772  16.1932085
  88.7508004  98.1624816  15.9166908  87.3030305  98.2506061  16.3503637
  93.4848659  99.7668913  14.7904246  93.8932015  99.3251323  14.0458879
  92.7625921  99.1921540  15.0438439  89.8379729  94.7041519  12.1637803
  90.6840924  95.1280933  12.3072452  89.7778367  94.0475144  12.8576366
  93.8077474 100.3270103   8.5456535  93.1786336 100.4915817   7.8432603
  93.4203136 100.7411713   9.3167499  92.9879175  92.3645888  13.8218977
  92.7440106  93.1187948  13.2853253  93.2639105  92.7431235  14.6566224
  94.9417637  98.9084500  12.4996242  95.1534533  99.5516260  11.8230624
  94.8947386  98.0746817  12.0318173  92.5443866  91.5202321   9.4032815
  91.6828345  91.8183574   9.6949552  92.5706301  91.7372720   8.4713847
  86.2529517  99.6115993   8.7486383  86.8230874 100.0403261   8.1103868
  86.8437629  99.3298577   9.4470569  88.2974322  96.1867664   2.6196185
  88.9998365  96.6388707   3.0870112  87.9654950  95.5451482   3.2476078
  86.7454683  94.7779420  16.9947395  86.1153344  95.4595701  17.2282792
  86.6390771  94.6662502  16.0500533  82.0399656  94.4451216   7.9213319
  81.2498710  94.7008745   7.4453430  82.5310903  95.2599554   8.0265359
  96.0563465 101.7856455  10.6718600  96.8780909 101.3836643  10.3901281
  96.0525868 101.6824690  11.6234716  83.9914401  94.8095795   4.8796796
  83.1945564  94.9214490   5.3980291  83.7639993  95.1482448   4.0137686
  89.8220069 101.3340499  12.8279310  89.8864501 101.7960906  13.6637482
  89.1130993 100.7037864  12.9561620  80.3237359  94.6981707  10.3528310
  80.5745397  95.5828717  10.6185886  80.8596907  94.5186308   9.5803402
  86.0235426  89.0800186  19.3572646  85.6302372  88.5266385  20.0320290
  86.8401566  89.3910765  19.7479163  82.9897484 100.5184044   3.2686216
  83.5022004 101.3127294   3.4191780  83.6420197  99.8210335   3.2019817
  88.9403387  90.4958065  16.9492902  89.6813100  91.0965218  16.8697365
  89.1721310  89.7535703  16.3910945  84.0844725  95.6814432  15.2271132
  83.9698240  94.7799690  15.5278231  83.2289243  95.9278129  14.8755949
  91.1636563 103.6232173  16.8258633  90.7200417 102.8368551  16.5079537
  91.8253776 103.8111323  16.1602523  85.9223684 105.1527974  11.3519311
  86.4731109 105.0245038  10.5796305  85.0835160 105.4522863  11.0014204
  93.2617801 103.9034973  14.8540034  93.2436276 104.7243854  14.3620303
  94.1837721 103.7789048  15.0790175  89.7190855 101.4179102  15.6963542
  90.2519192 100.6567390  15.4662850  89.1904936 101.1252754  16.4387697
  92.8860550  86.5239168  11.2257184  92.5424819  87.4140810  11.1496295
  93.2539513  86.3340826  10.3626769  80.9546401  98.8472699   4.0445786
  81.7921623  99.2569707   3.8279494  81.1324668  97.9072141   4.0145980
  90.4357944  91.3597480   4.7914858  89.5799540  90.9704330   4.6120496
  90.8484895  91.4389441   3.9314643  91.9657090  88.8943823   9.1906417
  91.4621886  88.8573958   8.3774223  92.2587697  89.8036566   9.2503074
  88.2099976  88.9782553   8.1972599  89.0752973  88.7825362   7.8378489
  88.2777485  88.7492905   9.1241956  96.0636414  98.7414115   8.3249401
  95.4060088  99.4313376   8.4129529  96.8676813  99.1310547   8.6683387
  85.8162295  91.2084761   5.5688966  86.3906047  90.9859942   4.8362159
  86.4033278  91.2773455   6.3217567  94.8741872  97.0958488   6.3753342
  95.3873754  97.7288480   6.8775052  95.5243096  96.4959683   6.0096702
  88.1184963  88.0826010   4.2964035  87.4649375  87.7675027   3.6720650
  88.0765437  87.4601750   5.0223858  91.3522703  94.5707943   8.6211683
  90.4345265  94.7922890   8.4633371  91.7682847  94.6454254   7.7623390
  94.5836588  93.0056475   5.7333152  93.8459345  92.4933861   6.0643395
  94.8363362  92.5656857   4.9216429  94.6848216  85.7832727   6.3274922
  94.9907092  84.9230091   6.0400837  95.4100820  86.3750347   6.1273916
  80.9772572  96.1863414   4.7156520  80.7796971  95.5932775   3.9907586
  80.4219236  95.8815624   5.4332458  88.9569295  96.0786520   6.8351113
  89.0117905  95.1260357   6.7593589  88.1460497  96.2345959   7.3192411
  86.8961655  94.6963580   4.5941492  86.0829521  94.9957751   5.0006684
  87.3920649  94.3019269   5.3115974  92.4935867  95.1605405  13.4256386
  92.8485255  95.3876878  14.2850851  93.1407998  95.4923781  12.8033641
  86.3875730  92.2681936  10.2102727  87.0275109  92.1270695   9.5125690
  85.5553261  91.9816449   9.8341329  87.1636034 101.5684366   6.3237719
  87.9576632 101.0734686   6.1220294  86.4527726 101.0402229   5.9605425
  91.9830878 103.9502462  10.6750087  92.0367901 104.5193398  11.4427803
  91.1145660 104.1204347  10.3104124  83.4718797  95.7127448   2.3997472
  82.5416385  95.6511903   2.6167434  83.5676269  95.1903401   1.6034113
  83.3904346  92.2382261   4.9875713  83.6511164  93.1527594   4.8784874
  84.2121519  91.7706703   5.1372326  84.8629272  93.6520018  12.1574538
  85.5352325  93.4437380  11.5087187  84.0359058  93.4542104  11.7179770
  99.1118533 100.3924068  11.6749872  99.3054423 101.2969879  11.9209146
  99.0119151  99.9331487  12.5088457  90.7654844  90.2781959  14.1740199
  90.1182759  90.9771908  14.0804675  91.5355859  90.7118103  14.5416447
  94.1733642 100.5430811  17.2490752  94.0219148 100.3141363  16.3320836
  94.1638321 101.5001412  17.2622097  90.9418978  98.1162724  12.2337019
  91.8711038  98.2673883  12.0605986  90.5210008  98.2046744  11.3785665
  89.7407310 102.1413388  10.0035556  89.6018396 101.7732172  10.8761494
  88.9521906 102.6561027   9.8319514  91.2912525 101.5194991   7.3924394
  90.9562358 101.4795761   8.2882044  90.7916471 100.8539707   6.9194804
  85.2656769  96.9262621  12.9176975  85.1276567  96.1942860  13.5188514
  86.1761692  96.8371521  12.6361163  87.8939070  96.6382580  12.4060655
  88.6038688  95.9975772  12.3647273  87.8508378  96.8895475  13.3286836
  95.8825848 103.5749933  15.3267234  95.8238395 102.8909154  14.6597817
  96.2845367 104.3168923  14.8747860  86.6068004  93.6247798  14.2256294
  86.0705361  93.1738536  14.8777891  86.0184712  93.7593707  13.4826759
  95.8843256 101.5389517  13.5581214  94.9970034 101.2015439  13.6807613
  96.4541807 100.8072549  13.7949979  77.5372403  97.8713609   6.8824265
  78.2243443  97.5575339   6.2945280  77.3820531  98.7754974   6.6091516
  82.3407125  92.7603806  11.3109289  82.2565314  92.1529475  10.5759699
  81.5189831  93.2512824  11.3118785  89.4144409 106.1990970  10.5242457
  89.3414581 107.0045941  11.0361761  88.9721802 106.3982936   9.6990478
  92.5130839  91.2457369   6.6779484  93.0099538  90.4927332   6.3580554
  91.7417820  91.2821686   6.1122693  91.8743093 106.0977804  12.6800616
  92.5871065 106.7325269  12.6076517  91.3833121 106.1941670  11.8640617
  89.0965808  93.3874752   6.4051168  88.7263595  92.8345793   7.0932074
  89.5924900  92.7832886   5.8526168  86.9255006 103.8472247  13.5006186
  87.6264466 104.4808730  13.6535581  86.4550121 104.1886979  12.7401826
  94.9549834  88.2126963   8.8258843  94.0412913  88.4431190   8.9941050
  95.3842935  88.2965407   9.6772875  94.7256292  96.4016855  11.3258737
  94.0727742  96.6492762  10.6711189  95.1036672  95.5880993  10.9921214
  90.7743865  97.1436666  17.8124774  90.0984502  97.0430795  18.4827149
  91.5971499  96.9875879  18.2760771  82.5222724 103.3808602  10.4337289
  83.1076161 102.6352290  10.5665193  82.3247563 103.6912559  11.3173953
  77.1140379  95.9514202   9.1541732  77.1524478  95.4177793   9.9478850
  76.6080672  95.4249408   8.5352709  89.5166648 108.4503593  12.0482390
  90.0684956 108.6135215  12.8131475  89.8572841 109.0408031  11.3762415
  84.4931141  90.7978743  12.6504274  84.5572468  91.6593574  12.2381672
  84.4298261  90.1852745  11.9176633  83.9683414  92.8701875  16.2977309
  84.5955453  92.4878953  16.9114833  83.1111333  92.6516077  16.6633001
  94.3677522 103.2764851  17.9031044  94.9117426 103.8894809  17.4085999
  93.7864367 103.8344429  18.4198057  80.7448956  94.6778305   2.2295664
  81.0402398  93.7688983   2.1762717  79.8436992  94.6566044   1.9076666
  84.2743203  92.7534301   8.2123212  83.5529789  93.3670269   8.0730685
  85.0636459  93.2892066   8.1339858  94.7169944 104.1994589  10.6625622
  93.7700279 104.0799940  10.5903949  95.0652717 103.3117087  10.7451883
  87.0769517  90.0888728  14.4863864  87.6003919  90.3351024  15.2490173
  86.8581850  90.9208762  14.0667001  82.4736798  92.3592402   2.3534989
  82.1449504  91.4789781   2.1710095  82.8276169  92.3040071   3.2411378
  85.5878621  92.6465372   2.7210466  85.9274694  93.1751293   1.9989075
  86.0350742  92.9845778   3.4969033  88.2822062  91.0302423  12.1713534
  87.9418882  90.2310236  12.5734214  87.5761068  91.3304134  11.5990368
  88.9338534  88.1151735  10.6240857  89.7564603  87.6412213  10.5019748
  89.1776597  88.8942219  11.1239544  87.5746768  91.1439994   0.9203759
  88.2955131  91.5221246   0.4167476  86.9512072  91.8628870   1.0238737
  86.4577113  94.8070856   8.4332836  86.3121693  95.1211159   9.3257118
  85.9802316  95.4255756   7.8803735  88.3173495  91.7973404   8.4813726
  88.3035064  90.9014497   8.1446024  89.0345924  91.8044068   9.1152012
  90.1699626  92.2310744  10.5266853  89.9117404  93.1527815  10.5251183
  89.6384667  91.8341179  11.2167317  80.9322775  97.3476200  11.3720497
  80.3876243  98.1236008  11.5040772  81.8102125  97.6947005  11.2139619
  87.7210391  90.6787784   3.7501296  87.8426303  89.7504430   3.9492183
  87.4312434  90.6926470   2.8379611  90.5901582  88.3642695   6.8868016
  90.6123279  88.4282028   5.9319995  91.0069641  87.5247203   7.0808522
  81.7188797  96.4746097  14.2650654  80.9770533  96.6228732  14.8515285
  81.3981541  96.7354362  13.4017404  89.6632459 106.0162075  14.0631044
  89.9719586 105.7711222  14.9353744  90.4607941 106.2208713  13.5749914
  82.1645410 104.3611525   6.2961049  82.9903430 104.0615297   5.9159692
  81.8139462 103.5919148   6.7450837  87.1326943 103.7137993   8.3658722
  86.5106953 103.0508698   8.0660950  87.8031810 103.7399125   7.6832370
  80.3654015 102.2797852   7.2549982  79.5285924 101.8520026   7.0733984
  80.3377661 102.4730295   8.1920774  87.2051471  92.1919781  17.9591228
  87.2539626  93.0681904  17.5768998  87.7473985  91.6497175  17.3862872
  97.6906317 102.7360905  17.2392365  96.9001860 102.7185044  16.6996865
  97.4539671 103.2749198  17.9941402  97.8104192  99.5853371  14.5525094
  97.8602197  99.4203379  15.4940617  97.7018115  98.7180630  14.1622975
  95.1007954  95.5684299  15.8684401  96.0017817  95.4290764  15.5768399
  95.1755929  95.7338754  16.8082578  89.4350759  92.9451154  14.7137587
  88.5654069  93.2384720  14.4420176  89.6710240  93.5291599  15.4344851
  99.3122389 102.0050313  14.7967116  99.0207197 102.3680293  15.6330577
  98.6994520 101.2917321  14.6180448  97.5609577  97.1282927  13.2647174
  98.0363698  97.3210574  12.4566025  96.6375142  97.1842113  13.0190557
  92.1389793  89.1630771  12.2303007  92.6571737  89.8991798  11.9049496
  91.7844926  89.4694764  13.0649767  83.7188731  94.0235452   0.3464413
  83.0257976  94.0979807  -0.3095551  83.4740483  93.2595796   0.8685930
  92.3902387  85.5831053   7.7503904  92.6704141  84.9154242   8.3764331
  93.1752994  85.7760149   7.2378568  96.2611246  94.0048687  11.4975479
  97.2128669  94.1046785  11.5187703  96.0914696  93.2126956  12.0073563
  94.2825625  91.0904271  11.6834880  93.6875557  91.3709283  10.9881369
  93.9975322  91.5798171  12.4551621  98.7399324  97.2254807  10.6117779
  98.7075644  96.2870808  10.7977463  99.3499947  97.3038844   9.8783604
  98.8893812  94.0165850  10.6576062  98.3732861  93.2324307  10.4705991
  99.7733761  93.6884567  10.8222581  96.5504539  87.7606866   6.6171875
  96.3529360  87.4521954   7.5015207  97.1604245  88.4868505   6.7469804
 102.6391171  96.4278676  10.3498267 101.9124334  96.2934641   9.7414758
 102.2238457  96.7355505  11.1554985  90.4621347 100.1468606  18.1145640
  91.3824356 100.3247205  18.3085686  90.4270930  99.2024651  17.9625339
  79.6803512  95.3407200   7.0398914  79.3606296  94.4872508   6.7473288
  79.1336940  95.5555778   7.7956882  83.4583419  98.0569641  10.7568421
  83.6769429  98.9886749  10.7756455  83.8709193  97.6977615  11.5423225
  90.3787637  88.5637726   2.7444109  89.5688366  88.2184811   3.1199355
  91.0672054  88.2545270   3.3331721  92.3078186  87.6415773   4.3668406
  92.8609224  88.0611226   5.0258429  92.5448272  86.7151521   4.4091362
  88.3311285  93.6302847  20.1471170  88.2308012  94.5797204  20.0783261
  88.1132827  93.3021085  19.2747240  79.5491772  98.9610111   9.0092036
  78.8555243  98.5464064   8.4961990  80.2964763  99.0030648   8.4125455
  95.6856993  89.7516298   3.8747070  95.1055662  90.4101102   3.4925123
  95.4192925  88.9293643   3.4634488  94.1360559  89.1521356   6.0768391
  94.6360337  89.2637890   5.2682709  94.7796167  88.8482409   6.7169199
  88.1942555  97.0599985  18.9636232  87.7109637  97.8600346  19.1700121
  88.2803494  97.0707930  18.0103676  81.4628514  98.8928365   6.8858051
  81.4399203  98.9916052   5.9339934  81.7729151  99.7393516   7.2075217
  84.1215892 100.9504520  11.0004665  85.0759146 100.9188462  10.9334597
  83.9228416 100.4895144  11.8154891  84.7115274  99.5205636  13.5675463
  85.5308163 100.0149715  13.5910300  84.9852082  98.6037604  13.5393030
  97.8196407  91.9362909   6.6457758  98.5956797  92.4259362   6.9182375
  97.0944541  92.3620964   7.1029627 100.2568965  92.6490529   7.7031698
 100.8513456  92.4086265   6.9925007 100.3295549  91.9297659   8.3305235
  82.4766121 106.4924140   8.0174863  82.3420589 105.7324540   7.4512861
  82.0598183 107.2165039   7.5503652  85.6335247 107.3893457   8.2293306
  85.5167631 108.3338889   8.1271996  84.8127693 107.0867018   8.6179105
  79.9650189  93.8543770  14.2667660  80.6109052  93.3442724  14.7554885
  79.7567340  94.5912452  14.8411085  92.4903581 100.9224617  19.7659801
  93.3594741 101.0965270  19.4046436  92.0110332 101.7419034  19.6435530
  88.4853799  88.1183815   0.0191556  88.4732469  89.0625655   0.1759827
  89.3777221  87.9353960  -0.2748983  86.6589761 108.0421718  11.4449234
  87.5617008 108.0745329  11.7615729  86.4327131 107.1122169  11.4595570
  92.3005919  84.7126591   4.2737493  91.5338314  84.1585078   4.4194175
  92.7116624  84.7848460   5.1351645  84.3047680  91.0011387  18.3642674
  85.1679141  90.6448192  18.5745999  83.7313090  90.6625282  19.0518079
 100.5940702 110.1446236  16.6314118  99.8174036 110.7040156  16.6216982
 101.2331265 110.6303019  17.1528988  97.5848438 110.1071338  16.9947395
  96.9547098 110.7887619  17.2282792  97.4784526 109.9954419  16.0500533
  96.8629180 104.4092104  19.3572646  96.4696126 103.8558302  20.0320290
  97.6795321 104.7202682  19.7479163  99.7797141 105.8249983  16.9492902
 100.5206855 106.4257136  16.8697365 100.0115064 105.0827621  16.3910945
  94.9238479 111.0106350  15.2271132  94.8091995 110.1091607  15.5278231
  94.0682997 111.2570047  14.8755949 101.6048598 105.6073876  14.1740199
 100.9576513 106.3063826  14.0804675 102.3749614 106.0410020  14.5416447
  97.4461758 108.9539716  14.2256294  96.9099115 108.5030454  14.8777891
  96.8578467 109.0885624  13.4826759 101.6137620 112.4728583  17.8124774
 100.9378257 112.3722713  18.4827149 102.4365253 112.3167797  18.2760771
  95.3324896 106.1270661  12.6504274  95.3966222 106.9885492  12.2381672
  95.2692016 105.5144662  11.9176633  94.8077168 108.1993793  16.2977309
  95.4349207 107.8170870  16.9114833  93.9505087 107.9807995  16.6633001
  97.9163271 105.4180645  14.4863864  98.4397673 105.6642942  15.2490173
  97.6975605 106.2500680  14.0667001  92.5582551 111.8038014  14.2650654
  91.8164287 111.9520650  14.8515285  92.2375295 112.0646280  13.4017404
  98.0445225 107.5211699  17.9591228  98.0933381 108.3973822  17.5768998
  98.5867740 106.9789092  17.3862872 100.2744514 108.2743072  14.7137587
  99.4047823 108.5676638  14.4420176 100.5103994 108.8583517  15.4344851
  99.1705039 108.9594764  20.1471170  99.0701766 109.9089121  20.0783261
  98.9526581 108.6313003  19.2747240  99.0336309 112.3891903  18.9636232
  98.5503391 113.1892263  19.1700121  99.1197248 112.3999848  18.0103676
  90.8043943 109.1835688  14.2667660  91.4502807 108.6734642  14.7554885
  90.5961094 109.9204369  14.8411085  95.1441434 106.3303305  18.3642674
  96.0072896 105.9740110  18.5745999  94.5706845 105.9917200  19.0518079
  69.4849055  49.9710460   3.5503939  69.0412909  49.1846839   3.2324844
  70.1466269  50.1589610   2.8847830  71.5830293  50.2513260   1.5785341
  71.5648768  51.0722141   1.0865610  72.5050213  50.1267335   1.8035482
  68.0403347  47.7657389   2.4208849  68.5731684  47.0045678   2.1908157
  67.5117428  47.4731041   3.1633003  72.4946134  46.8909098   3.9736059
  72.3431640  46.6619650   3.0566142  72.4850813  47.8479700   3.9867404
  74.2038341  49.9228221   2.0512541  74.1450887  49.2387441   1.3843124
  74.6057859  50.6647211   1.5993167  74.2055748  47.8867805   0.2826520
  73.3182527  47.5493726   0.4052919  74.7754299  47.1550836   0.5195286
  70.1955585  52.4456091  -0.5954078  70.9083557  53.0803556  -0.6678176
  69.7045613  52.5419957  -1.4114076  69.0956357  43.4914953   4.5370080
  68.4196994  43.3909082   5.2072456  69.9183991  43.3354167   5.0006078
  67.8379140  54.7981880  -1.2272304  68.3897448  54.9613502  -0.4623218
  68.1785334  55.3886318  -1.8992279  72.6890015  49.6243138   4.6276351
  73.2329919  50.2373096   4.1331306  72.1076859  50.1822716   5.1443364
  67.9844952  52.3640362   0.7876351  68.2932078  52.1189509   1.6599050
  68.7820434  52.5687000   0.2995221  76.0118809  49.0839192   3.9637672
  75.2214353  49.0663331   3.4242172  75.7752163  49.6227486   4.7186709
  76.1316684  45.9331658   1.2770401  76.1814689  45.7681666   2.2185923
  76.0230607  45.0658917   0.8868281  77.6334881  48.3528600   1.5212422
  77.3419689  48.7158580   2.3575883  77.0207012  47.6395608   1.3425754
  68.7833839  46.4946893   4.8390946  69.7036849  46.6725492   5.0330993
  68.7483422  45.5502939   4.6870646  70.8116073  47.2702905   6.4905107
  71.6807233  47.4443557   6.1291742  70.3322825  48.0897322   6.3680837
  82.4708549  58.9791531  -4.1049618  83.1086959  58.8598278  -4.8086278
  82.3529392  59.9272375  -4.0461666  79.2798255  58.9318959  -4.1688093
  78.9416767  58.8160023  -5.0567559  80.1488023  58.5310124  -4.1887087
  79.7618038  60.0853811   1.7898112  79.7506679  59.6906609   0.9178616
  79.9238678  59.3519883   2.3831884  72.6849503  62.2805627  -5.3406982
  73.4770795  61.9396451  -5.7560683  72.9246153  62.3900602  -4.4204829
  76.4825299  62.8690922   0.7377296  76.1915165  63.7736553   0.6223962
  77.1182284  62.9107450   1.4521366  77.4081506  60.2467771  -2.6721344
  78.0045078  60.0223793  -3.3864381  77.4656478  59.5052516  -2.0695896
  82.0249817  56.7042985  -7.0296410  82.8112907  56.2862408  -7.3805993
  82.2888522  57.6089077  -6.8614762  87.4258245  56.6418218  -6.1263432
  88.1583416  56.0717435  -5.8925602  86.6697600  56.2539818  -5.6856926
  79.0434364  59.0645459  -8.9300089  78.6792571  58.5376080  -8.2187168
  79.9001480  58.6743928  -9.1033604  84.9483665  50.3539792  -1.6668823
  84.6166990  51.2235203  -1.8907608  84.3529278  50.0376076  -0.9874793
  81.4415184  62.5552338  -2.2672910  81.1415908  63.4577377  -2.3757103
  81.0966244  62.2884521  -1.4151757  74.8927666  59.0066135  -6.2336206
  73.9678162  58.8742349  -6.0258514  75.1412079  59.7860354  -5.7366263
  84.8412328  55.0734878  -4.5875473  83.9329206  55.0050286  -4.8816712
  84.7899924  55.5506823  -3.7593647  72.2536477  58.6499408  -5.3992417
  72.3828858  58.9033887  -4.4853005  71.5733928  59.2427116  -5.7187762
  76.4235964  69.3196658  -9.3001942  76.3459994  70.2704483  -9.2213462
  75.8197608  68.9742531  -8.6427016  78.9153194  56.4924524   3.3559424
  78.1386528  57.0518444   3.3462289  79.5543757  56.9781307   3.8774295
  86.7073975  53.2751316  -2.8097599  86.0648355  53.5683850  -3.4557804
  86.2028903  53.1604237  -2.0044402  77.1699566  59.3009977   2.9177391
  77.9114251  59.8395021   2.6412215  76.4636552  59.9276266   3.0748943
  82.6454906  61.4439117   1.5149553  83.0538262  61.0021528   0.7704185
  81.9232167  60.8691745   1.7683746  78.9985976  56.3811724  -1.1116890
  79.8447171  56.8051138  -0.9682241  78.9384614  55.7245349  -0.4178327
  82.9683721  62.0040308  -4.7298158  82.3392583  62.1686022  -5.4322090
  82.5809383  62.4181918  -3.9587194  86.8472952  62.9394746  -7.3753794
  86.1623991  63.3193647  -7.9256761  86.9316802  63.5490073  -6.6421847
  82.1485421  54.0416093   0.5464283  81.9046353  54.7958153   0.0098559
  82.4245352  54.4201440   1.3811531  84.1023884  60.5854705  -0.7758451
  84.3140779  61.2286465  -1.4524070  84.0553632  59.7517021  -1.2436521
  81.7050113  53.1972526  -3.8721879  80.8434592  53.4953779  -3.5805141
  81.7312548  53.4142924  -4.8040846  78.5211682  61.7414716  -7.4648073
  78.9850028  62.0202419  -8.2543451  78.2568481  60.8398161  -7.6474982
  75.4135764  61.2886198  -4.5268310  75.9837121  61.7173466  -5.1650825
  76.0043875  61.0068782  -3.8284124  75.9060930  56.4549625   3.7192701
  75.2759591  57.1365906   3.9528098  75.7997018  56.3432707   2.7745840
  85.2169712  63.4626660  -2.6036094  86.0387156  63.0606848  -2.8853412
  85.2132115  63.3594895  -1.6519978  78.9826315  63.0110704  -0.4475383
  79.0470748  63.4731111   0.3882789  78.2737239  62.3808069  -0.3193073
  69.4843605  56.3751912  -2.9226384  69.7351644  57.2598922  -2.6568808
  70.0203154  56.1956513  -3.6951292  93.3075705  59.8065409  -6.2551122
  92.5539413  59.2372807  -6.4107118  93.4423246  59.7728073  -5.3080487
  78.6974333  64.6778811 -10.5796403  78.5620008  65.5230347 -10.1511555
  79.2384146  64.8798089 -11.3430469  75.1841673  50.7570391   6.0817952
  74.7908618  50.2036590   6.7565597  76.0007813  51.0680969   6.4724470
  73.9598615  65.3120005  -7.9245724  74.1365244  66.2337970  -8.1124741
  74.7555449  64.9978425  -7.4951345  78.1009634  52.1728270   3.6738209
  78.8419347  52.7735423   3.5942671  78.3327557  51.4305908   3.1156252
  73.2450972  57.3584637   1.9516439  73.1304487  56.4569895   2.2523538
  72.3895490  57.6048334   1.6001255  80.3242810  65.3002378   3.5503939
  79.8806664  64.5138756   3.2324844  80.9860023  65.4881528   2.8847830
  75.0829931  66.8298179  -1.9235382  75.6337356  66.7015243  -2.6958388
  74.2441407  67.1293068  -2.2740489  82.4224048  65.5805178   1.5785341
  82.4042523  66.4014059   1.0865610  83.3443968  65.4559253   1.8035482
  78.8797102  63.0949307   2.4208849  79.4125439  62.3337595   2.1908157
  78.3511183  62.8022959   3.1633003  82.0466797  48.2009373  -2.0497509
  81.7031066  49.0911015  -2.1258399  82.4145759  48.0111031  -2.9127924
  81.1263337  50.5714028  -4.0848276  80.6228133  50.5344163  -4.8980471
  81.4193944  51.4806771  -4.0251619  86.9851354  60.9450339 -11.6071901
  86.2080796  60.6061498 -12.0516739  87.6642835  60.9502962 -12.2816936
  80.2449814  62.2235300 -10.0672339  79.7171176  61.4888059 -10.3799102
  79.7437317  63.0009976 -10.3132371  85.2242660  60.4184320  -4.9505293
  84.5666335  61.1083581  -4.8625164  86.0283060  60.8080752  -4.6071306
  84.0348119  58.7728693  -6.9001351  84.5480001  59.4058685  -6.3979641
  84.6849343  58.1729888  -7.2657991  81.2970494  68.7513017 -14.1440680
  80.6232192  69.0544714 -13.5355722  81.6836315  69.5542097 -14.4935223
  80.5128950  56.2478148  -4.6543010  79.5951511  56.4693095  -4.8121322
  80.9289094  56.3224459  -5.5131303  84.8009915  63.7534694  -8.7722208
  84.3472243  62.9125604  -8.7157018  84.1703882  64.3896093  -8.4347428
  83.7442835  54.6826680  -7.5421541  83.0065592  54.1704066  -7.2111298
  83.9969609  54.2427062  -8.3538264  83.2442855  65.5911191  -7.8372390
  83.5365829  66.1516248  -8.5560025  83.7541475  65.8839752  -7.0819231
  78.1175542  57.7556725  -6.4403581  78.1724152  56.8030562  -6.5161104
  77.3066744  57.9116164  -5.9562282  78.2076480  66.3691542  -6.7478937
  78.1652659  66.5952388  -7.6770405  79.1239179  66.1354917  -6.5993136
  81.6542114  56.8375609   0.1501692  82.0091501  57.0647083   1.0096158
  82.3014245  57.1693986  -0.4721052  87.3839851  59.9594045  -9.1448979
  87.2457749  60.1495641 -10.0727790  87.0276069  60.7213428  -8.6880928
  75.5481977  53.9452141  -3.0651967  76.1881356  53.8040900  -3.7629003
  74.7159507  53.6586654  -3.4413365  87.4109230  62.0270572  -4.1337707
  87.8445737  61.9345861  -3.2854653  88.1240811  62.0028073  -4.7717691
  76.3242281  63.2454571  -6.9516974  77.1182879  62.7504891  -7.1534399
  75.6133973  62.7172434  -7.3149269  81.1437125  65.6272666  -2.6004607
  81.1974147  66.1963603  -1.8326891  80.2751907  65.7974552  -2.9650570
  74.0235519  55.3290223  -1.1180155  74.6958572  55.1207585  -1.7667506
  73.1965305  55.1312309  -1.5574923  88.2724780  62.0694273  -1.6004822
  88.4660670  62.9740084  -1.3545547  88.1725398  61.6101692  -0.7666237
  79.9261091  51.9552164   0.8985505  79.2789006  52.6542113   0.8049982
  80.6962106  52.3888308   1.2661754  83.3339888  62.2201016   3.9736059
  83.1825395  61.9911567   3.0566142  83.3244568  63.1771617   3.9867404
  80.1025225  59.7932929  -1.0417675  81.0317285  59.9444088  -1.2148707
  79.6816255  59.8816949  -1.8969028  78.9013557  63.8183593  -3.2719137
  78.7624642  63.4502377  -2.3993199  78.1128153  64.3331232  -3.4435179
  79.4961709  68.9192689 -11.9293601  79.6713464  68.4480733 -11.1147978
  78.8094497  69.5458456 -11.7012340  80.4518772  63.1965196  -5.8830299
  80.1168604  63.1565966  -4.9872650  79.9522718  62.5309912  -6.3559889
  74.4263016  58.6032826  -0.3577718  74.2882814  57.8713064   0.2433821
  75.3367939  58.5141726  -0.6393530  77.0545316  58.3152785  -0.8694039
  77.7644935  57.6745977  -0.9107420  77.0114625  58.5665680   0.0532142
  85.0432095  65.2520138   2.0512541  84.9844641  64.5679358   1.3843124
  85.4451614  65.9939128   1.5993167  75.7674250  55.3018003   0.9501601
  75.2311607  54.8508741   1.6023197  75.1790959  55.4363912   0.2072065
  74.0622794  72.0682052  -5.1553740  74.3019392  72.7000576  -4.4774722
  73.2191990  71.7170092  -4.8688381  85.0449502  63.2159722   0.2826520
  84.1576281  62.8785644   0.4052919  85.6148053  62.4842753   0.5195286
  71.5013372  54.4374011  -1.9645405  71.4171560  53.8299680  -2.6994995
  70.6796078  54.9283029  -1.9635908  78.5750656  67.8761175  -2.7512236
  78.5020827  68.6816146  -2.2392932  78.1328049  68.0753140  -3.5764215
  78.3640435  67.1132945  -9.2409415  77.5807957  67.6554625  -9.1471190
  79.0633181  67.6306924  -8.8415174  89.5266843  58.6267940  -4.9556918
  89.5156719  59.5092655  -5.3262985  88.6584222  58.2739490  -5.1502381
  81.0349339  67.7748009  -0.5954078  81.7477312  68.4095473  -0.6678176
  80.5439368  67.8711875  -1.4114076  82.7566866  61.6799261  -9.0236786
  81.8223145  61.8000724  -9.1932082  82.9343535  60.7771728  -9.2876776
  86.1439418  57.5216581  -8.4886752  86.6099870  58.3544572  -8.5626449
  86.5946918  57.0561562  -7.7841494  76.0861253  65.5242452   0.2251493
  76.7870712  66.1578935   0.3780887  75.6156368  65.8657184  -0.5352868
  84.2115649  63.8660402 -11.4900600  84.4875493  63.7516996 -10.5806726
  83.3420147  63.4677887 -11.5288427  84.1156080  49.8897168  -4.4495851
  83.2019160  50.1201394  -4.2813644  84.5449182  49.9735612  -3.5981818
  83.8862539  58.0787060  -1.9495957  83.2333989  58.3262967  -2.6043504
  84.2642919  57.2651198  -2.2833479  80.8469713  68.1146753  -7.8467786
  81.0292107  67.2968409  -7.3840034  81.6702699  68.3314445  -8.2842896
  81.1811878  67.0414938 -10.5852738  81.7099645  66.5307392 -11.1982576
  81.4440098  66.7257468  -9.7207205  79.9350112  58.8206871   4.5370080
  79.2590749  58.7201000   5.2072456  80.7577746  58.6646084   5.0006078
  71.6828971  65.0578807  -2.8417404  72.2682408  64.3122495  -2.7089500
  71.4853809  65.3682764  -1.9580740  74.5367626  68.0930055  -7.8254962
  73.8678001  68.5776182  -8.3090922  74.3980496  68.3399275  -6.9111583
  78.6772895  70.1273798  -1.2272304  79.2291203  70.2905420  -0.4623218
  79.0179088  70.7178236  -1.8992279  73.6537388  52.4748948  -0.6250419
  73.7178714  53.3363779  -1.0373021  73.5904508  51.8622950  -1.3578060
  73.1289660  54.5472080   3.0222615  73.7561699  54.1649158   3.6360140
  72.2717579  54.3286282   3.3878308  83.5283769  64.9535056   4.6276351
  84.0723673  65.5665014   4.1331306  82.9470614  65.5114634   5.1443364
  81.8141282  68.0755774  -4.2408621  81.6892421  67.2745513  -4.7497676
  82.4720373  68.5701967  -4.7294651  83.8776190  65.8764794  -2.6129071
  82.9306526  65.7570145  -2.6850745  84.2258963  64.9887292  -2.5302810
  76.2375764  51.7658933   1.2109171  76.7610166  52.0121229   1.9735480
  76.0188097  52.5978967   0.7912308  80.8822624  65.6717510  -6.4124719
  80.7347586  64.7434217  -6.2317149  81.7076117  65.6937601  -6.8967644
  84.4856746  66.4946069  -5.3259846  85.4103293  66.2888930  -5.4635395
  84.3172049  66.2462470  -4.4170505  77.4428309  52.7072628  -1.1041159
  77.1025129  51.9080441  -0.7020479  76.7367315  53.0074339  -1.6764326
  78.0944781  49.7921940  -2.6513836  78.9170850  49.3182418  -2.7734946
  78.3382844  50.5712424  -2.1515150  75.6183359  56.4841061  -4.8421857
  75.4727940  56.7981364  -3.9497576  75.1408563  57.1025961  -5.3950959
  79.3305873  53.9080949  -2.7487840  79.0723651  54.8298020  -2.7503510
  78.7990913  53.5111383  -2.0587376  84.2752062  67.0131736  -9.9697755
  84.4488939  66.4478159 -10.7223902  84.7680953  67.8132631 -10.1518265
  70.0929022  59.0246405  -1.9034196  69.5482490  59.8006213  -1.7713922
  70.9708371  59.3717210  -2.0615075  90.1291453  59.7768159  -8.3507455
  90.5722599  59.0275484  -8.7488332  89.2517963  59.7678295  -8.7333723
  85.2627234  66.3298500 -12.8700857  85.9578139  66.9505193 -12.6513542
  85.6050384  65.4793852 -12.5948479  70.8795043  58.1516301   0.9895961
  70.1376779  58.2998937   1.5760591  70.5587788  58.4124567   0.1262710
  87.1618657  63.7798206 -11.3413526  87.6869981  64.1185479 -12.0664206
  87.0741010  62.8445221 -11.5250391  78.8238706  67.6932280   0.7876351
  79.1325832  67.4481426   1.6599050  79.6214188  67.8978918   0.2995221
  78.8459318  69.8470189  -6.9818273  78.4064308  69.3546568  -6.2885416
  79.5967435  69.3043157  -7.2226197  71.3251657  66.0381730  -6.9793645
  72.1509677  65.7385502  -7.3595001  70.9745709  65.2689353  -6.5303856
  76.2933190  65.3908198  -4.9095971  75.6713200  64.7278903  -5.2093743
  76.9638057  65.4169330  -5.5922323  69.5260262  63.9568057  -6.0204711
  68.6892170  63.5290231  -6.2020710  69.4983908  64.1500500  -5.0833920
  76.3657718  53.8689986   4.6836535  76.4145873  54.7452109   4.3014305
  76.9080232  53.3267379   4.1108178  86.8512563  64.4131110   3.9637672
  86.0608107  64.3955248   3.4242172  86.6145918  64.9519403   4.7186709
  86.9710438  61.2623576   1.2770401  87.0208443  61.0973583   2.2185923
  86.8624362  60.3950835   0.8868281  84.2614201  57.2454504   2.5929707
  85.1624064  57.1060969   2.3013705  84.3362175  57.4108959   3.5327885
  78.5957006  54.6221359   1.4382894  77.7260316  54.9154925   1.1665482
  78.8316487  55.2061804   2.1590157  88.4728635  63.6820518   1.5212422
  88.1813444  64.0450498   2.3575883  87.8600767  62.9687526   1.3425754
  89.6724318  61.2473397  -5.9585008  90.5071209  61.6863201  -5.7947447
  89.8083446  60.7712051  -6.7776762  86.7215824  58.8053132  -0.0107520
  87.1969945  58.9980778  -0.8188668  85.7981389  58.8612318  -0.2564136
  81.2996040  50.8400976  -1.0451686  81.8177984  51.5762003  -1.3705197
  80.9451173  51.1464969  -0.2104927  85.4217493  55.6818892  -1.7779214
  86.3734915  55.7816990  -1.7566990  85.2520943  54.8897161  -1.2681130
  83.4431872  52.7674475  -1.5919813  82.8481804  53.0479488  -2.2873325
  83.1581569  53.2568376  -0.8203072  82.5739362  66.7197402 -12.8317181
  83.5070036  66.6542964 -12.6284305  82.4862575  67.5553669 -13.2902648
  87.9005570  58.9025012  -2.6636915  87.8681890  57.9641013  -2.4777231
  88.5106194  58.9809049  -3.3971090  88.0500059  55.6936055  -2.6178631
  87.5339107  54.9094512  -2.8048703  88.9340007  55.3654772  -2.4532112
  93.7182120  59.9641019  -3.5230878  94.4485509  59.7026307  -2.9623174
  93.1089066  59.2269741  -3.4828810  91.7997417  58.1048881  -2.9256427
  91.0730581  57.9704846  -3.5339935  91.3844704  58.4125710  -2.1199709
  79.6227594  61.8238811   4.8390946  80.5430603  62.0017410   5.0330993
  79.5877177  60.8794856   4.6870646  72.6189666  59.7339846  -2.5186272
  72.8375676  60.6656954  -2.4998239  73.0315440  59.3747820  -1.7331469
  77.4917532  55.3073051   6.8716477  77.3914258  56.2567408   6.8028568
  77.2739074  54.9791290   5.9992547  68.7098019  60.6380316  -4.2662657
  68.0161490  60.2234269  -4.7792703  69.4571010  60.6800853  -4.8629238
  77.3548802  58.7370190   5.6881538  76.8715883  59.5370550   5.8945427
  77.4409741  58.7478135   4.7348982  73.2822139  62.6274725  -2.2750028
  74.2365393  62.5958667  -2.3420096  73.0834663  62.1665349  -1.4599802
  73.8721521  61.1975841   0.2920770  74.6914410  61.6919920   0.3155607
  74.1458329  60.2807809   0.2638337  86.9802654  53.6133114  -6.6296936
  87.7563044  54.1029567  -6.3572319  86.2550788  54.0391169  -6.1725066
  89.4175212  54.3260734  -5.5722995  90.0119703  54.0856470  -6.2829687
  89.4901796  53.6067864  -4.9449459  71.6372368  68.1694345  -5.2579830
  71.5026836  67.4094745  -5.8241832  71.2204430  68.8935244  -5.7251041
  83.6029141  59.1041129 -10.1300985  83.5464343  59.5609681 -10.9693352
  84.1557484  58.3431814 -10.3078142  87.4133947  54.8930861  -9.3050865
  87.1570881  54.4927497  -8.4742658  86.7886815  55.6074655  -9.4300726
  91.7246285  57.6326934  -6.7979574  91.1645843  57.7020124  -6.0248012
  91.1189788  57.4567919  -7.5180078  74.7941494  69.0663662  -5.0461388
  74.6773878  70.0109094  -5.1482697  73.9733940  68.7637223  -4.6575588
  84.6818028  63.7913797 -14.2004795  85.5163632  63.3594996 -14.3827320
  84.5202371  63.6195811 -13.2727900  69.1256435  55.5313975   0.9912967
  69.7715299  55.0212929   1.4800192  68.9173587  56.2682657   1.5656392
  81.6509828  62.5994822   6.4905107  82.5200987  62.7735475   6.1291742
  81.1716579  63.4189239   6.3680837  75.8196008  69.7191923  -1.8305459
  76.7223255  69.7515534  -1.5138964  75.5933378  68.7892374  -1.8159123
  77.5749610  68.4722910  -5.1695380  76.6245241  68.4724772  -5.2831008
  77.8782096  67.7255645  -5.6859346  73.4653926  52.6781592   5.0887981
  74.3285388  52.3218397   5.2991306  72.8919337  52.3395487   5.7763385
  93.3102303  74.3083448  -4.1049618  93.9480713  74.1890196  -4.8086278
  93.1923146  75.2564292  -4.0461666  90.1192010  74.2610876  -4.1688093
  89.7810521  74.1451941  -5.0567559  90.9881778  73.8602042  -4.1887087
  85.9778825  76.1146353  -8.1791202  85.4143691  76.0236290  -8.9474915
  85.8631220  75.2946257  -7.6988710  90.6011793  75.4145728   1.7898112
  90.5900433  75.0198526   0.9178616  90.7632432  74.6811801   2.3831884
  83.5243257  77.6097544  -5.3406982  84.3164549  77.2688369  -5.7560683
  83.7639907  77.7192520  -4.4204829  87.3219054  78.1982840   0.7377296
  87.0308920  79.1028471   0.6223962  87.9576038  78.2399368   1.4521366
  88.2475261  75.5759689  -2.6721344  88.8438833  75.3515711  -3.3864381
  88.3050232  74.8344434  -2.0695896  92.8643572  72.0334902  -7.0296410
  93.6506661  71.6154325  -7.3805993  93.1282276  72.9380994  -6.8614762
  98.2651999  71.9710135  -6.1263432  98.9977171  71.4009352  -5.8925602
  97.5091355  71.5831736  -5.6856926  89.8828119  74.3937377  -8.9300089
  89.5186326  73.8667998  -8.2187168  90.7395235  74.0035846  -9.1033604
  95.7877419  65.6831710  -1.6668823  95.4560744  66.5527120  -1.8907608
  95.1923033  65.3667994  -0.9874793  92.2808939  77.8844255  -2.2672910
  91.9809662  78.7869294  -2.3757103  91.9359998  77.6176439  -1.4151757
  85.7321420  74.3358052  -6.2336206  84.8071917  74.2034266  -6.0258514
  85.9805834  75.1152272  -5.7366263  95.6806083  70.4026796  -4.5875473
  94.7722960  70.3342204  -4.8816712  95.6293678  70.8798741  -3.7593647
  83.0930231  73.9791326  -5.3992417  83.2222613  74.2325805  -4.4853005
  82.4127683  74.5719034  -5.7187762  89.7546948  71.8216441   3.3559424
  88.9780283  72.3810361   3.3462289  90.3937512  72.3073224   3.8774295
  97.5467729  68.6043234  -2.8097599  96.9042109  68.8975767  -3.4557804
  97.0422658  68.4896154  -2.0044402  88.0093321  74.6301895   2.9177391
  88.7508005  75.1686939   2.6412215  87.3030306  75.2568183   3.0748943
  93.4848660  76.7731035   1.5149553  93.8932016  76.3313446   0.7704185
  92.7625922  76.1983663   1.7683746  89.8379730  71.7103642  -1.1116890
  90.6840926  72.1343055  -0.9682241  89.7778368  71.0537266  -0.4178327
  93.8077475  77.3332226  -4.7298158  93.1786338  77.4977940  -5.4322090
  93.4203137  77.7473835  -3.9587194  92.9879176  69.3708010   0.5464283
  92.7440108  70.1250071   0.0098559  93.2639106  69.7493358   1.3811531
  94.9417639  75.9146623  -0.7758451  95.1534534  76.5578382  -1.4524070
  94.8947387  75.0808939  -1.2436521  92.5443868  68.5264443  -3.8721879
  91.6828347  68.8245697  -3.5805141  92.5706302  68.7434842  -4.8040846
  86.2529518  76.6178115  -4.5268310  86.8230875  77.0465384  -5.1650825
  86.8437630  76.3360700  -3.8284124  88.2974323  73.1929786 -10.6558508
  88.9998366  73.6450830 -10.1884582  87.9654952  72.5513605 -10.0278615
  86.7454685  71.7841543   3.7192701  86.1153345  72.4657824   3.9528098
  86.6390772  71.6724624   2.7745840  82.0399657  71.4513339  -5.3541374
  81.2498711  71.7070867  -5.8301264  82.5310904  72.2661677  -5.2489334
  96.0563467  78.7918578  -2.6036094  96.8780910  78.3898765  -2.8853412
  96.0525869  78.6886812  -1.6519978  83.9914402  71.8157918  -8.3957898
  83.1945566  71.9276612  -7.8774402  83.7639995  72.1544570  -9.2617007
  89.8220070  78.3402621  -0.4475383  89.8864502  78.8023029   0.3882789
  89.1130994  77.7099986  -0.3193073  80.3237360  71.7043829  -2.9226384
  80.5745398  72.5890839  -2.6568808  80.8596908  71.5248431  -3.6951292
  86.0235427  66.0862309   6.0817952  85.6302373  65.5328507   6.7565597
  86.8401568  66.3972887   6.4724470  82.9897485  77.5246167 -10.0068478
  83.5022006  78.3189417  -9.8562913  83.6420198  76.8272457 -10.0734876
  88.9403388  67.5020188   3.6738209  89.6813102  68.1027341   3.5942671
  89.1721311  66.7597826   3.1156252  84.0844726  72.6876555   1.9516439
  83.9698241  71.7861812   2.2523538  83.2289244  72.9340252   1.6001255
  91.1636564  80.6294295   3.5503939  90.7200418  79.8430674   3.2324844
  91.8253778  80.8173446   2.8847830  85.9223685  82.1590097  -1.9235382
  86.4731110  82.0307160  -2.6958388  85.0835161  82.4584986  -2.2740489
  93.2617802  80.9097095   1.5785341  93.2436277  81.7305976   1.0865610
  94.1837722  80.7851170   1.8035482  89.7190856  78.4241225   2.4208849
  90.2519193  77.6629513   2.1908157  89.1904937  78.1314877   3.1633003
  92.8860551  63.5301291  -2.0497509  92.5424821  64.4202932  -2.1258399
  93.2539514  63.3402948  -2.9127924  80.9546402  75.8534821  -9.2308907
  81.7921624  76.2631830  -9.4475199  81.1324669  74.9134263  -9.2608713
  90.4357945  68.3659603  -8.4839836  89.5799541  67.9766453  -8.6634197
  90.8484897  68.4451563  -9.3440050  91.9657092  65.9005946  -4.0848276
  91.4621887  65.8636081  -4.8980471  92.2587698  66.8098689  -4.0251619
  88.2099977  65.9844676  -5.0782094  89.0752974  65.7887484  -5.4376205
  88.2777486  65.7555027  -4.1512738  96.0636415  75.7476238  -4.9505293
  95.4060089  76.4375499  -4.8625164  96.8676814  76.1372670  -4.6071306
  85.8162297  68.2146883  -7.7065728  86.3906048  67.9922065  -8.4392535
  86.4033279  68.2835578  -6.9537126  94.8741874  74.1020610  -6.9001351
  95.3873755  74.7350602  -6.3979641  95.5243098  73.5021806  -7.2657991
  88.1184964  65.0888132  -8.9790658  87.4649377  64.7737150  -9.6034043
  88.0765438  64.4663873  -8.2530835  91.3522705  71.5770066  -4.6543010
  90.4345266  71.7985013  -4.8121322  91.7682848  71.6516376  -5.5131303
  94.5836590  70.0118598  -7.5421541  93.8459346  69.4995984  -7.2111298
  94.8363363  69.5718979  -8.3538264  94.6848217  62.7894850  -6.9479772
  94.9907094  61.9292213  -7.2353857  95.4100822  63.3812470  -7.1480778
  80.9772573  73.1925536  -8.5598174  80.7796973  72.5994897  -9.2847107
  80.4219237  72.8877747  -7.8422235  88.9569297  73.0848643  -6.4403581
  89.0117906  72.1322479  -6.5161104  88.1460499  73.2408082  -5.9562282
  86.8961657  71.7025703  -8.6813202  86.0829522  72.0019873  -8.2748010
  87.3920651  71.3081391  -7.9638719  92.4935868  72.1667527   0.1501692
  92.8485256  72.3939000   1.0096158  93.1407999  72.4985904  -0.4721052
  86.3875731  69.2744058  -3.0651967  87.0275111  69.1332817  -3.7629003
  85.5553262  68.9878572  -3.4413365  87.1636035  78.5746489  -6.9516974
  87.9576634  78.0796809  -7.1534399  86.4527728  78.0464352  -7.3149269
  91.9830880  80.9564584  -2.6004607  92.0367902  81.5255520  -1.8326891
  91.1145661  81.1266469  -2.9650570  83.4718799  72.7189570 -10.8757222
  82.5416387  72.6574026 -10.6587259  83.5676271  72.1965523 -11.6720580
  83.3904348  69.2444383  -8.2878980  83.6511165  70.1589716  -8.3969819
  84.2121520  68.7768826  -8.1382367  84.8629273  70.6582140  -1.1180155
  85.5352326  70.4499502  -1.7667506  84.0359060  70.4604226  -1.5574923
  99.1118534  77.3986191  -1.6004822  99.3054424  78.3032001  -1.3545547
  99.0119152  76.9393610  -0.7666237  90.7654845  67.2844081   0.8985505
  90.1182760  67.9834031   0.8049982  91.5355860  67.7180225   1.2661754
  94.1733643  77.5492933   3.9736059  94.0219149  77.3203485   3.0566142
  94.1638322  78.5063535   3.9867404  90.9418979  75.1224846  -1.0417675
  91.8711039  75.2736006  -1.2148707  90.5210009  75.2108867  -1.8969028
  89.7407311  79.1475511  -3.2719137  89.6018397  78.7794295  -2.3993199
  88.9521907  79.6623150  -3.4435179  91.2912526  78.5257113  -5.8830299
  90.9562359  78.4857883  -4.9872650  90.7916472  77.8601829  -6.3559889
  85.2656770  73.9324743  -0.3577718  85.1276568  73.2004982   0.2433821
  86.1761694  73.8433643  -0.6393530  87.8939071  73.6444703  -0.8694039
  88.6038689  73.0037895  -0.9107420  87.8508379  73.8957598   0.0532142
  95.8825850  80.5812056   2.0512541  95.8238396  79.8971276   1.3843124
  96.2845368  81.3231046   1.5993167  86.6068005  70.6309921   0.9501601
  86.0705362  70.1800659   1.6023197  86.0184713  70.7655829   0.2072065
  95.8843257  78.5451640   0.2826520  94.9970036  78.2077562   0.4052919
  96.4541808  77.8134671   0.5195286  77.5372404  74.8775732  -6.3930428
  78.2243444  74.5637462  -6.9809413  77.3820533  75.7817096  -6.6663177
  82.3407126  69.7665928  -1.9645405  82.2565315  69.1591598  -2.6994995
  81.5189833  70.2574947  -1.9635908  89.4144410  83.2053092  -2.7512236
  89.3414582  84.0108064  -2.2392932  88.9721803  83.4045058  -3.5764215
  92.5130840  68.2519492  -6.5975210  93.0099540  67.4989454  -6.9174139
  91.7417822  68.2883808  -7.1632000  91.8743094  83.1039926  -0.5954078
  92.5871066  83.7387391  -0.6678176  91.3833122  83.2003792  -1.4114076
  89.0965809  70.3936875  -6.8703525  88.7263596  69.8407915  -6.1822619
  89.5924901  69.7895008  -7.4228525  86.9255007  80.8534370   0.2251493
  87.6264467  81.4870853   0.3780887  86.4550122  81.1949101  -0.5352868
  94.9549835  65.2189085  -4.4495851  94.0412915  65.4493312  -4.2813644
  95.3842936  65.3027529  -3.5981818  94.7256293  73.4078977  -1.9495957
  94.0727744  73.6554885  -2.6043504  95.1036673  72.5943115  -2.2833479
  90.7743866  74.1498788   4.5370080  90.0984503  74.0492918   5.2072456
  91.5971500  73.9938002   5.0006078  82.5222725  80.3870725  -2.8417404
  83.1076162  79.6414413  -2.7089500  82.3247564  80.6974682  -1.9580740
  77.1140380  72.9576325  -4.1212961  77.1524480  72.4239916  -3.3275843
  76.6080673  72.4311531  -4.7401984  89.5166649  85.4565716  -1.2272304
  90.0684957  85.6197337  -0.4623218  89.8572843  86.0470154  -1.8992279
  84.4931142  67.8040866  -0.6250419  84.5572469  68.6655696  -1.0373021
  84.4298263  67.1914867  -1.3578060  83.9683415  69.8763998   3.0222615
  84.5955454  69.4941075   3.6360140  83.1111334  69.6578200   3.3878308
  94.3677524  80.2826973   4.6276351  94.9117428  80.8956932   4.1331306
  93.7864368  80.8406552   5.1443364  80.7448958  71.6840427 -11.0459030
  81.0402399  70.7751106 -11.0991976  79.8436993  71.6628167 -11.3678027
  84.2743205  69.7596424  -5.0631481  83.5529790  70.3732391  -5.2024008
  85.0636460  70.2954189  -5.1414835  94.7169945  81.2056711  -2.6129071
  93.7700280  81.0862063  -2.6850745  95.0652718  80.3179209  -2.5302810
  87.0769518  67.0950850   1.2109171  87.6003920  67.3413147   1.9735480
  86.8581852  67.9270885   0.7912308  82.4736799  69.3654525 -10.9219705
  82.1449505  68.4851904 -11.1044599  82.8276170  69.3102194 -10.0343315
  85.5878622  69.6527495 -10.5544227  85.9274695  70.1813416 -11.2765619
  86.0350743  69.9907901  -9.7785660  88.2822063  68.0364545  -1.1041159
  87.9418884  67.2372358  -0.7020479  87.5761070  68.3366256  -1.6764326
  88.9338535  65.1213858  -2.6513836  89.7564604  64.6474336  -2.7734946
  89.1776599  65.9004342  -2.1515150  87.5746770  68.1502116 -12.3550934
  88.2955132  68.5283369 -12.8587217  86.9512074  68.8690993 -12.2515956
  86.4577114  71.8132978  -4.8421857  86.3121695  72.1273282  -3.9497576
  85.9802317  72.4317879  -5.3950959  88.3173497  68.8035526  -4.7940968
  88.3035066  67.9076620  -5.1308670  89.0345925  68.8106190  -4.1602682
  90.1699627  69.2372867  -2.7487840  89.9117405  70.1589937  -2.7503510
  89.6384668  68.8403301  -2.0587376  80.9322776  74.3538323  -1.9034196
  80.3876244  75.1298131  -1.7713922  81.8102126  74.7009127  -2.0615075
  87.7210393  67.6849907  -9.5253398  87.8426304  66.7566553  -9.3262510
  87.4312435  67.6988593 -10.4375082  90.5901583  65.3704817  -6.3886678
  90.6123280  65.4344150  -7.3434698  91.0069642  64.5309326  -6.1946172
  81.7188798  73.4808219   0.9895961  80.9770534  73.6290854   1.5760591
  81.3981542  73.7416485   0.1262710  89.6632461  83.0224197   0.7876351
  89.9719587  82.7773344   1.6599050  90.4607943  83.2270836   0.2995221
  82.1645412  81.3673648  -6.9793645  82.9903431  81.0677420  -7.3595001
  81.8139464  80.5981270  -6.5303856  87.1326945  80.7200116  -4.9095971
  86.5106954  80.0570821  -5.2093743  87.8031812  80.7461248  -5.5922323
  80.3654017  79.2859974  -6.0204711  79.5285925  78.8582149  -6.2020710
  80.3377662  79.4792418  -5.0833920  87.2051472  69.1981904   4.6836535
  87.2539628  70.0744027   4.3014305  87.7473986  68.6559297   4.1108178
  97.6906318  79.7423027   3.9637672  96.9001862  79.7247166   3.4242172
  97.4539672  80.2811321   4.7186709  97.8104193  76.5915494   1.2770401
  97.8602198  76.4265501   2.2185923  97.7018116  75.7242753   0.8868281
  95.1007955  72.5746422   2.5929707  96.0017818  72.4352887   2.3013705
  95.1755930  72.7400877   3.5327885  89.4350761  69.9513276   1.4382894
  88.5654070  70.2446843   1.1665482  89.6710241  70.5353721   2.1590157
  99.3122390  79.0112435   1.5212422  99.0207198  79.3742416   2.3575883
  98.6994521  78.2979444   1.3425754  97.5609578  74.1345050  -0.0107520
  98.0363700  74.3272696  -0.8188668  96.6375143  74.1904236  -0.2564136
  92.1389795  66.1692893  -1.0451686  92.6571738  66.9053920  -1.3705197
  91.7844927  66.4756887  -0.2104927  83.7188732  71.0297575 -12.9290280
  83.0257977  71.1041930 -13.5850244  83.4740484  70.2657918 -12.4068763
  92.3902389  62.5893176  -5.5250789  92.6704142  61.9216365  -4.8990363
  93.1752996  62.7822272  -6.0376126  96.2611247  71.0110810  -1.7779214
  97.2128670  71.1108908  -1.7566990  96.0914697  70.2189078  -1.2681130
  94.2825626  68.0966393  -1.5919813  93.6875559  68.3771406  -2.2873325
  93.9975323  68.5860294  -0.8203072  98.7399325  74.2316930  -2.6636915
  98.7075645  73.2932930  -2.4777231  99.3499948  74.3100966  -3.3971090
  98.8893813  71.0227973  -2.6178631  98.3732862  70.2386430  -2.8048703
  99.7733762  70.6946690  -2.4532112  96.5504540  64.7668989  -6.6582819
  96.3529361  64.4584077  -5.7739487  97.1604246  65.4930628  -6.5284889
 102.6391172  73.4340799  -2.9256427 101.9124335  73.2996764  -3.5339935
 102.2238459  73.7417628  -2.1199709  90.4621348  77.1530729   4.8390946
  91.3824358  77.3309328   5.0330993  90.4270931  76.2086774   4.6870646
  79.6803513  72.3469322  -6.2355779  79.3606298  71.4934631  -6.5281405
  79.1336941  72.5617901  -5.4797812  83.4583421  75.0631763  -2.5186272
  83.6769431  75.9948871  -2.4998239  83.8709195  74.7039738  -1.7331469
  90.3787639  65.5699849 -10.5310584  89.5688367  65.2246934 -10.1555338
  91.0672055  65.2607392  -9.9422972  92.3078187  64.6477896  -8.9086287
  92.8609225  65.0673349  -8.2496264  92.5448273  63.7213644  -8.8663331
  88.3311286  70.6364969   6.8716477  88.2308013  71.5859326   6.8028568
  88.1132828  70.3083208   5.9992547  79.5491773  75.9672234  -4.2662657
  78.8555245  75.5526187  -4.7792703  80.2964764  76.0092770  -4.8629238
  95.6856994  66.7578421  -9.4007623  95.1055663  67.4163225  -9.7829571
  95.4192927  65.9355765  -9.8120206  94.1360560  66.1583478  -7.1986303
  94.6360339  66.2700013  -8.0071984  94.7796168  65.8544531  -6.5585494
  88.1942556  74.0662108   5.6881538  87.7109638  74.8662468   5.8945427
  88.2803495  74.0770053   4.7348982  81.4628516  75.8990488  -6.3896642
  81.4399204  75.9978175  -7.3414759  81.7729152  76.7455638  -6.0679476
  84.1215894  77.9566643  -2.2750028  85.0759147  77.9250585  -2.3420096
  83.9228417  77.4957266  -1.4599802  84.7115276  76.5267759   0.2920770
  85.5308165  77.0211837   0.3155607  84.9852083  75.6099727   0.2638337
  97.8196408  68.9425032  -6.6296936  98.5956798  69.4321484  -6.3572319
  97.0944542  69.3683086  -6.1725066 100.2568967  69.6552651  -5.5722995
 100.8513458  69.4148387  -6.2829687 100.3295550  68.9359782  -4.9449459
  82.4766122  83.4986262  -5.2579830  82.3420590  82.7386663  -5.8241832
  82.0598185  84.2227162  -5.7251041  85.6335248  84.3955579  -5.0461388
  85.5167632  85.3401012  -5.1482697  84.8127695  84.0929141  -4.6575588
  79.9650190  70.8605893   0.9912967  80.6109054  70.3504847   1.4800192
  79.7567341  71.5974574   1.5656392  92.4903582  77.9286740   6.4905107
  93.3594742  78.1027392   6.1291742  92.0110334  78.7481157   6.3680837
  88.4853800  65.1245937 -13.2563137  88.4732470  66.0687777 -13.0994866
  89.3777222  64.9416083 -13.5503676  86.6589762  85.0483841  -1.8305459
  87.5617009  85.0807451  -1.5138964  86.4327132  84.1184292  -1.8159123
  92.3005920  61.7188714  -9.0017200  91.5338316  61.1647201  -8.8560518
  92.7116625  61.7910583  -8.1403049  84.3047681  68.0073510   5.0887981
  85.1679143  67.6510315   5.2991306  83.7313092  67.6687404   5.7763385
 100.5940703  87.1508359   3.3559424  99.8174037  87.7102279   3.3462289
 101.2331266  87.6365142   3.8774295  97.5848439  87.1133460   3.7192701
  96.9547100  87.7949741   3.9528098  97.4784527  87.0016542   2.7745840
  96.8629182  81.4154226   6.0817952  96.4696127  80.8620425   6.7565597
  97.6795322  81.7264805   6.4724470  99.7797143  82.8312105   3.6738209
 100.5206856  83.4319259   3.5942671 100.0115066  82.0889743   3.1156252
  94.9238481  88.0168473   1.9516439  94.8091996  87.1153730   2.2523538
  94.0682999  88.2632169   1.6001255 101.6048600  82.6135999   0.8985505
 100.9576515  83.3125949   0.8049982 102.3749615  83.0472143   1.2661754
  97.4461759  85.9601838   0.9501601  96.9099116  85.5092577   1.6023197
  96.8578468  86.0947747   0.2072065 101.6137621  89.4790706   4.5370080
 100.9378258  89.3784835   5.2072456 102.4365255  89.3229920   5.0006078
  95.3324897  83.1332783  -0.6250419  95.3966223  83.9947614  -1.0373021
  95.2692017  82.5206785  -1.3578060  94.8077169  85.2055916   3.0222615
  95.4349208  84.8232993   3.6360140  93.9505088  84.9870118   3.3878308
  97.9163273  82.4242768   1.2109171  98.4397675  82.6705064   1.9735480
  97.6975606  83.2562803   0.7912308  92.5582552  88.8100137   0.9895961
  91.8164288  88.9582772   1.5760591  92.2375297  89.0708402   0.1262710
  98.0445227  84.5273822   4.6836535  98.0933382  85.4035945   4.3014305
  98.5867741  83.9851215   4.1108178 100.2744515  85.2805194   1.4382894
  99.4047825  85.5738760   1.1665482 100.5103996  85.8645639   2.1590157
  99.1705041  85.9656887   6.8716477  99.0701767  86.9151244   6.8028568
  98.9526583  85.6375126   5.9992547  99.0336311  89.3954026   5.6881538
  98.5503392  90.1954386   5.8945427  99.1197250  89.4061971   4.7348982
  90.8043944  86.1897810   0.9912967  91.4502808  85.6796764   1.4800192
  90.5961096  86.9266492   1.5656392  95.1441435  83.3365427   5.0887981
  96.0072897  82.9802232   5.2991306  94.5706846  82.9979322   5.7763385
  91.1636565  57.6356418  -9.7250754  90.7200419  56.8492796 -10.0429850
  91.8253779  57.8235568 -10.3906863  93.2617803  57.9159218 -11.6969353
  93.2436279  58.7368099 -12.1889084  94.1837723  57.7913293 -11.4719212
  89.7190857  55.4303347 -10.8545844  90.2519194  54.6691636 -11.0846536
  89.1904939  55.1376999 -10.1121690  94.1733644  54.5555056  -9.3018635
  94.0219151  54.3265608 -10.2188551  94.1638324  55.5125657  -9.2887290
  95.8825851  57.5874179 -11.2242153  95.8238397  56.9033399 -11.8911570
  96.2845369  58.3293169 -11.6761527  95.8843258  55.5513763 -12.9928173
  94.9970037  55.2139684 -12.8701774  96.4541809  54.8196794 -12.7559408
  91.8743095  60.1102049 -13.8708771  92.5871067  60.7449514 -13.9432870
  91.3833124  60.2065915 -14.6868769  90.7743868  51.1560911  -8.7384613
  90.0984505  51.0555040  -8.0682238  91.5971501  51.0000125  -8.2748616
  89.5166650  62.4627838 -14.5026997  90.0684959  62.6259460 -13.7377912
  89.8572844  63.0532276 -15.1746972  94.3677525  57.2889096  -8.6478343
  94.9117429  57.9019054  -9.1423388  93.7864370  57.8468674  -8.1311330
  89.6632462  60.0286320 -12.4878343  89.9719588  59.7835467 -11.6155643
  90.4607944  60.2332958 -12.9759472  97.6906319  56.7485150  -9.3117021
  96.9001863  56.7309289  -9.8512522  97.4539674  57.2873444  -8.5567985
  97.8104194  53.5977616 -11.9984293  97.8602199  53.4327624 -11.0568770
  97.7018118  52.7304875 -12.3886412  99.3122391  56.0174558 -11.7542271
  99.0207199  56.3804538 -10.9178810  98.6994522  55.3041566 -11.9328939
  90.4621349  54.1592851  -8.4363747  91.3824359  54.3371450  -8.2423700
  90.4270932  53.2148897  -8.5884048  92.4903583  54.9348863  -6.7849586
  93.3594743  55.1089515  -7.1462951  92.0110335  55.7543280  -6.9073857
 100.5940704  64.1570482  -9.9195269  99.8174038  64.7164402  -9.9292404
 101.2331267  64.6427265  -9.3980399  97.5848440  64.1195583  -9.5561992
  96.9547101  64.8011864  -9.3226595  97.4784528  64.0078665 -10.5008854
  96.8629183  58.4216349  -7.1936741  96.4696129  57.8682547  -6.5189097
  97.6795323  58.7326927  -6.8030223  99.7797144  59.8374228  -9.6016484
 100.5206857  60.4381381  -9.6812022 100.0115067  59.0951866 -10.1598442
  94.9238482  65.0230595 -11.3238255  94.8091997  64.1215853 -11.0231156
  94.0683000  65.2694292 -11.6753438 101.6048601  59.6198122 -12.3769188
 100.9576516  60.3188071 -12.4704711 102.3749616  60.0534265 -12.0092940
  97.4461761  62.9663961 -12.3253092  96.9099118  62.5154699 -11.6731496
  96.8578469  63.1009870 -13.0682628 101.6137622  66.4852829  -8.7384613
 100.9378259  66.3846958  -8.0682238 102.4365256  66.3292042  -8.2748616
  95.3324898  60.1394906 -13.9005112  95.3966225  61.0009737 -14.3127715
  95.2692018  59.5268907 -14.6332754  94.8077171  62.2118038 -10.2532078
  95.4349210  61.8295116  -9.6394554  93.9505090  61.9932240  -9.8876385
  97.9163274  59.4304891 -12.0645523  98.4397676  59.6767187 -11.3019213
  97.6975607  60.2624925 -12.4842385  92.5582554  65.8162259 -12.2858733
  91.8164290  65.9644895 -11.6994102  92.2375298  66.0770525 -13.1491983
  98.0445228  61.5335944  -8.5918158  98.0933383  62.4098067  -8.9740389
  98.5867742  60.9913337  -9.1646515 100.2744516  62.2867317 -11.8371800
  99.4047826  62.5800883 -12.1089211 100.5103997  62.8707762 -11.1164536
  99.1705042  62.9719009  -6.4038217  99.0701769  63.9213366  -6.4726126
  98.9526584  62.6437248  -7.2762147  99.0336312  66.4016148  -7.5873155
  98.5503394  67.2016508  -7.3809266  99.1197251  66.4124093  -8.5405711
  90.8043946  63.1959933 -12.2841727  91.4502809  62.6858887 -11.7954501
  90.5961097  63.9328615 -11.7098301  95.1441437  60.3427550  -8.1866712
  96.0072898  59.9864355  -7.9763388  94.5706847  60.0041445  -7.4991308
   6.5925662 121.1233085  73.3977035   5.8389370 120.5540483  73.2421039
   6.7273203 121.0895749  74.3447670   0.6959187 123.3438248  75.5190450
   1.1295693 123.2513538  76.3673504   1.4090767 123.3195749  74.8810466
   1.5574736 123.3861949  78.0523335   1.7510626 124.2907760  78.2982610
   1.4575355 122.9269368  78.8861920   2.8116799 119.9435616  74.6971239
   2.8006676 120.8260331  74.3265172   1.9434179 119.5907167  74.5025776
   3.4141409 121.0935835  71.3020702   3.8572555 120.3443160  70.9039825
   2.5367920 121.0845971  70.9194434   0.4468614 125.0965882  68.3114631
   0.9719938 125.4353155  67.5863951   0.3590966 124.1612897  68.1277766
   1.7578592 124.9988194  81.1740579   1.4663400 125.3618174  82.0104040
   1.1450723 124.2855202  80.9953911   2.9574274 122.5641073  73.6943149
   3.7921166 123.0030877  73.8580710   3.0933403 122.0879727  72.8751395
   1.1855527 120.2192688  76.9891243   1.1531847 119.2808689  77.1750926
   1.7956150 120.2976725  76.2557067   1.3350015 117.0103731  77.0349526
   0.8189064 116.2262188  76.8479455   2.2189964 116.6822448  77.1996045
   7.0032077 121.2808695  76.1297279   7.7335465 121.0193983  76.6904983
   6.3939022 120.5437417  76.1699347   5.0847374 119.4216557  76.7271731
   4.3580537 119.2872522  76.1188222   4.6694661 119.7293386  77.5328449
   2.7025169 115.6428410  74.0805162   3.2969660 115.4024146  73.3698470
   2.7751752 114.9235540  74.7078698   5.0096241 118.9494610  72.8548583
   4.4495799 119.0187800  73.6280145   4.4039745 118.7735595  72.1348080
   9.0727376 126.9999386  77.9859334   8.7410701 127.8694797  77.7620549
   8.4772989 126.6835670  78.6653365   6.1710508 124.8468967  77.6030648
   5.8274777 125.7370608  77.5269758   6.5389470 124.6570624  76.7400233
   5.2507048 127.2173622  75.5679881   4.7471844 127.1803757  74.7547686
   5.5437655 128.1266365  75.6276538   1.4034921 126.4055808  70.6737499
   0.7499333 126.0904826  70.0494114   1.3615395 125.7831549  71.3997322
   7.9698173 124.1062526  72.7048385   8.2757050 123.2459889  72.4174301
   8.6950778 124.6980146  72.5047379   8.2399791 126.5356761  75.2032306
   7.3262871 126.7660988  75.3714513   8.6692893 126.6195205  76.0546339
   2.2188492 126.4381534  77.0014321   3.0414561 125.9642012  76.8793212
   2.4626555 127.2172018  77.5013007   3.8751540 126.6872493  73.2641479
   3.8973236 126.7511826  72.3093459   4.2919599 125.8477002  73.4581986
   5.4239751 127.4860569  78.6076471   5.9421695 128.2221596  78.2822960
   5.0694884 127.7924563  79.4423230   5.6752345 123.9060852  74.1277368
   5.9554099 123.2384041  74.7537794   6.4602952 124.0989948  73.6152032
   9.8354497 126.0836665  72.9945338   9.6379318 125.7751753  73.8788670
  10.4454202 126.8098304  73.1243268   3.6637595 126.8867525  69.1217573
   2.8538323 126.5414610  69.4972819   4.3522012 126.5775068  69.7105185
   5.5928143 125.9645572  70.7441870   6.1459182 126.3841025  71.4031893
   5.8298230 125.0381320  70.7864826   8.9706950 128.0746097  70.2520534
   8.3905620 128.7330901  69.8698586   8.7042883 127.2523441  69.8407951
   7.4210517 127.4751154  72.4541854   7.9210295 127.5867689  71.6456173
   8.0646125 127.1712207  73.0942663  13.5418923 130.9720327  74.0805162
  14.1363414 130.7316063  73.3698470  13.6145507 130.2527458  74.7078698
   5.5855876 123.0356390  70.6510957   4.8188272 122.4814877  70.7967639
   5.9966581 123.1078259  71.5125108   6.5925663  98.1295207  60.1222342
   5.8389371  97.5602606  59.9666346   6.7273204  98.0957872  61.0692976
   0.6959188 100.3500371  62.2435756   1.1295695 100.2575660  63.0918811
   1.4090769 100.3257871  61.6055772   1.5574738 100.3924072  64.7768642
   1.7510628 101.2969882  65.0227917   1.4575356  99.9331491  65.6107227
   2.8116801  96.9497738  61.4216546   2.8006677  97.8322454  61.0510479
   1.9434180  96.5969289  61.2271083   3.4141411  98.0997958  58.0266009
   3.8572557  97.3505283  57.6285132   2.5367921  98.0908094  57.6439741
   0.4468615 102.1028005  55.0359938   0.9719939 102.4415277  54.3109258
   0.3590968 101.1675020  54.8523072   1.7578593 102.0050316  67.8985886
   1.4663401 102.3680297  68.7349347   1.1450724 101.2917324  67.7199218
   2.9574275  99.5703196  60.4188456   3.7921167 100.0093000  60.5826016
   3.0933404  99.0941849  59.5996702   1.1855528  97.2254811  63.7136549
   1.1531848  96.2870811  63.8996233   1.7956152  97.3038847  62.9802374
   1.3350017  94.0165854  63.7594832   0.8189065  93.2324311  63.5724761
   2.2189965  93.6884571  63.9241352   7.0032078  98.2870817  62.8542586
   7.7335466  98.0256106  63.4150289   6.3939023  97.5499539  62.8944654
   5.0847375  96.4278680  63.4517037   4.3580539  96.2934645  62.8433529
   4.6694662  96.7355509  64.2573755   2.7025170  92.6490532  60.8050469
   3.2969661  92.4086268  60.0943777   2.7751754  91.9297663  61.4324005
   5.0096243  95.9556733  59.5793890   4.4495801  96.0249922  60.3525452
   4.4039746  95.7797718  58.8593386   6.5952261 112.6313247  62.2723846
   7.2330671 112.5119994  61.5687186   6.4773104 113.5794091  62.3311798
   3.4041967 112.5840675  62.2085370   3.0660479 112.4681740  61.3205905
   4.2731736 112.1831840  62.1886376   3.8861750 113.7375527  68.1671576
   3.8750391 113.3428325  67.2952080   4.0482390 113.0041599  68.7605347
   4.8428342 118.1047119  53.5096726   4.1916322 118.6901200  53.1230740
   5.6372705 118.6353314  53.5691764   1.5325218 113.8989487  63.7052120
   2.1288791 113.6745510  62.9909082   1.5900190 113.1574233  64.3077567
   6.1493530 110.3564701  59.3477054   6.9356619 109.9384124  58.9967471
   6.4132234 111.2610793  59.5158702   6.3203607 115.7937551  54.0465711
   5.6849440 115.8672178  54.7586615   5.9901013 116.3831150  53.3684790
  11.5501957 110.2939934  60.2510032  12.2827129 109.7239151  60.4847862
  10.7941313 109.9061534  60.6916538   0.8246536 113.2557028  53.7426685
   0.7082794 112.5801932  54.4107770   0.9348796 112.7689402  52.9258838
   3.1678077 112.7167176  57.4473375   2.8036284 112.1897797  58.1586296
   4.0245192 112.3265645  57.2739860   9.0727377 104.0061508  64.7104641
   8.7410702 104.8756919  64.4865856   8.4772991 103.6897792  65.3898671
   2.8083564 107.7457075  52.4434723   2.9757966 108.6137312  52.8105194
   2.6180733 107.9084357  51.5196012   5.5658897 116.2074054  64.1100554
   5.2659620 117.1099093  64.0016361   5.2209956 115.9406237  64.9621706
   8.9656040 108.7256594  61.7897991   8.0572918 108.6572003  61.4956752
   8.9143636 109.2028539  62.6179816   2.7872784 110.2014733  53.4281390
   2.6672410 110.6471783  54.2666870   2.0925373 110.5500050  52.8694928
   3.0396906 110.1446240  69.7332888   2.2630240 110.7040160  69.7235753
   3.6787469 110.6303023  70.2547758  10.8317687 106.9273033  63.5675865
  10.1892067 107.2205566  62.9215659  10.3272615 106.8125953  64.3729061
   8.4857851 110.6736206  54.2561724   9.3975707 110.9063593  54.0809422
   7.9767498 111.2573250  53.6936803   1.2943279 112.9531693  69.2950855
   2.0357963 113.4916737  69.0185679   0.5880264 113.5797982  69.4522407
   6.7698618 115.0960834  67.8923017   7.1781974 114.6543244  67.1477649
   6.0475880 114.5213461  68.1457210   3.1229688 110.0333441  65.2656574
   3.9690883 110.4572854  65.4091223   3.0628326 109.3767065  65.9595137
   7.0927433 115.6562024  61.6475306   6.4636295 115.8207738  60.9451373
   6.7053095 116.0703634  62.4186270  10.9716665 116.5916462  59.0019669
  10.2867703 116.9715364  58.4516703  11.0560514 117.2011789  59.7351617
   6.2729134 107.6937809  66.9237747   6.0290065 108.4479869  66.3872023
   6.5489064 108.0723156  67.7584994   8.2267596 114.2376421  65.6015013
   8.4384492 114.8808181  64.9249394   8.1797345 113.4038738  65.1336943
   5.8293825 106.8494242  62.5051585   4.9678304 107.1475495  62.7968323
   5.8556260 107.0664641  61.5732618   2.6455395 115.3936432  58.9125391
   3.1093740 115.6724135  58.1230013   2.3812193 114.4919877  58.7298481
   1.5824281 111.5159585  55.7214956   2.2848324 111.9680628  56.1888882
   1.2504909 110.8743404  56.3494849   9.3413424 117.1148377  63.7737370
  10.1630868 116.7128564  63.4920052   9.3375827 117.0116611  64.7253486
   3.1070028 116.6632420  65.9298081   3.1714460 117.1252827  66.7656252
   2.3980952 116.0329785  66.0580390  17.4319417 113.4587125  60.1222342
  16.6783126 112.8894523  59.9666346  17.5666959 113.4249790  61.0692976
   2.8218045 118.3300527  55.7977061   2.6863720 119.1752063  56.2261909
   3.3627858 118.5319805  55.0342995   2.2253346 105.8249986  70.0511673
   2.9663059 106.4257140  69.9716135   2.4571269 105.0827624  69.4929715
   4.4486522 118.9524094  69.9277403   4.0050376 118.1660473  69.6098308
   5.1103735 119.1403244  69.2621294   6.5467760 119.2326894  67.9558804
   6.5286235 120.0535775  67.4639073   7.4687680 119.1080969  68.1808945
   3.0040814 116.7471023  68.7982313   3.5369151 115.9859312  68.5681621
   2.4754895 116.4544675  69.5406467   6.1710509 101.8531089  64.3275954
   5.8274778 102.7432731  64.2515065   6.5389472 101.6632747  63.4645539
   6.1360792 111.8439700  52.8348390   5.6207415 112.6144305  53.0736777
   5.8638100 111.1704837  53.4581451   3.7207903 106.6889401  57.8933628
   2.8649499 106.2996252  57.7139267   4.1334855 106.7681362  57.0333413
   5.2507049 104.2235744  62.2925188   4.7471845 104.1865880  61.4792993
   5.5437656 105.1328487  62.3521844   1.4949935 104.3074474  61.2991369
   2.3602932 104.1117283  60.9397259   1.5627444 104.0784826  62.2260726
  11.1095066 114.5972055  54.7701563  10.3324509 114.2583215  54.3256725
  11.7886547 114.6024678  54.0956528   5.9247095 109.7166793  54.6608171
   5.6197230 110.0312942  55.5118314   6.8777537 109.7948212  54.7035504
   4.3693527 115.8757016  56.3101125   3.8414888 115.1409775  55.9974362
   3.8681029 116.6531692  56.0641093   9.3486373 114.0706036  61.4268171
   8.6910047 114.7605298  61.5148300  10.1526772 114.4602468  61.7702157
   8.1591832 112.4250409  59.4772113   8.6723713 113.0580401  59.9793822
   8.8093055 111.8251605  59.1115473   1.4034922 103.4117931  57.3982806
   0.7499334 103.0966948  56.7739420   1.3615396 102.7893671  58.1242629
   2.5146127 113.6937226  49.3136098   1.6073189 113.4626480  49.5127247
   3.0117159 112.8974845  49.5010079   5.4214206 122.4034733  52.2332784
   4.7475905 122.7066430  52.8417742   5.8080028 123.2063814  51.8838241
   4.6372662 109.8999865  61.7230453   3.7195224 110.1214812  61.5652141
   5.0532806 109.9746175  60.8642161   5.4207710 111.2991280  56.8533134
   6.1679529 111.8112677  56.5440256   5.6899300 110.9775333  57.7137527
   3.6934360 113.7949821  53.8360088   2.7845580 113.5108854  53.9332558
   3.7229444 114.2148900  52.9763395   8.9253628 117.4056410  57.6051255
   8.4715955 116.5647320  57.6616446   8.2947594 118.0417809  57.9426036
   7.8686547 108.3348397  58.8351923   7.1309304 107.8225783  59.1662165
   8.1213321 107.8948778  58.0235200   7.3686567 119.2432907  58.5401074
   7.6609541 119.8037964  57.8213439   7.8785188 119.5361468  59.2954233
   7.9698175 101.1124649  59.4293692   8.2757051 100.2522012  59.1419607
   8.6950779 101.7042269  59.2292686   2.2419254 111.4078442  59.9369883
   2.2967864 110.4552278  59.8612360   1.4310456 111.5637881  60.4211182
   3.3910448 115.3358565  51.1748166   2.9529878 114.6194424  50.7153804
   4.1320889 115.5634679  50.6133258   2.3320192 120.0213258  59.6294527
   2.2896371 120.2474105  58.7003059   3.2482891 119.7876633  59.7780328
   5.7785826 110.4897326  66.5275156   6.1335214 110.7168799  67.3869622
   6.4257957 110.8215703  65.9052411  11.5083563 113.6115762  57.2324485
  11.3701462 113.8017358  56.3045674  11.1519782 114.3735144  57.6892536
  11.5352943 115.6792289  62.2435756  11.9689449 115.5867578  63.0918811
  12.2484523 115.6549789  61.6055772   5.2680837 119.2794383  63.7768857
   5.3217860 119.8485319  64.5446573   4.3995619 119.4496268  63.4122894
  12.3968492 115.7215989  64.7768642  12.5904382 116.6261800  65.0227917
  12.2969110 115.2623408  65.6107227   4.0504803 105.6073880  67.2758969
   3.4032718 106.3063830  67.1823446   4.8205818 106.0410024  67.6435217
   7.4583601 115.8722732  70.3509522   7.3069107 115.6433284  69.4339606
   7.4488280 116.8293334  70.3640868   4.2268937 113.4454645  65.3355789
   5.1560997 113.5965804  65.1624756   3.8059967 113.5338666  64.4804435
   3.0257269 117.4705309  63.1054327   2.8868355 117.1024094  63.9780265
   2.2371865 117.9852949  62.9338284   3.6205421 122.5714406  54.4479863
   3.7957177 122.1002449  55.2625486   2.9338209 123.1980172  54.6761124
   4.5762484 116.8486912  60.4943164   4.2412317 116.8087682  61.3900814
   4.0766430 116.1831628  60.0213575   7.5121676 114.1942946  50.7680224
   6.8950846 113.4689774  50.6713277   7.0438164 114.9552307  50.4247298
   1.1789029 111.9674501  65.5079425   1.8888647 111.3267693  65.4666044
   1.1358337 112.2187396  66.4305606   9.1675807 118.9041855  68.4286004
   9.1088354 118.2201075  67.7616587   9.5695326 119.6460845  67.9766630
   9.1693215 116.8681439  66.6599984   8.2819993 116.5307360  66.7826383
   9.7391766 116.1364470  66.8968749   2.6994368 121.5282891  63.6261227
   2.6264540 122.3337862  64.1380532   2.2571761 121.7274857  62.8009249
   2.4884148 120.7654661  57.1364049   1.7051670 121.3076341  57.2302273
   3.1876893 121.2828641  57.5358290   5.7980798 106.5749290  59.7798254
   6.2949497 105.8219253  59.4599324   5.0267779 106.6113607  59.2141463
  13.6510555 112.2789656  61.4216546  13.6400431 113.1614371  61.0510479
  12.7827935 111.9261207  61.2271083   5.1593052 121.4269725  65.7819386
   5.8721024 122.0617190  65.7095287   4.6683080 121.5233591  64.9659388
   6.8810579 115.3320978  57.3536678   5.9466857 115.4522440  57.1841382
   7.0587247 114.4293444  57.0896687   2.3815767 108.7166673  59.5069939
   2.0113554 108.1637714  60.1950844   2.8774859 108.1124807  58.9544939
  10.2683130 111.1738297  57.8886712  10.7343582 112.0066289  57.8147014
  10.7190630 110.7083278  58.5931970   8.3359361 117.5182118  54.8872864
   8.6119205 117.4038713  55.7966738   7.4663860 117.1199603  54.8485037
   8.2399793 103.5418884  61.9277613   7.3262872 103.7723111  62.0959820
   8.6692894 103.6257328  62.7791645   8.0106251 111.7308776  64.4277507
   7.3577701 111.9784683  63.7729960   8.3886631 110.9172914  64.0939984
   4.9713425 121.7668469  58.5305677   5.1535820 120.9490125  58.9933430
   5.7946411 121.9836161  58.0930567   5.3055590 120.6936654  55.7920726
   5.8343357 120.1829109  55.1790888   5.5683810 120.3779184  56.6566259
   4.0593824 112.4728587  70.9143544   3.3834461 112.3722716  71.5845919
   4.8821458 112.3167801  71.3779541   2.8016607 123.7795514  65.1501160
   3.3534915 123.9427136  65.9150245   3.1422800 124.3699952  64.4781185
   7.6527481 118.6056772  71.0049815   8.1967385 119.2186730  70.5104769
   7.0714326 119.1636350  71.5216828   5.9384994 121.7277490  62.1364842
   5.8136134 120.9267230  61.6275788   6.5964085 122.2223683  61.6478812
   8.0019903 119.5286510  63.7644392   7.0550238 119.4091861  63.6922719
   8.3502676 118.6409008  63.8470654   5.0066336 119.3239226  59.9648745
   4.8591298 118.3955934  60.1456315   5.8319829 119.3459317  59.4805820
   8.6100458 120.1467785  61.0513617   9.5347005 119.9410646  60.9138069
   8.4415761 119.8984186  61.9602959   1.5672021 106.3594344  65.2732305
   1.2268841 105.5602157  65.6752985   0.8611027 106.6596055  64.7009138
   2.2188493 103.4443656  63.7259628   3.0414562 102.9704135  63.6038518
   2.4626556 104.2234140  64.2258314   5.0027850 107.1777064  54.9580862
   5.2191465 108.0601702  54.6569690   4.5221917 106.7863277  54.2286504
   1.6023455 107.1265325  61.5832496   1.5885023 106.2306418  61.2464794
   2.3195883 107.1335989  62.2170782   3.4549585 107.5602665  63.6285623
   3.1967363 108.4819736  63.6269954   2.9234626 107.1633100  64.3186088
   8.3995774 120.6653452  56.4075709   8.5732652 120.0999875  55.6549561
   8.8924665 121.4654347  56.2255199   1.0060350 106.0079705  56.8520066
   1.1276262 105.0796352  57.0510954   0.7162393 106.0218391  55.9398382
   3.8751541 103.6934616  59.9886786   3.8973238 103.7573949  59.0338766
   4.2919600 102.8539124  60.1827292  14.2535165 113.4289875  58.0266009
  14.6966311 112.6797201  57.6285132  13.3761675 113.4200012  57.6439741
   9.3870947 119.9820217  53.5072607  10.0821851 120.6026909  53.7259922
   9.7294097 119.1315568  53.7824985  11.2862370 117.4319922  55.0359938
  11.8113694 117.7707195  54.3109258  11.1984722 116.4966938  54.8523072
   2.9482418 121.3453996  67.1649815   3.2569545 121.1003143  68.0372514
   3.7457900 121.5500634  66.6768685   2.9703030 123.4991906  59.3955191
   2.5308021 123.0068284  60.0888048   3.7211147 122.9564873  59.1547266
   0.4901430 107.5211703  71.0609999   0.5389585 108.3973826  70.6787768
   1.0323944 106.9789096  70.4881642  10.9756276 118.0652826  70.3411136
  10.1851819 118.0476965  69.8015635  10.7389630 118.6041120  71.0960172
  11.0954151 114.9145292  67.6543864  11.1452156 114.7495300  68.5959387
  10.9868074 114.0472551  67.2641745   8.3857913 110.8976220  68.9703171
   9.2867776 110.7582685  68.6787169   8.4605888 111.0630675  69.9101349
   2.7200718 108.2743075  67.8156357   1.8504028 108.5676641  67.5438946
   2.9560199 108.8583520  68.5363621  12.5972348 117.3342234  67.8985886
  12.3057156 117.6972214  68.7349347  11.9844479 116.6209242  67.7199218
  13.7968030 114.8995114  60.4188456  14.6314921 115.3384918  60.5826016
  13.9327159 114.4233767  59.5996702  10.8459536 112.4574848  66.3665944
  11.3213657 112.6502495  65.5584795   9.9225101 112.5134034  66.1209328
   5.4239752 104.4922692  65.3321778   5.9421696 105.2283719  65.0068266
   5.0694885 104.7986685  66.1668537   5.6752346 100.9122975  60.8522674
   5.9554100 100.2446164  61.4783101   6.4602953 101.1052070  60.3397338
   3.4785815 120.0881968  52.4147701   2.9059782 120.7072156  51.9618173
   4.0518609 120.6381330  52.9487623   9.5461205 109.3340609  64.5994249
  10.4978628 109.4338706  64.6206474   9.3764655 108.5418877  65.1092334
   7.5675584 106.4196192  64.7853650   6.9725516 106.7001204  64.0900139
   7.2825281 106.9090093  65.5570392   6.6983075 120.3719119  53.5456283
   7.6313748 120.3064680  53.7489158   6.6106288 121.2075385  53.0870816
   9.3271091 119.6884989  50.5060231   9.2484723 119.3544853  51.3995988
  10.1480758 120.1806757  50.5051703  12.0249283 112.5546728  63.7136549
  11.9925603 111.6162729  63.8996233  12.6349906 112.6330765  62.9802374
   3.8632613 111.4242781  49.7563753   4.8091718 111.2948989  49.8252171
   3.4846858 110.6857443  50.2333181  12.1743771 109.3457772  63.7594832
  11.6582820 108.5616228  63.5724761  13.0583720 109.0176488  63.9241352
   9.8354498 103.0898787  59.7190645   9.6379319 102.7813875  60.6033977
  10.4454204 103.8160426  59.8488575  17.8425832 113.6162735  62.8542586
  18.5729221 113.3548023  63.4150289  17.2332778 112.8791457  62.8944654
  15.9241130 111.7570598  63.4517037  15.1974293 111.6226563  62.8433529
  15.5088416 112.0647426  64.2573755   3.7471306 115.4760527  71.2164410
   4.6674315 115.6539126  71.4104457   3.7120889 114.5316573  71.0644109
   2.0475531 109.3492758  49.6918638   1.1406986 109.0525870  49.7681352
   2.3251512 109.0522576  48.8252925   3.6637596 103.8929647  55.8462880
   2.8538325 103.5476732  56.2218126   4.3522013 103.5837191  56.4350491
   5.5928145 102.9707694  57.4687176   6.1459183 103.3903148  58.1277199
   5.8298231 102.0443442  57.5110132   1.6161244 108.9594768  73.2489940
   1.5157971 109.9089125  73.1802031   1.3982786 108.6313007  72.3766010
   0.8174315 106.2079693  49.8330618   1.6793479 106.5334591  50.0926435
   1.0024659 105.4211189  49.3203683   8.9706952 105.0808219  56.9765841
   8.3905621 105.7393023  56.5943893   8.7042884 104.2585564  56.5653258
   7.4210518 104.4813277  59.1787161   7.9210296 104.5929812  58.3701480
   8.0646126 104.1774330  59.8187969   1.4792514 112.3891907  72.0655002
   0.9959596 113.1892267  72.2718891   1.5653453 112.3999851  71.1122446
   7.7531830 107.2408310  56.0322189   6.8657685 107.5257960  55.8142384
   8.1685819 107.0802073  55.1849466  11.1046366 107.2654831  59.7476528
  11.8806756 107.7551283  60.0201145  10.3794500 107.6912885  60.2048398
  13.5418924 107.9782450  60.8050469  14.1363415 107.7378186  60.0943777
  13.6145508 107.2589580  61.4324005   6.8975043 117.0052984  50.1270209
   7.6010893 117.2102987  50.7427864   6.1737692 117.5729746  50.3919292
   7.7272853 112.7562846  56.2472479   7.6708055 113.2131397  55.4080111
   8.2801196 111.9953530  56.0695322  11.5377659 108.5452577  57.0722599
  11.2814594 108.1449213  57.9030806  10.9130527 109.2596371  56.9472738
  15.8489997 111.2848651  59.5793890  15.2889555 111.3541840  60.3525452
  15.2433501 111.1089635  58.8593386   8.8061741 117.4435514  52.1768669
   9.6407345 117.0116712  51.9946144   8.6446084 117.2717527  53.1045563
   8.4607633 113.9467627  53.5425008   8.4056437 113.7811898  52.6013452
   7.8353688 114.6543660  53.6987198   5.7753540 116.2516539  72.8678571
   6.6444700 116.4257191  72.5065206   5.2960291 117.0710956  72.7454300
   1.7703758 103.4475736  53.1210327   1.7582428 104.3917576  53.2778597
   2.6627180 103.2645881  52.8269788   1.6993322 122.1244626  61.2078083
   0.7488953 122.1246488  61.0942456   2.0025808 121.3777361  60.6914118
   5.5855878 100.0418512  57.3756263   4.8188274  99.4876999  57.5212946
   5.9966583 100.1140381  58.2370415  17.4346016 127.9605165  62.2723846
  18.0724426 127.8411912  61.5687186  17.3166859 128.9086009  62.3311798
  14.2435722 127.9132593  62.2085370  13.9054233 127.7973657  61.3205905
  15.1125490 127.5123758  62.1886376  10.1022538 129.7668069  58.1982261
   9.5387403 129.6758006  57.4298549   9.9874933 128.9467974  58.6784754
  14.7255505 129.0667444  68.1671576  14.7144146 128.6720243  67.2952080
  14.8876144 128.3333517  68.7605347  12.3718973 129.2281405  63.7052120
  12.9682545 129.0037427  62.9909082  12.4293944 128.4866150  64.3077567
  11.9444001 126.6820840  51.5402310  12.1969522 126.1602361  50.7785773
  11.0068560 126.5186986  51.6428994  16.9887284 125.6856619  59.3477054
  17.7750373 125.2676042  58.9967471  17.2525989 126.5902711  59.5158702
  17.1597362 131.1229469  54.0465711  16.5243195 131.1964095  54.7586615
  16.8294768 131.7123068  53.3684790  22.3895711 125.6231852  60.2510032
  23.1220883 125.0531069  60.4847862  21.6335067 125.2353452  60.6916538
  11.6640290 128.5848946  53.7426685  11.5476548 127.9093849  54.4107770
  11.7742550 128.0981320  52.9258838  14.0071831 128.0459093  57.4473375
  13.6430038 127.5189714  58.1586296  14.8638947 127.6557562  57.2739860
  19.9121132 119.3353426  64.7104641  19.5804456 120.2048837  64.4865856
  19.3166745 119.0189710  65.3898671  13.6477318 123.0748993  52.4434723
  13.8151720 123.9429229  52.8105194  13.4574487 123.2376275  51.5196012
   9.8565133 127.9879769  60.1437258   8.9315629 127.8555983  60.3514950
  10.1049546 128.7673988  60.6407200  19.8049795 124.0548512  61.7897991
  18.8966672 123.9863920  61.4956752  19.7537391 124.5320457  62.6179816
  13.6266539 125.5306650  53.4281390  13.5066164 125.9763701  54.2666870
  12.9319127 125.8791968  52.8694928   7.2173944 127.6313042  60.9781047
   7.3466325 127.8847521  61.8920459   6.5371395 128.2240750  60.6585702
  13.8790661 125.4738158  69.7332888  13.1023995 126.0332078  69.7235753
  14.5181224 125.9594941  70.2547758  21.6711441 122.2564950  63.5675865
  21.0285822 122.5497484  62.9215659  21.1666370 122.1417871  64.3729061
  19.3251605 126.0028124  54.2561724  20.2369461 126.2355510  54.0809422
  18.8161252 126.5865168  53.6936803  12.1337033 128.2823611  69.2950855
  12.8751717 128.8208655  69.0185679  11.4274019 128.9089900  69.4522407
  17.6092373 130.4252751  67.8923017  18.0175729 129.9835162  67.1477649
  16.8869634 129.8505379  68.1457210  13.9623443 125.3625358  65.2656574
  14.8084638 125.7864772  65.4091223  13.9022080 124.7058982  65.9595137
  17.9321187 130.9853942  61.6475306  17.3030050 131.1499656  60.9451373
  17.5446849 131.3995552  62.4186270  21.8110419 131.9208380  59.0019669
  21.1261457 132.3007281  58.4516703  21.8954269 132.5303707  59.7351617
  17.1122888 123.0229727  66.9237747  16.8683820 123.7771787  66.3872023
  17.3882819 123.4015074  67.7584994  19.0661351 129.5668339  65.6015013
  19.2778246 130.2100099  64.9249394  19.0191099 128.7330655  65.1336943
  16.6687580 122.1786160  62.5051585  15.8072059 122.4767413  62.7968323
  16.6950014 122.3956558  61.5732618  13.4849149 130.7228350  58.9125391
  13.9487495 131.0016053  58.1230013  13.2205947 129.8211795  58.7298481
  12.4218035 126.8451502  55.7214956  13.1242079 127.2972546  56.1888882
  12.0898664 126.2035321  56.3494849  10.8698397 125.4363259  70.0966165
  10.2397057 126.1179540  70.3301562  10.7634485 125.3246341  69.1519303
   6.1643369 125.1035055  61.0232089   5.3742423 125.3592584  60.5472200
   6.6554617 125.9183393  61.1284130  20.1807179 132.4440294  63.7737370
  21.0024623 132.0420482  63.4920052  20.1769582 132.3408528  64.7253486
   8.1158115 125.4679634  57.9815566   7.3189278 125.5798329  58.4999062
   7.8883707 125.8066287  57.1156457   4.4481072 125.3565546  63.4547080
   4.6989111 126.2412556  63.7204656   4.9840621 125.1770147  62.6822172
  28.2713172 128.7879043  60.1222342  27.5176880 128.2186441  59.9666346
  28.4060713 128.7541707  61.0692976  10.1479140 119.7384025  72.4591416
   9.7546085 119.1850224  73.1339060  10.9645280 120.0494603  72.8497934
  13.0647101 121.1541904  70.0511673  13.8056814 121.7549057  69.9716135
  13.2965023 120.4119542  69.4929715   8.2088439 126.3398271  68.3289902
   8.0941954 125.4383529  68.6297001   7.3532956 126.5861968  67.9774719
  17.0104263 117.1823007  64.3275954  16.6668533 118.0724649  64.2515065
  17.3783226 116.9924665  63.4645539  16.9754546 127.1731618  52.8348390
  16.4601170 127.9436223  53.0736777  16.7031855 126.4996754  53.4581451
  14.5601657 122.0181319  57.8933628  13.7043254 121.6288169  57.7139267
  14.9728609 122.0973280  57.0333413  16.0900804 119.5527662  62.2925188
  15.5865599 119.5157797  61.4792993  16.3831411 120.4620405  62.3521844
  12.3343690 119.6366392  61.2991369  13.1996687 119.4409201  60.9397259
  12.4021199 119.4076744  62.2260726  21.9488820 129.9263973  54.7701563
  21.1718263 129.5875132  54.3256725  22.6280301 129.9316596  54.0956528
  16.7640849 125.0458710  54.6608171  16.4590985 125.3604859  55.5118314
  17.7171291 125.1240130  54.7035504  20.1880127 129.3997954  61.4268171
  19.5303802 130.0897215  61.5148300  20.9920526 129.7894386  61.7702157
   9.9406009 121.8668600  58.6707736  10.5149761 121.6443781  57.9380929
  10.5276991 121.9357294  59.4236338  18.9985586 127.7542327  59.4772113
  19.5117468 128.3872319  59.9793822  19.6486810 127.1543522  59.1115473
  10.2675596 123.8973061  52.6903621   9.4312908 124.2347747  53.0112896
  10.1280366 123.7622041  51.7530758  12.2428677 118.7409849  57.3982806
  11.5893089 118.4258866  56.7739420  12.2009151 118.1185589  58.1242629
  13.3539881 129.0229144  49.3136098  12.4466943 128.7918397  49.5127247
  13.8510913 128.2266763  49.5010079  15.4766417 125.2291782  61.7230453
  14.5588978 125.4506729  61.5652141  15.8926561 125.3038093  60.8642161
  16.2601465 126.6283198  56.8533134  17.0073284 127.1404595  56.5440256
  16.5293054 126.3067251  57.7137527  14.5328115 129.1241739  53.8360088
  13.6239334 128.8400771  53.9332558  14.5623199 129.5440817  52.9763395
  18.7080302 123.6640314  58.8351923  17.9703059 123.1517700  59.1662165
  18.9607075 123.2240696  58.0235200  18.8091929 116.4416566  59.4293692
  19.1150806 115.5813930  59.1419607  19.5344534 117.0334186  59.2292686
   5.1016285 126.8447253  57.8175290   4.9040685 126.2516613  57.0926357
   4.5462949 126.5399463  58.5351229  13.0813009 126.7370359  59.9369883
  13.1361619 125.7844196  59.8612360  12.2704211 126.8929798  60.4211182
  14.2304203 130.6650482  51.1748166  13.7923633 129.9486341  50.7153804
  14.9714643 130.8926597  50.6133258  11.0205369 125.3547419  57.6960262
  10.2073234 125.6541590  58.1025454  11.5164363 124.9603108  58.4134744
  16.6179580 125.8189243  66.5275156  16.9728968 126.0460717  67.3869622
  17.2651712 126.1507620  65.9052411  22.3477317 128.9407679  57.2324485
  22.2095216 129.1309275  56.3045674  21.9913536 129.7027062  57.6892536
  10.5119444 122.9265775  63.3121497  11.1518823 122.7854534  62.6144460
   9.6796974 122.6400288  62.9360099  22.3746697 131.0084206  62.2435756
  22.8083204 130.9159495  63.0918811  23.0878278 130.9841707  61.6055772
   7.5962511 126.3711287  55.5016242   6.6660099 126.3095742  55.7186204
   7.6919983 125.8487239  54.7052883   7.5148060 122.8966100  58.0894484
   7.7754877 123.8111433  57.9803644   8.3365232 122.4290542  58.2391097
   8.9872985 124.3103857  65.2593308   9.6596039 124.1021219  64.6105957
   8.1602772 124.1125943  64.8198541  23.2362247 131.0507907  64.7768642
  23.4298137 131.9553718  65.0227917  23.1362865 130.5915326  65.6107227
  14.8898557 120.9365798  67.2758969  14.2426472 121.6355747  67.1823446
  15.6599573 121.3701942  67.6435217  18.2977355 131.2014650  70.3509522
  18.1462862 130.9725201  69.4339606  18.2882035 132.1585251  70.3640868
  15.0662692 128.7746563  65.3355789  15.9954752 128.9257722  65.1624756
  14.6453722 128.8630583  64.4804435   9.3900483 127.5846460  66.0195745
   9.2520280 126.8526698  66.6207285  10.3005406 127.4955360  65.7379933
  18.3515430 129.5234864  50.7680224  17.7344601 128.7981692  50.6713277
  17.8831919 130.2844224  50.4247298  12.0182783 127.2966419  65.5079425
  12.7282402 126.6559611  65.4666044  11.9752091 127.5479314  66.4305606
  10.7311717 124.2831637  67.3275065  10.1949074 123.8322375  67.9796661
  10.1428426 124.4177546  66.5845529  10.1413976 123.7420288  49.8901528
   9.2643442 123.6209089  49.5263775  10.6171729 122.9506367  49.6380417
  20.0086969 132.1973356  66.6599984  19.1213748 131.8599278  66.7826383
  20.5785520 131.4656387  66.8968749   6.4650838 123.4187645  64.4128059
   6.3809027 122.8113314  63.6778469   5.6433545 123.9096663  64.4137555
  16.6374552 121.9041208  59.7798254  17.1343252 121.1511170  59.4599324
  15.8661534 121.9405525  59.2141463  24.4904310 127.6081574  61.4216546
  24.4794186 128.4906289  61.0510479  23.6221689 127.2553124  61.2271083
  17.7204333 130.6612895  57.3536678  16.7860612 130.7814358  57.1841382
  17.8981001 129.7585362  57.0896687  13.2209521 124.0458591  59.5069939
  12.8507309 123.4929631  60.1950844  13.7168614 123.4416725  58.9544939
  21.1076884 126.5030215  57.8886712  21.5737337 127.3358206  57.8147014
  21.5584385 126.0375196  58.5931970  19.1753115 132.8474036  54.8872864
  19.4512959 132.7330630  55.7966738  18.3057614 132.4491521  54.8485037
  19.0793547 118.8710802  61.9277613  18.1656627 119.1015028  62.0959820
  19.5086649 118.9549246  62.7791645  18.8500006 127.0600694  64.4277507
  18.1971456 127.3076601  63.7729960  19.2280385 126.2464832  64.0939984
  14.8987579 127.8020505  70.9143544  14.2228216 127.7014634  71.5845919
  15.7215212 127.6459718  71.3779541   1.2384092 126.6098041  62.2560503
   1.2768192 126.0761632  63.0497621   0.7324385 126.0833247  61.6371480
   8.6174855 121.4562582  65.7523045   8.6816181 122.3177413  65.3400443
   8.5541975 120.8436584  65.0195403   8.0927127 123.5285714  69.3996079
   8.7199166 123.1462792  70.0133603   7.2355046 123.3099916  69.7651772
   4.8692670 125.3362144  55.3314434   5.1646111 124.4272822  55.2781488
   3.9680706 125.3149883  55.0095436   8.3986917 123.4118140  61.3141983
   7.6773503 124.0254108  61.1749456   9.1880173 123.9475905  61.2358628
  11.2013231 120.7472567  67.5882634  11.7247632 120.9934863  68.3508944
  10.9825564 121.5792601  67.1685772   6.5980512 123.0176241  55.4553759
   6.2693218 122.1373620  55.2728865   6.9519882 122.9623910  56.3430148
   9.7122335 123.3049211  55.8229237  10.0518407 123.8335132  55.1007845
  10.1594455 123.6429617  56.5987803  12.4065776 121.6886262  65.2732305
  12.0662596 120.8894075  65.6752985  11.7004782 121.9887973  64.7009138
  13.0582247 118.7735574  63.7259628  13.8808317 118.2996052  63.6038518
  13.3020311 119.5526058  64.2258314  11.6990482 121.8023833  54.0222530
  12.4198844 122.1805085  53.5186246  11.0755786 122.5212709  54.1257507
  15.8421605 122.5068982  54.9580862  16.0585219 123.3893619  54.6569690
  15.3615672 122.1155195  54.2286504  10.5820826 125.4654695  61.5351606
  10.4365407 125.7794998  62.4275888  10.1046030 126.0839595  60.9822505
  12.4417209 122.4557243  61.5832496  12.4278778 121.5598336  61.2464794
  13.1589637 122.4627906  62.2170782  14.2943340 122.8894583  63.6285623
  14.0361118 123.8111654  63.6269954  13.7628380 122.4925017  64.3186088
  11.8454105 121.3371623  56.8520066  11.9670016 120.4088269  57.0510954
  11.5556147 121.3510309  55.9398382  14.7145295 119.0226533  59.9886786
  14.7366992 119.0865867  59.0338766  15.1313354 118.1831042  60.1827292
  25.0928920 128.7581793  58.0266009  25.5360066 128.0089118  57.6285132
  24.2155430 128.7491929  57.6439741   5.8432510 127.1329935  67.3669424
   5.1014246 127.2812571  67.9534055   5.5225254 127.3938201  66.5036174
  22.1256124 132.7611840  55.0359938  22.6507448 133.0999113  54.3109258
  22.0378477 131.8258855  54.8523072  11.3295185 122.8503620  71.0609999
  11.3783340 123.7265743  70.6787768  11.8717699 122.3081013  70.4881642
  21.8150030 133.3944744  70.3411136  21.0245574 133.3768882  69.8015635
  21.5783385 133.9333037  71.0960172  21.9347905 130.2437210  67.6543864
  21.9845910 130.0787217  68.5959387  21.8261829 129.3764469  67.2641745
  19.2251668 126.2268138  68.9703171  20.1261530 126.0874603  68.6787169
  19.2999642 126.3922593  69.9101349  13.5594473 123.6034993  67.8156357
  12.6897782 123.8968559  67.5438946  13.7953953 124.1875438  68.5363621
  23.4366102 132.6634152  67.8985886  23.1450910 133.0264132  68.7349347
  22.8238233 131.9501160  67.7199218  24.6361784 130.2287031  60.4188456
  25.4708676 130.6676835  60.5826016  24.7720913 129.7525685  59.5996702
  21.6853290 127.7866766  66.3665944  22.1607412 127.9794412  65.5584795
  20.7618856 127.8425952  66.1209328   8.5736797 128.9490933  55.9497022
   8.3282839 128.0453263  56.1477232   8.7432711 128.9508084  55.0076500
  16.2633507 119.8214610  65.3321778  16.7815451 120.5575637  65.0068266
  15.9088640 120.1278603  66.1668537   7.8432444 124.6819291  53.4483184
   7.1501689 124.7563646  52.7923220   7.5984196 123.9179635  53.9704701
  16.5146101 116.2414892  60.8522674  16.7947855 115.5738081  61.4783101
  17.2996708 116.4343988  60.3397338  20.3854959 124.6632526  64.5994249
  21.3372382 124.7630624  64.6206474  20.2158410 123.8710795  65.1092334
  18.4069339 121.7488109  64.7853650  17.8119271 122.0293122  64.0900139
  18.1219035 122.2382010  65.5570392  22.8643037 127.8838646  63.7136549
  22.8319357 126.9454647  63.8996233  23.4743661 127.9622683  62.9802374
  14.7026368 126.7534699  49.7563753  15.6485473 126.6240907  49.8252171
  14.3240613 126.0149361  50.2333181  23.0137526 124.6749689  63.7594832
  22.4976574 123.8908146  63.5724761  23.8977474 124.3468406  63.9241352
  20.6748252 118.4190705  59.7190645  20.4773074 118.1105793  60.6033977
  21.2847958 119.1452344  59.8488575  28.6819587 128.9454653  62.8542586
  29.4122975 128.6839941  63.4150289  28.0726532 128.2083375  62.8944654
  26.7634884 127.0862515  63.4517037  26.0368048 126.9518480  62.8433529
  26.3482171 127.3939344  64.2573755  14.5865060 130.8052445  71.2164410
  15.5068070 130.9831044  71.4104457  14.5514644 129.8608490  71.0644109
  12.8869285 124.6784675  49.6918638  11.9800740 124.3817788  49.7681352
  13.1645266 124.3814493  48.8252925   3.8047225 125.9991039  60.1417685
   3.4850010 125.1456347  59.8492059   3.2580654 126.2139617  60.8975652
  14.5031351 119.2221565  55.8462880  13.6932079 118.8768650  56.2218126
  15.1915768 118.9129109  56.4350491  16.4321899 118.2999612  57.4687176
  16.9852938 118.7195065  58.1277199  16.6691985 117.3735360  57.5110132
  12.4554998 124.2886685  73.2489940  12.3551725 125.2381042  73.1802031
  12.2376540 123.9604924  72.3766010  11.6568070 121.5371611  49.8330618
  12.5187234 121.8626509  50.0926435  11.8418414 120.7503106  49.3203683
  19.8100706 120.4100137  56.9765841  19.2299375 121.0684941  56.5943893
  19.5436639 119.5877482  56.5653258  18.2604273 119.8105195  59.1787161
  18.7604051 119.9221729  58.3701480  18.9039880 119.5066248  59.8187969
  12.3186268 127.7183824  72.0655002  11.8353350 128.5184184  72.2718891
  12.4047207 127.7291769  71.1122446  18.5925584 122.5700227  56.0322189
  17.7051439 122.8549878  55.8142384  19.0079573 122.4093991  55.1849466
  21.9440120 122.5946748  59.7476528  22.7200510 123.0843201  60.0201145
  21.2188255 123.0204803  60.2048398  24.3812679 123.3074368  60.8050469
  24.9757170 123.0670104  60.0943777  24.4539263 122.5881498  61.4324005
  18.5666608 128.0854763  56.2472479  18.5101809 128.5423315  55.4080111
  19.1194950 127.3245448  56.0695322  22.3771414 123.8744495  57.0722599
  22.1208348 123.4741131  57.9030806  21.7524282 124.5888289  56.9472738
  26.6883752 126.6140568  59.5793890  26.1283310 126.6833758  60.3525452
  26.0827255 126.4381553  58.8593386  19.6455495 132.7727431  52.1768669
  20.4801099 132.3408630  51.9946144  19.4839838 132.6009445  53.1045563
  19.3001387 129.2759545  53.5425008  19.2450191 129.1103816  52.6013452
  18.6747443 129.9835577  53.6987198   4.0893902 124.5127609  67.3686430
   4.7352766 124.0026563  67.8573656   3.8811053 125.2496291  67.9429856
  12.6097513 118.7767654  53.1210327  12.5976183 119.7209493  53.2778597
  13.5020935 118.5937799  52.8269788  16.4249632 115.3710430  57.3756263
  15.6582028 114.8168917  57.5212946  16.8360337 115.4432299  58.2370415
   8.4291393 121.6595226  71.4661445   9.2922855 121.3032031  71.6764769
   7.8556804 121.3209121  72.1536849  30.7514886 134.6645343  64.7104641
  30.4198211 135.5340754  64.4865856  30.1560500 134.3481627  65.3898671
  27.8498018 132.5114925  64.3275954  27.5062287 133.4016566  64.2515065
  28.2176981 132.3216582  63.4645539  26.9294558 134.8819580  62.2925188
  26.4259354 134.8449715  61.4792993  27.2225165 135.7912323  62.3521844
  23.0822431 134.0701766  57.3982806  22.4286843 133.7550784  56.7739420
  23.0402905 133.4477507  58.1242629  29.6485684 131.7708484  59.4293692
  29.9544560 130.9105847  59.1419607  30.3738288 132.3626104  59.2292686
  29.9187302 134.2002719  61.9277613  29.0050381 134.4306946  62.0959820
  30.3480403 134.2841163  62.7791645  23.8976002 134.1027492  63.7259628
  24.7202071 133.6287970  63.6038518  24.1414065 134.8817976  64.2258314
  25.5539050 134.3518451  59.9886786  25.5760747 134.4157784  59.0338766
  25.9707109 133.5122960  60.1827292  27.1027261 135.1506527  65.3321778
  27.6209205 135.8867554  65.0068266  26.7482394 135.4570521  66.1668537
  27.3539855 131.5706810  60.8522674  27.6341609 130.9029999  61.4783101
  28.1390462 131.7635906  60.3397338  31.5142007 133.7482623  59.7190645
  31.3166828 133.4397711  60.6033977  32.1241713 134.4744262  59.8488575
  25.3425105 134.5513483  55.8462880  24.5325834 134.2060568  56.2218126
  26.0309522 134.2421026  56.4350491  27.2715654 133.6291529  57.4687176
  27.8246692 134.0486983  58.1277199  27.5085740 132.7027278  57.5110132
  30.6494461 135.7392055  56.9765841  30.0693130 136.3976859  56.5943893
  30.3830393 134.9169399  56.5653258  29.0998027 135.1397112  59.1787161
  29.5997805 135.2513647  58.3701480  29.7433635 134.8358165  59.8187969
  35.2206433 138.6366285  60.8050469  35.8150924 138.3962021  60.0943777
  35.2933017 137.9173416  61.4324005  27.2643387 130.7002348  57.3756263
  26.4975782 130.1460835  57.5212946  27.6754092 130.7724217  58.2370415
   6.5925664  75.1357330  46.8467648   5.8389373  74.5664728  46.6911653
   6.7273205  75.1019995  47.7938283   0.6959189  77.3562494  48.9681063
   1.1295696  77.2637783  49.8164117   1.4090770  77.3319994  48.3301079
   1.5574739  77.3986194  51.5013949   1.7510629  78.3032005  51.7473223
   1.4575357  76.9393613  52.3352534   2.8116802  73.9559861  48.1461852
   2.8006678  74.8384576  47.7755785   1.9434181  73.6031412  47.9516389
   3.4141412  75.1060080  44.7511315   3.8572558  74.3567405  44.3530438
   2.5367922  75.0970217  44.3685047   0.4468616  79.1090127  41.7605245
   0.9719940  79.4477400  41.0354565   0.3590969  78.1737143  41.5768379
   1.7578594  79.0112439  54.6231193   1.4663403  79.3742419  55.4594654
   1.1450726  78.2979447  54.4444525   2.9574277  76.5765319  47.1433763
   3.7921168  77.0155123  47.3071323   3.0933405  76.1003972  46.3242009
   1.1855529  74.2316933  50.4381856   1.1531849  73.2932934  50.6241540
   1.7956153  74.3100970  49.7047681   1.3350018  71.0227977  50.4840139
   0.8189066  70.2386433  50.2970068   2.2189966  70.6946693  50.6486658
   7.0032079  75.2932940  49.5787893   7.7335468  75.0318228  50.1395596
   6.3939025  74.5561662  49.6189961   5.0847376  73.4340803  50.1762344
   4.3580540  73.2996768  49.5678835   4.6694663  73.7417631  50.9819062
   2.7025171  69.6552655  47.5295775   3.2969662  69.4148391  46.8189084
   2.7751755  68.9359785  48.1569312   5.0096244  72.9618856  46.3039197
   4.4495802  73.0312045  47.0770759   4.4039747  72.7859840  45.5838693
   6.5952262  89.6375370  48.9969152   7.2330672  89.5182117  48.2932492
   6.4773105  90.5856214  49.0557104   3.4041969  89.5902798  48.9330677
   3.0660480  89.4743862  48.0451212   4.2731737  89.1893963  48.9131683
   3.8861752  90.7437649  54.8916883   3.8750392  90.3490448  54.0197386
   4.0482391  90.0103722  55.4850654   4.8428343  95.1109242  40.2342033
   4.1916323  95.6963322  39.8476047   5.6372706  95.6415437  40.2937070
   1.5325220  90.9051610  50.4297426   2.1288792  90.6807632  49.7154389
   1.5900191  90.1636355  51.0322874   6.1493531  87.3626823  46.0722360
   6.9356620  86.9446247  45.7212777   6.4132235  88.2672916  46.2404009
   6.3203608  92.7999674  40.7711017   5.6849441  92.8734300  41.4831922
   5.9901015  93.3893273  40.0930096  11.5501958  87.3002057  46.9755339
  12.2827130  86.7301273  47.2093168  10.7941314  86.9123657  47.4161844
   0.8246537  90.2619151  40.4671992   0.7082795  89.5864054  41.1353076
   0.9348797  89.7751525  39.6504145   3.1678078  89.7229298  44.1718681
   2.8036285  89.1959919  44.8831603   4.0245194  89.3327767  43.9985167
   9.0727378  81.0123631  51.4349947   8.7410703  81.8819042  51.2111162
   8.4772992  80.6959915  52.1143978   2.8083565  84.7519198  39.1680030
   2.9757967  85.6199434  39.5350501   2.6180734  84.9146480  38.2441319
   5.5658898  93.2136177  50.8345860   5.2659621  94.1161216  50.7261667
   5.2209957  92.9468360  51.6867013   8.9656042  85.7318717  48.5143297
   8.0572919  85.6634125  48.2202058   8.9143638  86.2090662  49.3425123
   2.7872786  87.2076855  40.1526697   2.6672411  87.6533906  40.9912177
   2.0925374  87.5562173  39.5940235   3.0396908  87.1508363  56.4578195
   2.2630242  87.7102283  56.4481059   3.6787471  87.6365145  56.9793065
  10.8317688  83.9335155  50.2921171  10.1892068  84.2267688  49.6460966
  10.3272617  83.8188076  51.0974368   8.4857852  87.6798329  40.9807031
   9.3975708  87.9125715  40.8054728   7.9767499  88.2635373  40.4182109
   1.2943280  89.9593816  56.0196162   2.0357964  90.4978860  55.7430985
   0.5880265  90.5860105  56.1767714   6.7698619  92.1022956  54.6168323
   7.1781976  91.6605367  53.8722956   6.0475881  91.5275584  54.8702516
   3.1229690  87.0395563  51.9901880   3.9690885  87.4634977  52.1336529
   3.0628327  86.3829187  52.6840443   7.0927434  92.6624147  48.3720612
   6.4636297  92.8269861  47.6696680   6.7053096  93.0765757  49.1431576
  10.9716666  93.5978585  45.7264976  10.2867704  93.9777486  45.1762009
  11.0560515  94.2073911  46.4596924   6.2729135  84.6999931  53.6483054
   6.0290067  85.4541992  53.1117330   6.5489065  85.0785279  54.4830301
   8.2267598  91.2438544  52.3260319   8.4384493  91.8870304  51.6494701
   8.1797346  90.4100860  51.8582250   5.8293827  83.8556364  49.2296892
   4.9678306  84.1537618  49.5213629   5.8556261  84.0726763  48.2977924
   2.6455396  92.3998555  45.6370697   3.1093742  92.6786258  44.8475320
   2.3812194  91.4982000  45.4543788   1.5824282  88.5221707  42.4460262
   2.2848325  88.9742751  42.9134189   1.2504911  87.8805526  43.0740156
   9.3413426  94.1210499  50.4982677  10.1630869  93.7190687  50.2165358
   9.3375828  94.0178733  51.4498793   3.1070029  93.6694543  52.6543387
   3.1714462  94.1314950  53.4901559   2.3980953  93.0391907  52.7825697
  17.4319419  90.4649248  46.8467648  16.6783127  89.8956646  46.6911653
  17.5666960  90.4311912  47.7938283   2.8218047  95.3362650  42.5222368
   2.6863721  96.1814186  42.9507215   3.3627859  95.5381928  41.7588301
   2.2253347  82.8312109  56.7756979   2.9663061  83.4319262  56.6961442
   2.4571270  82.0889747  56.2175022   4.4486523  95.9586217  56.6522710
   4.0050377  95.1722595  56.3343614   5.1103737  96.1465367  55.9866600
   6.5467761  96.2389016  54.6804111   6.5286236  97.0597898  54.1884380
   7.4687681  96.1143092  54.9054252   3.0040815  93.7533146  55.5227619
   3.5369152  92.9921434  55.2926927   2.4754896  93.4606798  56.2651774
   6.1710510  78.8593212  51.0521261   5.8274780  79.7494854  50.9760372
   6.5389473  78.6694870  50.1890846   6.1360793  88.8501823  39.5593696
   5.6207416  89.6206428  39.7982084   5.8638101  88.1766959  40.1826758
   3.7207904  83.6951524  44.6178935   2.8649500  83.3058374  44.4384573
   4.1334856  83.7743485  43.7578720   5.2507051  81.2297867  49.0170494
   4.7471846  81.1928002  48.2038300   5.5437657  82.1390610  49.0767151
   1.4949937  81.3136597  48.0236676   2.3602933  81.1179405  47.6642566
   1.5627445  81.0846949  48.9506033  11.1095067  91.6034178  41.4946870
  10.3324510  91.2645337  41.0502032  11.7886548  91.6086801  40.8201835
   5.9247096  86.7228915  41.3853477   5.6197232  87.0375064  42.2363621
   6.8777538  86.8010335  41.4280810   4.3693528  92.8819138  43.0346431
   3.8414890  92.1471898  42.7219669   3.8681031  93.6593815  42.7886400
   9.3486374  91.0768159  48.1513478   8.6910048  91.7667420  48.2393606
  10.1526773  91.4664591  48.4947464   8.1591833  89.4312532  46.2017419
   8.6723715  90.0642523  46.7039129   8.8093057  88.8313727  45.8360779
   1.4034923  80.4180054  44.1228112   0.7499336  80.1029071  43.4984727
   1.3615397  79.7955794  44.8487935   2.5146128  90.6999349  36.0381404
   1.6073190  90.4688602  36.2372553   3.0117160  89.9036968  36.2255386
   5.4214207  99.4096856  38.9578091   4.7475906  99.7128553  39.5663048
   5.8080029 100.2125936  38.6083548   4.6372664  86.9061987  48.4475760
   3.7195225  87.1276934  48.2897448   5.0532807  86.9808298  47.5887467
   5.4207711  88.3053403  43.5778440   6.1679530  88.8174800  43.2685562
   5.6899301  87.9837456  44.4382834   3.6934362  90.8011944  40.5605394
   2.7845581  90.5170976  40.6577864   3.7229445  91.2211022  39.7008701
   8.9253629  94.4118533  44.3296562   8.4715956  93.5709443  44.3861752
   8.2947596  95.0479931  44.6671342   7.8686549  85.3410519  45.5597229
   7.1309305  84.8287905  45.8907472   8.1213322  84.9010901  44.7480506
   7.3686568  96.2495030  45.2646380   7.6609543  96.8100087  44.5458746
   7.8785189  96.5423591  46.0199539   7.9698176  78.1186771  46.1538999
   8.2757053  77.2584135  45.8664914   8.6950781  78.7104391  45.9537993
   2.2419256  88.4140564  46.6615190   2.2967865  87.4614401  46.5857666
   1.4310458  88.5700003  47.1456488   3.3910449  92.3420687  37.8993473
   2.9529879  91.6256546  37.4399110   4.1320890  92.5696802  37.3378564
   2.3320193  97.0275381  46.3539833   2.2896372  97.2536227  45.4248365
   3.2482892  96.7938755  46.5025635   5.7785827  87.4959448  53.2520463
   6.1335215  87.7230922  54.1114928   6.4257958  87.8277825  52.6297718
  11.5083564  90.6177884  43.9569792  11.3701463  90.8079480  43.0290981
  11.1519783  91.3797267  44.4137843  11.5352944  92.6854411  48.9681063
  11.9689450  92.5929700  49.8164117  12.2484524  92.6611912  48.3301079
   5.2680839  96.2856505  50.5014164   5.3217861  96.8547442  51.2691880
   4.3995620  96.4558390  50.1368201  12.3968493  92.7278112  51.5013949
  12.5904383  93.6323922  51.7473223  12.2969112  92.2685531  52.3352534
   4.0504804  82.6136003  54.0004276   3.4032719  83.3125952  53.9068752
   4.8205819  83.0472146  54.3680524   7.4583602  92.8784855  57.0754829
   7.3069108  92.6495406  56.1584913   7.4488281  93.8355456  57.0886174
   4.2268938  90.4516767  52.0601096   5.1560998  90.6027927  51.8870063
   3.8059968  90.5400788  51.2049742   3.0257270  94.4767432  49.8299633
   2.8868356  94.1086216  50.7025571   2.2371866  94.9915071  49.6583591
   3.6205422  99.5776528  41.1725170   3.7957178  99.1064572  41.9870792
   2.9338210 100.2042295  41.4006430   4.5762485  93.8549035  47.2188471
   4.2412318  93.8149805  48.1146121   4.0766431  93.1893750  46.7458881
   7.5121677  91.2005069  37.4925531   6.8950848  90.4751897  37.3958583
   7.0438165  91.9614429  37.1492605   1.1789030  88.9736624  52.2324732
   1.8888649  88.3329816  52.1911350   1.1358338  89.2249519  53.1550913
   9.1675809  95.9103977  55.1531311   9.1088355  95.2263197  54.4861894
   9.5695327  96.6522967  54.7011937   9.1693216  93.8743561  53.3845291
   8.2819995  93.5369483  53.5071690   9.7391767  93.1426592  53.6214056
   2.6994369  98.5345014  50.3506534   2.6264541  99.3399985  50.8625838
   2.2571762  98.7336979  49.5254555   2.4884149  97.7716784  43.8609355
   1.7051671  98.3138464  43.9547580   3.1876894  98.2890763  44.2603597
   5.7980799  83.5811413  46.5043561   6.2949499  82.8281375  46.1844631
   5.0267781  83.6175730  45.9386770  13.6510556  89.2851779  48.1461852
  13.6400433  90.1676494  47.7755785  12.7827936  88.9323329  47.9516389
   5.1593053  98.4331848  52.5064693   5.8721025  99.0679312  52.4340594
   4.6683081  98.5295714  51.6904694   6.8810580  92.3383100  44.0781984
   5.9466858  92.4584563  43.9086689   7.0587248  91.4355567  43.8141994
   2.3815768  85.7228796  46.2315245   2.0113555  85.1699836  46.9196151
   2.8774860  85.1186929  45.6790245  10.2683131  88.1800420  44.6132018
  10.7343583  89.0128411  44.5392321  10.7190632  87.7145401  45.3177277
   8.3359362  94.5244241  41.6118170   8.6119206  94.4100835  42.5212044
   7.4663861  94.1261726  41.5730343   8.2399794  80.5481006  48.6522920
   7.3262874  80.7785233  48.8205127   8.6692895  80.6319451  49.5036952
   8.0106252  88.7370898  51.1522814   7.3577703  88.9846806  50.4975266
   8.3886632  87.9235037  50.8185291   4.9713426  98.7730592  45.2550984
   5.1535821  97.9552248  45.7178736   5.7946412  98.9898284  44.8175874
   5.3055592  97.6998777  42.5166032   5.8343358  97.1891231  41.9036195
   5.5683811  97.3841307  43.3811566   4.0593825  89.4790710  57.6388851
   3.3834462  89.3784839  58.3091226   4.8821459  89.3229923  58.1024848
   2.8016608 100.7857637  51.8746467   3.3534916 100.9489258  52.6395552
   3.1422802 101.3762075  51.2026492   7.6527483  95.6118894  57.7295121
   8.1967387  96.2248853  57.2350076   7.0714327  96.1698473  58.2462134
   5.9384996  98.7339612  48.8610149   5.8136135  97.9329352  48.3521094
   6.5964087  99.2285806  48.3724119   8.0019904  96.5348633  50.4889699
   7.0550239  96.4153984  50.4168026   8.3502677  95.6471131  50.5715960
   5.0066337  96.3301349  46.6894051   4.8591300  95.4018056  46.8701621
   5.8319831  96.3521440  46.2051126   8.6100459  97.1529908  47.7758924
   9.5347007  96.9472769  47.6383375   8.4415762  96.9046309  48.6848265
   1.5672022  83.3656467  51.9977611   1.2268843  82.5664280  52.3998291
   0.8611029  83.6658177  51.4254445   2.2188494  80.4505779  50.4504934
   3.0414563  79.9766257  50.3283825   2.4626558  81.2296263  50.9503621
   5.0027852  84.1839186  41.6826168   5.2191466  85.0663824  41.3814997
   4.5221919  83.7925400  40.9531810   1.6023456  84.1327448  48.3077803
   1.5885025  83.2368541  47.9710101   2.3195884  84.1398111  48.9416089
   3.4549587  84.5664788  50.3530930   3.1967364  85.4881859  50.3515261
   2.9234627  84.1695222  51.0431394   8.3995775  97.6715575  43.1321015
   8.5732653  97.1061997  42.3794868   8.8924667  98.4716470  42.9500505
   1.0060352  83.0141828  43.5765373   1.1276263  82.0858474  43.7756260
   0.7162394  83.0280514  42.6643688   3.8751542  80.6996738  46.7132093
   3.8973239  80.7636071  45.7584072   4.2919601  79.8601247  46.9072599
  14.2535166  90.4351998  44.7511315  14.6966312  89.6859323  44.3530438
  13.3761677  90.4262134  44.3685047   9.3870948  96.9882339  40.2317914
  10.0821852  97.6089032  40.4505228   9.7294098  96.1377691  40.5070292
  11.2862371  94.4382045  41.7605245  11.8113695  94.7769318  41.0354565
  11.1984723  93.5029060  41.5768379   2.9482420  98.3516119  53.8895121
   3.2569546  98.1065265  54.7617821   3.7457902  98.5562757  53.4013991
   2.9703032 100.5054028  46.1200498   2.5308022 100.0130407  46.8133354
   3.7211149  99.9626996  45.8792573   0.4901431  84.5273825  57.7855305
   0.5389587  85.4035948  57.4033075   1.0323945  83.9851218  57.2126949
  10.9756277  95.0714949  57.0656442  10.1851821  95.0539087  56.5260942
  10.7389632  95.6103242  57.8205479  11.0954152  91.9207415  54.3789171
  11.1452157  91.7557422  55.3204694  10.9868075  91.0534674  53.9887052
   8.3857914  87.9038343  55.6948478   9.2867777  87.7644808  55.4032476
   8.4605889  88.0692798  56.6346655   2.7200720  85.2805198  54.5401664
   1.8504029  85.5738764  54.2684253   2.9560200  85.8645643  55.2608928
  12.5972349  94.3404356  54.6231193  12.3057157  94.7034337  55.4594654
  11.9844480  93.6271365  54.4444525  13.7968031  91.9057236  47.1433763
  14.6314923  92.3447040  47.3071323  13.9327160  91.4295889  46.3242009
  10.8459537  89.4636971  53.0911251  11.3213659  89.6564617  52.2830102
   9.9225102  89.5196157  52.8454634   5.4239754  81.4984815  52.0567084
   5.9421697  82.2345842  51.7313573   5.0694886  81.8048808  52.8913844
   5.6752348  77.9185097  47.5767981   5.9554101  77.2508286  48.2028408
   6.4602955  78.1114193  47.0642645   3.4785816  97.0944091  39.1393007
   2.9059783  97.7134278  38.6863479   4.0518610  97.6443453  39.6732929
   9.5461206  86.3402731  51.3239556  10.4978629  86.4400829  51.3451780
   9.3764656  85.5481000  51.8337641   7.5675586  83.4258314  51.5098957
   6.9725518  83.7063327  50.8145446   7.2825282  83.9152215  52.2815698
   6.6983076  97.3781241  40.2701590   7.6313749  97.3126803  40.4734465
   6.6106289  98.2137508  39.8116122   9.3271093  96.6947112  37.2305537
   9.2484724  96.3606975  38.1241295  10.1480759  97.1868879  37.2297010
  12.0249284  89.5608851  50.4381856  11.9925604  88.6224852  50.6241540
  12.6349908  89.6392888  49.7047681   3.8632615  88.4304904  36.4809060
   4.8091719  88.3011112  36.5497478   3.4846860  87.6919566  36.9578488
  12.1743772  86.3519894  50.4840139  11.6582821  85.5678351  50.2970068
  13.0583721  86.0238611  50.6486658   9.8354499  80.0960910  46.4435952
   9.6379320  79.7875998  47.3279284  10.4454205  80.8222549  46.5733882
  17.8425834  90.6224858  49.5787893  18.5729222  90.3610146  50.1395596
  17.2332779  89.8853580  49.6189961  15.9241131  88.7632720  50.1762344
  15.1974294  88.6288685  49.5678835  15.5088418  89.0709549  50.9819062
   3.7471307  92.4822650  57.9409717   4.6674317  92.6601249  58.1349763
   3.7120890  91.5378695  57.7889416   2.0475532  86.3554880  36.4163945
   1.1406987  86.0587993  36.4926659   2.3251513  86.0584698  35.5498231
   3.6637598  80.8991770  42.5708186   2.8538326  80.5538855  42.9463432
   4.3522015  80.5899314  43.1595798   5.5928146  79.9769817  44.1932483
   6.1459184  80.3965270  44.8522506   5.8298232  79.0505565  44.2355439
   1.6161245  85.9656890  59.9735247   1.5157972  86.9151247  59.9047338
   1.3982787  85.6375129  59.1011317   0.8174316  83.2141815  36.5575924
   1.6793480  83.5396714  36.8171742   1.0024661  82.4273311  36.0448990
   8.9706953  82.0870342  43.7011147   8.3905622  82.7455146  43.3189200
   8.7042886  81.2647686  43.2898565   7.4210519  81.4875400  45.9032468
   7.9210298  81.5991934  45.0946786   8.0646127  81.1836452  46.5433276
   1.4792515  89.3954029  58.7900309   0.9959597  90.1954389  58.9964198
   1.5653454  89.4061974  57.8367753   7.7531831  84.2470432  42.7567496
   6.8657686  84.5320083  42.5387690   8.1685820  84.0864196  41.9094772
  11.1046367  84.2716953  46.4721835  11.8806757  84.7613406  46.7446452
  10.3794501  84.6975007  46.9293704  13.5418926  84.9844572  47.5295775
  14.1363417  84.7440308  46.8189084  13.6145509  84.2651703  48.1569312
   6.8975044  94.0115107  36.8515515   7.6010895  94.2165109  37.4673171
   6.1737693  94.5791869  37.1164599   7.7272855  89.7624968  42.9717786
   7.6708056  90.2193520  42.1325418   8.2801197  89.0015653  42.7940628
  11.5377661  85.5514700  43.7967905  11.2814595  85.1511336  44.6276113
  10.9130529  86.2658494  43.6718044  15.8489998  88.2910773  46.3039197
  15.2889556  88.3603963  47.0770759  15.2433502  88.1151758  45.5838693
   8.8061742  94.4497636  38.9013976   9.6407346  94.0178835  38.7191450
   8.6446085  94.2779650  39.8290870   8.4607634  90.9529749  40.2670315
   8.4056438  90.7874021  39.3258759   7.8353689  91.6605782  40.4232505
   5.7753541  93.2578661  59.5923878   6.6444701  93.4319314  59.2310513
   5.2960293  94.0773078  59.4699607   1.7703760  80.4537858  39.8455633
   1.7582429  81.3979698  40.0023904   2.6627181  80.2708004  39.5515094
   1.6993323  99.1306749  47.9323390   0.7488954  99.1308610  47.8187762
   2.0025810  98.3839483  47.4159425   5.5855879  77.0480635  44.1001570
   4.8188275  76.4939122  44.2458252   5.9966584  77.1202504  44.9615722
  17.4346017 104.9667287  48.9969152  18.0724427 104.8474035  48.2932492
  17.3166860 105.9148131  49.0557104  14.2435723 104.9194715  48.9330677
  13.9054235 104.8035780  48.0451212  15.1125491 104.5185880  48.9131683
  10.1022539 106.7730192  44.9227568   9.5387404 106.6820129  44.1543856
   9.9874934 105.9530096  45.4030060  14.7255506 106.0729567  54.8916883
  14.7144147 105.6782365  54.0197386  14.8876146 105.3395640  55.4850654
   7.6486971 108.2681383  47.7611788   8.4408263 107.9272208  47.3458088
   7.8883621 108.3776358  48.6813942  15.6822098 110.4401159  40.2342033
  15.0310077 111.0255240  39.8476047  16.4766460 110.9707354  40.2937070
   9.6077725 107.5290297  40.6329167  10.3808601 106.9819284  40.4942043
   9.9603124 108.3934546  40.8443629  11.4462767 108.8566679  53.8396066
  11.1552633 109.7612310  53.7242733  12.0819752 108.8983207  54.5540136
  12.3718974 106.2343527  50.4297426  12.9682546 106.0099550  49.7154389
  12.4293946 105.4928273  51.0322874  11.9444003 103.6882963  38.2647617
  12.1969523 103.1664484  37.5031080  11.0068562 103.5249108  38.3674301
  16.9887285 102.6918741  46.0722360  17.7750375 102.2738164  45.7212777
  17.2525990 103.5964833  46.2404009  17.1597363 108.1291591  40.7711017
  16.5243196 108.2026218  41.4831922  16.8294769 108.7185190  40.0930096
  22.3895713 102.6293974  46.9755339  23.1220885 102.0593191  47.2093168
  21.6335068 102.2415575  47.4161844  11.6640291 105.5911069  40.4671992
  11.5476549 104.9155972  41.1353076  11.7742551 105.1043443  39.6504145
  14.0071832 105.0521216  44.1718681  13.6430040 104.5251837  44.8831603
  14.8638948 104.6619685  43.9985167  19.9121133  96.3415548  51.4349947
  19.5804458  97.2110959  51.2111162  19.3166746  96.0251832  52.1143978
  13.6477319 100.0811115  39.1680030  13.8151722 100.9491352  39.5350501
  13.4574488 100.2438397  38.2441319  16.4052652 108.5428094  50.8345860
  16.1053376 109.4453133  50.7261667  16.0603712 108.2760278  51.6867013
   9.8565134 104.9941891  46.8682565   8.9315630 104.8618105  47.0760256
  10.1049547 105.7736110  47.3652507  19.8049796 101.0610635  48.5143297
  18.8966674 100.9926043  48.2202058  19.7537392 101.5382580  49.3425123
  13.6266540 102.5368773  40.1526697  13.5066165 102.9825824  40.9912177
  12.9319129 102.8854091  39.5940235   7.2173945 104.6375165  47.7026354
   7.3466326 104.8909644  48.6165765   6.5371396 105.2302873  47.3831009
  11.3873432 115.3072415  43.8016828  11.3097462 116.2580240  43.8805308
  10.7835076 114.9618287  44.4591754  13.8790662 102.4800280  56.4578195
  13.1023996 103.0394200  56.4481059  14.5181225 102.9657063  56.9793065
  21.6711443  99.2627073  50.2921171  21.0285823  99.5559606  49.6460966
  21.1666371  99.1479993  51.0974368  19.3251606 103.0090246  40.9807031
  20.2369462 103.2417633  40.8054728  18.8161253 103.5927290  40.4182109
  12.1337034 105.2885734  56.0196162  12.8751719 105.8270778  55.7430985
  11.4274020 105.9152022  56.1767714  17.6092374 107.4314874  54.6168323
  18.0175730 106.9897285  53.8722956  16.8869635 106.8567502  54.8702516
  13.9623444 102.3687481  51.9901880  14.8084639 102.7926894  52.1336529
  13.9022082 101.7121105  52.6840443  17.9321189 107.9916065  48.3720612
  17.3030051 108.1561779  47.6696680  17.5446851 108.4057674  49.1431576
  21.8110421 108.9270502  45.7264976  21.1261459 109.3069404  45.1762009
  21.8954270 109.5365829  46.4596924  17.1122889 100.0291849  53.6483054
  16.8683821 100.7833910  53.1117330  17.3882820 100.4077197  54.4830301
  19.0661352 106.5730462  52.3260319  19.2778247 107.2162221  51.6494701
  19.0191100 105.7392778  51.8582250  16.6687581  99.1848282  49.2296892
  15.8072060  99.4829536  49.5213629  16.6950016  99.4018681  48.2977924
  13.4849150 107.7290473  45.6370697  13.9487496 108.0078176  44.8475320
  13.2205949 106.8273917  45.4543788  10.3773232 107.2761954  48.5750460
  10.9474589 107.7049223  47.9367945  10.9681343 106.9944539  49.2734646
  12.4218037 103.8513625  42.4460262  13.1242080 104.3034669  42.9134189
  12.0898665 103.2097444  43.0740156  10.8698398 102.4425382  56.8211472
  10.2397059 103.1241663  57.0546869  10.7634486 102.3308463  55.8764610
   6.1643370 102.1097178  47.7477396   5.3742424 102.3654706  47.2717507
   6.6554618 102.9245516  47.8529436  20.1807180 109.4502417  50.4982677
  21.0024624 109.0482604  50.2165358  20.1769583 109.3470651  51.4498793
   8.1158116 102.4741757  44.7060873   7.3189279 102.5860451  45.2244368
   7.8883708 102.8128409  43.8401763  13.9463784 108.9986460  52.6543387
  14.0108216 109.4606867  53.4901559  13.2374707 108.3683825  52.7825697
   4.4481073 102.3627668  50.1792387   4.6989112 103.2474678  50.4449963
   4.9840622 102.1832270  49.4067479  28.2713173 105.7941165  46.8467648
  27.5176881 105.2248563  46.6911653  28.4060714 105.7603830  47.7938283
  13.6611801 110.6654568  42.5222368  13.5257476 111.5106103  42.9507215
  14.2021614 110.8673845  41.7588301  10.1479141  96.7446148  59.1836723
   9.7546086  96.1912346  59.8584367  10.9645281  97.0556726  59.5743240
   7.1141199 108.1830006  43.0950293   7.6265719 108.9773256  43.2455857
   7.7663911 107.4856296  43.0283894   8.9236083 111.2995762  45.1773046
   9.1002712 112.2213727  44.9894030   9.7192917 110.9854181  45.6067426
  13.0647102  98.1604027  56.7756979  13.8056815  98.7611180  56.6961442
  13.2965025  97.4181664  56.2175022   8.2088440 103.3460394  55.0535209
   8.0941955 102.4445651  55.3542308   7.3532958 103.5924091  54.7020026
  15.2880278 111.2878134  56.6522710  14.8444132 110.5014513  56.3343614
  15.9497491 111.4757285  55.9866600  10.0467399 112.8173936  51.1783388
  10.5974824 112.6890999  50.4060382   9.2078875 113.1168825  50.8278281
  17.3861516 111.5680934  54.6804111  17.3679991 112.3889815  54.1884380
  18.3081436 111.4435009  54.9054252  13.8434570 109.0825064  55.5227619
  14.3762907 108.3213352  55.2926927  13.3148651 108.7898715  56.2651774
  17.0104265  94.1885130  51.0521261  16.6668534  95.0786771  50.9760372
  17.3783227  93.9986787  50.1890846   5.0790115 106.5118660  43.8709863
   5.9165337 106.9215668  43.6543571   5.2568383 105.5718102  43.8410057
  16.9754547 104.1793741  39.5593696  16.4601171 104.9498345  39.7982084
  16.7031856 103.5058877  40.1826758  14.5601658  99.0243441  44.6178935
  13.7043255  98.6350292  44.4384573  14.9728610  99.1035402  43.7578720
  16.0900805  96.5589785  49.0170494  15.5865601  96.5219920  48.2038300
  16.3831412  97.4682527  49.0767151  12.3343691  96.6428514  48.0236676
  13.1996688  96.4471323  47.6642566  12.4021200  96.4138866  48.9506033
  21.9488822 106.9326095  41.4946870  21.1718264 106.5937255  41.0502032
  22.6280303 106.9378719  40.8201835  16.7640851 102.0520833  41.3853477
  16.4590986 102.3666982  42.2363621  17.7171293 102.1302253  41.4280810
  15.2087282 108.2111056  43.0346431  14.6808644 107.4763816  42.7219669
  14.7074785 108.9885732  42.7886400  20.1880128 106.4060077  48.1513478
  19.5303803 107.0959338  48.2393606  20.9920528 106.7956509  48.4947464
   9.9406010  98.8730722  45.3953043  10.5149762  98.6505904  44.6626236
  10.5276993  98.9419417  46.1481644  18.9985587 104.7604449  46.2017419
  19.5117469 105.3934441  46.7039129  19.6486811 104.1605645  45.8360779
  10.2675597 100.9035183  39.4148928   9.4312909 101.2409870  39.7358203
  10.1280367 100.7684163  38.4776065  12.2428678  95.7471971  44.1228112
  11.5893090  95.4320988  43.4984727  12.2009152  95.1247712  44.8487935
  13.3539883 106.0291266  36.0381404  12.4466944 105.7980520  36.2372553
  13.8510915 105.2328886  36.2255386  16.2607962 114.7388774  38.9578091
  15.5869660 115.0420470  39.5663048  16.6473783 115.5417854  38.6083548
  15.4766418 102.2353905  48.4475760  14.5588980 102.4568852  48.2897448
  15.8926562 102.3100215  47.5887467  16.2601466 103.6345321  43.5778440
  17.0073285 104.1466718  43.2685562  16.5293055 103.3129373  44.4382834
  14.5328116 106.1303861  40.5605394  13.6239335 105.8462894  40.6577864
  14.5623200 106.5502940  39.7008701  19.7647384 109.7410451  44.3296562
  19.3109711 108.9001361  44.3861752  19.1341350 110.3771849  44.6671342
  18.7080303 100.6702437  45.5597229  17.9703060 100.1579823  45.8907472
  18.9607077 100.2302818  44.7480506  18.2080323 111.5786947  45.2646380
  18.5003297 112.1392005  44.5458746  18.7178943 111.8715508  46.0199539
  18.8091930  93.4478689  46.1538999  19.1150807  92.5876052  45.8664914
  19.5344535  94.0396309  45.9537993   5.1016286 103.8509375  44.5420597
   4.9040686 103.2578736  43.8171663   4.5462950 103.5461586  45.2596535
  13.0813010 103.7432482  46.6615190  13.1361620 102.7906318  46.5857666
  12.2704212 103.8991921  47.1456488  14.2304204 107.6712605  37.8993473
  13.7923634 106.9548464  37.4399110  14.9714645 107.8988720  37.3378564
  11.0205370 102.3609542  44.4205569  10.2073236 102.6603712  44.8270761
  11.5164364 101.9665230  45.1380051  13.1713948 112.3567299  46.3539833
  13.1290127 112.5828145  45.4248365  14.0876647 112.1230673  46.5025635
  16.6179582 102.8251366  53.2520463  16.9728969 103.0522839  54.1114928
  17.2651713 103.1569743  52.6297718  22.3477319 105.9469802  43.9569792
  22.2095217 106.1371398  43.0290981  21.9913537 106.7089185  44.4137843
  10.5119445  99.9327897  50.0366804  11.1518824  99.7916656  49.3389767
   9.6796975  99.6462411  49.6605406  22.3746698 108.0146329  48.9681063
  22.8083205 107.9221618  49.8164117  23.0878279 107.9903829  48.3301079
  11.2879749 109.2330328  46.1501796  12.0820347 108.7380648  45.9484371
  10.5771441 108.7048191  45.7869502  16.1074593 111.6148423  50.5014164
  16.1611615 112.1839359  51.2691880  15.2389375 111.7850308  50.1368201
   7.5962512 103.3773409  42.2261549   6.6660100 103.3157865  42.4431511
   7.6919984 102.8549362  41.4298190   7.5148061  99.9028222  44.8139790
   7.7754879 100.8173555  44.7048951   8.3365234  99.4352665  44.9636403
   8.9872987 101.3165979  51.9838615   9.6596040 101.1083341  51.3351264
   8.1602773 101.1188065  51.5443847  23.2362248 108.0570030  51.5013949
  23.4298138 108.9615840  51.7473223  23.1362866 107.5977449  52.3352534
  14.8898559  97.9427920  54.0004276  14.2426474  98.6417870  53.9068752
  15.6599574  98.3764064  54.3680524  18.2977357 108.2076772  57.0754829
  18.1462863 107.9787324  56.1584913  18.2882036 109.1647374  57.0886174
  15.0662693 105.7808685  52.0601096  15.9954753 105.9319845  51.8870063
  14.6453723 105.8692706  51.2049742  13.8651025 109.8059350  49.8299633
  13.7262110 109.4378134  50.7025571  13.0765621 110.3206989  49.6583591
  14.4599177 114.9068446  41.1725170  14.6350932 114.4356489  41.9870792
  13.7731965 115.5334212  41.4006430  15.4156240 109.1840952  47.2188471
  15.0806072 109.1441722  48.1146121  14.9160186 108.5185668  46.7458881
   9.3900484 104.5908582  52.7441052   9.2520282 103.8588821  53.3452591
  10.3005407 104.5017482  52.4625240  18.3515431 106.5296987  37.4925531
  17.7344602 105.8043815  37.3958583  17.8831920 107.2906347  37.1492605
  12.0182784 104.3028542  52.2324732  12.7282403 103.6621734  52.1911350
  11.9752093 104.5541436  53.1550913  20.0069563 111.2395895  55.1531311
  19.9482109 110.5555115  54.4861894  20.4089082 111.9814885  54.7011937
  10.7311718 101.2893759  54.0520371  10.1949075 100.8384498  54.7041968
  10.1428427 101.4239668  53.3090836   9.0260262 118.0557809  47.9465030
   9.2656860 118.6876333  48.6244048   8.1829458 117.7045849  48.2330389
  10.1413977 100.7482411  36.6146835   9.2643444 100.6271212  36.2509082
  10.6171730  99.9568489  36.3625724  20.0086970 109.2035479  53.3845291
  19.1213749 108.8661401  53.5071690  20.5785521 108.4718510  53.6214056
   1.6616118 105.5359571  46.7088342   2.3487157 105.2221301  46.1209357
   1.5064246 106.4400935  46.4355593   6.4650840 100.4249767  51.1373366
   6.3809028  99.8175437  50.4023776   5.6433546 100.9158785  51.1382862
  13.5388124 113.8636931  50.3506534  13.4658295 114.6691903  50.8625838
  13.0965517 114.0628897  49.5254555  13.3277903 113.1008701  43.8609355
  12.5445425 113.6430381  43.9547580  14.0270649 113.6182681  44.2603597
  16.6374554  98.9103331  46.5043561  17.1343253  98.1573293  46.1844631
  15.8661535  98.9467647  45.9386770  24.4904311 104.6143696  48.1461852
  24.4794187 105.4968412  47.7755785  23.6221690 104.2615247  47.9516389
  15.9986807 113.7623765  52.5064693  16.7114780 114.3971230  52.4340594
  15.5076836 113.8587631  51.6904694  17.7204334 107.6675018  44.0781984
  16.7860613 107.7876480  43.9086689  17.8981003 106.7647485  43.8141994
  13.2209522 101.0520714  46.2315245  12.8507310 100.4991754  46.9196151
  13.7168615 100.4478847  45.6790245  21.1076886 103.5092337  44.6132018
  21.5737338 104.3420329  44.5392321  21.5584386 103.0437319  45.3177277
  11.0498721 111.5118209  53.3270263  11.7508180 112.1454692  53.4799658
  10.5793836 111.8532940  52.5665903  19.1753117 109.8536158  41.6118170
  19.4512961 109.7392753  42.5212044  18.3057615 109.4553643  41.5730343
  19.0793548  95.8772924  48.6522920  18.1656628  96.1077151  48.8205127
  19.5086650  95.9611368  49.5036952  18.8500007 104.0662816  51.1522814
  18.1971457 104.3138724  50.4975266  19.2280387 103.2526954  50.8185291
  15.8107181 114.1022509  45.2550984  15.9929575 113.2844165  45.7178736
  16.6340167 114.3190202  44.8175874  16.1449346 113.0290694  42.5166032
  16.6737113 112.5183149  41.9036195  16.4077566 112.7133225  43.3811566
  14.8987580 104.8082627  57.6388851  14.2228217 104.7076757  58.3091226
  15.7215214 104.6521841  58.1024848   6.6466439 111.0454564  50.2601366
   7.2319876 110.2998252  50.3929270   6.4491277 111.3558520  51.1438030
   9.5005094 114.0805811  45.2763808   8.8315469 114.5651939  44.7927848
   9.3617964 114.3275032  46.1907187   1.2384094 103.6160164  48.9805809
   1.2768193 103.0823755  49.7742927   0.7324386 103.0895369  48.3616786
  13.6410363 116.1149555  51.8746467  14.1928671 116.2781176  52.6395552
  13.9816556 116.7053992  51.2026492   8.6174856  98.4624704  52.4768351
   8.6816182  99.3239535  52.0645749   8.5541976  97.8498706  51.7440710
   8.0927129 100.5347837  56.1241386   8.7199167 100.1524914  56.7378910
   7.2355047 100.3162039  56.4897078  18.4921237 110.9410812  57.7295121
  19.0361141 111.5540770  57.2350076  17.9108082 111.4990391  58.2462134
   4.8692671 102.3424266  42.0559741   5.1646112 101.4334945  42.0026794
   3.9680707 102.3212006  41.7340743  16.7778750 114.0631530  48.8610149
  16.6529889 113.2621270  48.3521094  17.4357841 114.5577724  48.3724119
   8.3986918 100.4180263  48.0387289   7.6773504 101.0316230  47.8994762
   9.1880174 100.9538028  47.9603935  18.8413658 111.8640550  50.4889699
  17.8943994 111.7445901  50.4168026  19.1896432 110.9763048  50.5715960
  11.2013232  97.7534689  54.3127941  11.7247634  97.9996986  55.0754250
  10.9825565  98.5854724  53.8931078   6.5980513 100.0238364  42.1799066
   6.2693219  99.1435743  41.9974172   6.9519884  99.9686032  43.0675455
  15.8460092 111.6593266  46.6894051  15.6985054 110.7309974  46.8701621
  16.6713585 111.6813357  46.2051126   9.7122336 100.3111334  42.5474543
  10.0518409 100.8397255  41.8253152  10.1594456 100.6491740  43.3233110
  19.4494214 112.4821825  47.7758924  20.3740761 112.2764687  47.6383375
  19.2809517 112.2338226  48.6848265  12.4065777  98.6948384  51.9977611
  12.0662597  97.8956197  52.3998291  11.7004783  98.9950095  51.4254445
  13.0582249  95.7797697  50.4504934  13.8808318  95.3058175  50.3283825
  13.3020312  96.5588180  50.9503621  11.6990483  98.8085955  40.7467836
  12.4198846  99.1867208  40.2431553  11.0755787  99.5274832  40.8502814
  15.8421606  99.5131104  41.6826168  16.0585220 100.3955742  41.3814997
  15.3615673  99.1217318  40.9531810  10.5820827 102.4716817  48.2596913
  10.4365408 102.7857120  49.1521195  10.1046031 103.0901718  47.7067812
  12.4417210  99.4619365  48.3077803  12.4278779  98.5660459  47.9710101
  13.1589638  99.4690029  48.9416089  14.2943341  99.8956706  50.3530930
  14.0361119 100.8173776  50.3515261  13.7628381  99.4987140  51.0431394
  19.2389530 113.0007493  43.1321015  19.4126407 112.4353915  42.3794868
  19.7318421 113.8008388  42.9500505   5.0566490 105.0122162  51.1984574
   4.5119958 105.7881970  51.3304849   5.9345839 105.3592966  51.0403696
  11.8454106  98.3433746  43.5765373  11.9670017  97.4150392  43.7756260
  11.5556149  98.3572432  42.6643688  14.7145297  96.0288656  46.7132093
  14.7366993  96.0927989  45.7584072  15.1313356  95.1893165  46.9072599
  25.0928921 105.7643916  44.7511315  25.5360067 105.0151241  44.3530438
  24.2155431 105.7554052  44.3685047  20.2264702 112.3174257  40.2317914
  20.9215607 112.9380950  40.4505228  20.5687852 111.4669608  40.5070292
   5.8432511 104.1392058  54.0914731   5.1014247 104.2874693  54.6779362
   5.5225256 104.4000324  53.2281481  22.1256125 109.7673963  41.7605245
  22.6507449 110.1061235  41.0354565  22.0378478 108.8320978  41.5768379
  13.7876174 113.6808036  53.8895121  14.0963301 113.4357183  54.7617821
  14.5851656 113.8854675  53.4013991  13.8096786 115.8345946  46.1200498
  13.3701776 115.3422325  46.8133354  14.5604903 115.2918914  45.8792573
   6.2889125 112.0257487  46.1225126   7.1147145 111.7261259  45.7423769
   5.9383177 111.2565109  46.5714914  11.2570658 111.3783955  48.1922799
  10.6350668 110.7154660  47.8925027  11.9275525 111.4045087  47.5096447
   4.4897730 109.9443813  47.0814059   3.6529638 109.5165988  46.8998061
   4.4621376 110.1376257  48.0184851  11.3295186  99.8565743  57.7855305
  11.3783341 100.7327866  57.4033075  11.8717700  99.3143136  57.2126949
  21.8150031 110.4006866  57.0656442  21.0245575 110.3831005  56.5260942
  21.5783386 110.9395160  57.8205479  21.9347906 107.2499333  54.3789171
  21.9845911 107.0849340  55.3204694  21.8261830 106.3826592  53.9887052
  10.8184165 109.9287878  41.6681260  10.9672286 110.6123343  41.0147933
  11.6250609 109.9092968  42.1830716  19.2251669 103.2330261  55.6948478
  20.1261532 103.0936725  55.4032476  19.2999643 103.3984715  56.6346655
  13.5594474 100.6097115  54.5401664  12.6897784 100.9030681  54.2684253
  13.7953955 101.1937560  55.2608928  23.4366103 109.6696274  54.6231193
  23.1450912 110.0326255  55.4594654  22.8238235 108.9563282  54.4444525
  24.6361786 107.2349154  47.1433763  25.4708677 107.6738958  47.3071323
  24.7720914 106.7587807  46.3242009  21.6853292 104.7928889  53.0911251
  22.1607413 104.9856535  52.2830102  20.7618857 104.8488075  52.8454634
   8.5736798 105.9553056  42.6742329   8.3282840 105.0515386  42.8722539
   8.7432713 105.9570206  41.7321807  16.2633508  96.8276732  52.0567084
  16.7815452  97.5637759  51.7313573  15.9088641  97.1340726  52.8913844
   7.8432446 101.6881414  40.1728490   7.1501691 101.7625768  39.5168526
   7.5984198 100.9241757  40.6950007  16.5146102  93.2477015  47.5767981
  16.7947856  92.5800204  48.2028408  17.2996709  93.4406110  47.0642645
  14.3179571 112.4236009  39.1393007  13.7453538 113.0426196  38.6863479
  14.8912364 112.9735370  39.6732929  20.3854961 101.6694649  51.3239556
  21.3372383 101.7692747  51.3451780  20.2158411 100.8772917  51.8337641
  18.4069340  98.7550232  51.5098957  17.8119272  99.0355245  50.8145446
  18.1219037  99.2444133  52.2815698  17.5376830 112.7073159  40.2701590
  18.4707504 112.6418721  40.4734465  17.4500043 113.5429426  39.8116122
  20.1664847 112.0239029  37.2305537  20.0878479 111.6898893  38.1241295
  20.9874514 112.5160797  37.2297010  22.8643038 104.8900769  50.4381856
  22.8319358 103.9516769  50.6241540  23.4743662 104.9684805  49.7047681
  14.7026369 103.7596822  36.4809060  15.6485474 103.6303030  36.5497478
  14.3240614 103.0211483  36.9578488  23.0137527 101.6811812  50.4840139
  22.4976575 100.8970269  50.2970068  23.8977475 101.3530529  50.6486658
  20.6748254  95.4252828  46.4435952  20.4773075  95.1167916  47.3279284
  21.2847959  96.1514466  46.5733882  28.6819588 105.9516775  49.5787893
  29.4122977 105.6902064  50.1395596  28.0726534 105.2145497  49.6189961
  26.7634885 104.0924638  50.1762344  26.0368049 103.9580603  49.5678835
  26.3482172 104.4001467  50.9819062  14.5865062 107.8114568  57.9409717
  15.5068071 107.9893167  58.1349763  14.5514645 106.8670613  57.7889416
  12.8869286 101.6846798  36.4163945  11.9800742 101.3879911  36.4926659
  13.1645267 101.3876616  35.5498231   3.8047227 103.0053161  46.8662991
   3.4850011 102.1518469  46.5737365   3.2580655 103.2201739  47.6220959
   7.5827134 105.7215602  50.5832498   7.8013144 106.6532710  50.6020532
   7.9952908 105.3623577  51.3687302  14.5031352  96.2283688  42.5708186
  13.6932080  95.8830773  42.9463432  15.1915769  95.9191231  43.1595798
  16.4321900  95.3061734  44.1932483  16.9852939  95.7257188  44.8522506
  16.6691987  94.3797483  44.2355439  12.4555000 101.2948808  59.9735247
  12.3551726 102.2443165  59.9047338  12.2376542 100.9667047  59.1011317
  11.6568071  98.5433733  36.5575924  12.5187235  98.8688631  36.8171742
  11.8418415  97.7565229  36.0448990   3.6735487 106.6256073  48.8356113
   2.9798958 106.2110026  48.3226067   4.4208478 106.6676609  48.2389532
  19.8100707  97.4162260  43.7011147  19.2299377  98.0747064  43.3189200
  19.5436640  96.5939604  43.2898565  18.2604274  96.8167317  45.9032468
  18.7604052  96.9283852  45.0946786  18.9039882  96.5128370  46.5433276
  12.3186270 104.7245947  58.7900309  11.8353351 105.5246307  58.9964198
  12.4047209 104.7353892  57.8367753   5.5872229 106.5574327  46.7122128
   5.5642917 106.6562014  45.7604011   5.8972866 107.4039477  47.0339294
   8.2459607 108.6150482  50.8268742   9.2002861 108.5834424  50.7598674
   8.0472131 108.1541105  51.6418968   8.8358989 107.1851598  53.3939540
   9.6551878 107.6795676  53.4174377   9.1095797 106.2683566  53.3657108
  18.5925585  99.5762350  42.7567496  17.7051441  99.8612001  42.5387690
  19.0079575  99.4156113  41.9094772  21.9440122  99.6008871  46.4721835
  22.7200512 100.0905323  46.7446452  21.2188256 100.0266925  46.9293704
  24.3812680 100.3136490  47.5295775  24.9757171 100.0732226  46.8189084
  24.4539264  99.5943621  48.1569312   6.6009836 114.1570101  47.8438940
   6.4664304 113.3970502  47.2776938   6.1841898 114.8811001  47.3767729
  17.7368799 109.3407025  36.8515515  18.4404649 109.5457027  37.4673171
  17.0131448 109.9083787  37.1164599  18.5666609 105.0916886  42.9717786
  18.5101811 105.5485437  42.1325418  19.1194952 104.3307570  42.7940628
  22.3771415 100.8806618  43.7967905  22.1208349 100.4803253  44.6276113
  21.7524283 101.5950412  43.6718044  26.6883753 103.6202691  46.3039197
  26.1283311 103.6895880  47.0770759  26.0827256 103.4443676  45.5838693
   9.7578962 115.0539418  48.0557383   9.6411346 115.9984851  47.9536073
   8.9371408 114.7512980  48.4443182  19.6455496 109.7789554  38.9013976
  20.4801100 109.3470752  38.7191450  19.4839839 109.6071568  39.8290870
  19.3001389 106.2821667  40.2670315  19.2450192 106.1165939  39.3258759
  18.6747444 106.9897700  40.4232505   4.0893904 101.5189732  54.0931737
   4.7352767 101.0088685  54.5818962   3.8811055 102.2558413  54.6675162
  16.6147296 108.5870579  59.5923878  17.4838455 108.7611231  59.2310513
  16.1354047 109.4064996  59.4699607  12.6097514  95.7829776  39.8455633
  12.5976184  96.7271616  40.0023904  13.5020936  95.5999922  39.5515094
  10.7833476 115.7067680  51.2713311  11.6860723 115.7391290  51.5879806
  10.5570846 114.7768131  51.2859647  12.5387078 114.4598667  47.9323390
  11.5882709 114.4600528  47.8187762  12.8419564 113.7131401  47.4159425
  16.4249633  92.3772553  44.1001570  15.6582029  91.8231039  44.2458252
  16.8360338  92.4494422  44.9615722   8.4291395  98.6657349  58.1906751
   9.2922856  98.3094153  58.4010076   7.8556805  98.3271243  58.8782156
  28.2739771 120.2959205  48.9969152  28.9118181 120.1765952  48.2932492
  28.1560614 121.2440049  49.0557104  25.0829478 120.2486633  48.9330677
  24.7447989 120.1327698  48.0451212  25.9519246 119.8477798  48.9131683
  20.9416293 122.1022109  44.9227568  20.3781159 122.0112046  44.1543856
  20.8268688 121.2822014  45.4030060  25.5649261 121.4021485  54.8916883
  25.5537901 121.0074283  54.0197386  25.7269900 120.6687557  55.4850654
  18.4880725 123.5973301  47.7611788  19.2802017 123.2564126  47.3458088
  18.7277376 123.7068276  48.6813942  26.5215852 125.7693077  40.2342033
  25.8703832 126.3547158  39.8476047  27.3160215 126.2999272  40.2937070
  20.4471479 122.8582214  40.6329167  21.2202355 122.3111201  40.4942043
  20.7996878 123.7226464  40.8443629  22.2856522 124.1858597  53.8396066
  21.9946388 125.0904227  53.7242733  22.9213506 124.2275124  54.5540136
  23.2112729 121.5635445  50.4297426  23.8076301 121.3391467  49.7154389
  23.2687700 120.8220191  51.0322874  22.7837757 119.0174880  38.2647617
  23.0363278 118.4956402  37.5031080  21.8462316 118.8541026  38.3674301
  27.8281040 118.0210659  46.0722360  28.6144129 117.6030082  45.7212777
  28.0919744 118.9256751  46.2404009  27.9991117 123.4583509  40.7711017
  27.3636950 123.5318136  41.4831922  27.6688524 124.0477108  40.0930096
  33.2289467 117.9585892  46.9755339  33.9614639 117.3885109  47.2093168
  32.4728823 117.5707492  47.4161844  22.5034046 120.9202986  40.4671992
  22.3870304 120.2447890  41.1353076  22.6136306 120.4335360  39.6504145
  24.8465587 120.3813133  44.1718681  24.4823794 119.8543754  44.8831603
  25.7032703 119.9911603  43.9985167  30.7514887 111.6707466  51.4349947
  30.4198212 112.5402877  51.2111162  30.1560501 111.3543750  52.1143978
  24.4871074 115.4103033  39.1680030  24.6545476 116.2783270  39.5350501
  24.2968243 115.5730315  38.2441319  27.2446407 123.8720012  50.8345860
  26.9447130 124.7745051  50.7261667  26.8997466 123.6052195  51.6867013
  20.6958888 120.3233809  46.8682565  19.7709385 120.1910023  47.0760256
  20.9443302 121.1028028  47.3652507  30.6443551 116.3902552  48.5143297
  29.7360428 116.3217961  48.2202058  30.5931147 116.8674497  49.3425123
  24.4660295 117.8660691  40.1526697  24.3459920 118.3117741  40.9912177
  23.7712883 118.2146008  39.5940235  18.0567699 119.9667082  47.7026354
  18.1860081 120.2201561  48.6165765  17.3765151 120.5594790  47.3831009
  22.2267187 130.6364332  43.8016828  22.1491216 131.5872158  43.8805308
  21.6228830 130.2910205  44.4591754  24.7184417 117.8092198  56.4578195
  23.9417751 118.3686118  56.4481059  25.3574980 118.2948981  56.9793065
  32.5105197 114.5918991  50.2921171  31.8679577 114.8851524  49.6460966
  32.0060126 114.4771911  51.0974368  30.1645361 118.3382164  40.9807031
  31.0763217 118.5709551  40.8054728  29.6555008 118.9219208  40.4182109
  22.9730789 120.6177651  56.0196162  23.7145473 121.1562695  55.7430985
  22.2667774 121.2443940  56.1767714  28.4486128 122.7606792  54.6168323
  28.8569484 122.3189202  53.8722956  27.7263390 122.1859419  54.8702516
  24.8017198 117.6979398  51.9901880  25.6478394 118.1218812  52.1336529
  24.7415836 117.0413023  52.6840443  28.7714943 123.3207982  48.3720612
  28.1423806 123.4853696  47.6696680  28.3840605 123.7349592  49.1431576
  32.6504175 124.2562420  45.7264976  31.9655213 124.6361322  45.1762009
  32.7348024 124.8657747  46.4596924  27.9516644 115.3583767  53.6483054
  27.7077576 116.1125827  53.1117330  28.2276574 115.7369114  54.4830301
  29.9055107 121.9022379  52.3260319  30.1172002 122.5454139  51.6494701
  29.8584855 121.0684696  51.8582250  27.5081336 114.5140200  49.2296892
  26.6465815 114.8121453  49.5213629  27.5343770 114.7310599  48.2977924
  24.3242905 123.0582390  45.6370697  24.7881251 123.3370093  44.8475320
  24.0599703 122.1565835  45.4543788  21.2166986 122.6053872  48.5750460
  21.7868343 123.0341140  47.9367945  21.8075098 122.3236457  49.2734646
  23.2611791 119.1805543  42.4460262  23.9635834 119.6326586  42.9134189
  22.9292420 118.5389362  43.0740156  21.7092153 117.7717299  56.8211472
  21.0790813 118.4533580  57.0546869  21.6028240 117.6600381  55.8764610
  17.0037125 117.4389095  47.7477396  16.2136179 117.6946624  47.2717507
  17.4948372 118.2537433  47.8529436  31.0200935 124.7794335  50.4982677
  31.8418378 124.3774522  50.2165358  31.0163337 124.6762569  51.4498793
  18.9551870 117.8033675  44.7060873  18.1583034 117.9152369  45.2244368
  18.7277463 118.1420327  43.8401763  24.7857538 124.3278378  52.6543387
  24.8501971 124.7898785  53.4901559  24.0768462 123.6975743  52.7825697
  15.2874828 117.6919586  50.1792387  15.5382866 118.5766596  50.4449963
  15.8234376 117.5124187  49.4067479  39.1106928 121.1233083  46.8467648
  38.3570636 120.5540481  46.6911653  39.2454469 121.0895748  47.7938283
  24.5005556 125.9946485  42.5222368  24.3651230 126.8398021  42.9507215
  25.0415368 126.1965763  41.7588301  20.9872895 112.0738065  59.1836723
  20.5939841 111.5204264  59.8584367  21.8039036 112.3848644  59.5743240
  17.9534953 123.5121923  43.0950293  18.4659474 124.3065174  43.2455857
  18.6057666 122.8148214  43.0283894  19.7629838 126.6287680  45.1773046
  19.9396466 127.5505644  44.9894030  20.5586671 126.3146099  45.6067426
  23.9040856 113.4895944  56.7756979  24.6450570 114.0903097  56.6961442
  24.1358779 112.7473582  56.2175022  19.0482194 118.6752312  55.0535209
  18.9335709 117.7737569  55.3542308  18.1926712 118.9216008  54.7020026
  26.1274032 126.6170052  56.6522710  25.6837886 125.8306430  56.3343614
  26.7891246 126.8049202  55.9866600  20.8861153 128.1465853  51.1783388
  21.4368578 128.0182917  50.4060382  20.0472629 128.4460743  50.8278281
  28.2255270 126.8972852  54.6804111  28.2073745 127.7181733  54.1884380
  29.1475190 126.7726927  54.9054252  24.6828324 124.4116981  55.5227619
  25.2156661 123.6505269  55.2926927  24.1542405 124.1190633  56.2651774
  27.8498019 109.5177047  51.0521261  27.5062289 110.4078689  50.9760372
  28.2176982 109.3278705  50.1890846  15.9183870 121.8410578  43.8709863
  16.7559092 122.2507586  43.6543571  16.0962138 120.9010020  43.8410057
  27.8148302 119.5085658  39.5593696  27.2994925 120.2790263  39.7982084
  27.5425610 118.8350795  40.1826758  25.3995413 114.3535359  44.6178935
  24.5437009 113.9642210  44.4384573  25.8122365 114.4327320  43.7578720
  26.9294560 111.8881702  49.0170494  26.4259355 111.8511838  48.2038300
  27.2225166 112.7974445  49.0767151  23.1737445 111.9720432  48.0236676
  24.0390442 111.7763241  47.6642566  23.2414954 111.7430784  48.9506033
  32.7882576 122.2618013  41.4946870  32.0112019 121.9229173  41.0502032
  33.4674057 122.2670636  40.8201835  27.6034605 117.3812750  41.3853477
  27.2984741 117.6958900  42.2363621  28.5565047 117.4594170  41.4280810
  26.0481037 123.5402974  43.0346431  25.5202399 122.8055733  42.7219669
  25.5468540 124.3177650  42.7886400  31.0273883 121.7351994  48.1513478
  30.3697557 122.4251256  48.2393606  31.8314282 122.1248426  48.4947464
  20.7799765 114.2022640  45.3953043  21.3543516 113.9797822  44.6626236
  21.3670747 114.2711335  46.1481644  29.8379342 120.0896367  46.2017419
  30.3511224 120.7226359  46.7039129  30.4880566 119.4897562  45.8360779
  21.1069352 116.2327101  39.4148928  20.2706664 116.5701788  39.7358203
  20.9674121 116.0976081  38.4776065  23.0822432 111.0763889  44.1228112
  22.4286845 110.7612906  43.4984727  23.0402906 110.4539629  44.8487935
  24.1933637 121.3583184  36.0381404  23.2860699 121.1272438  36.2372553
  24.6904669 120.5620803  36.2255386  27.1001716 130.0680691  38.9578091
  26.4263415 130.3712388  39.5663048  27.4867538 130.8709772  38.6083548
  26.3160173 117.5645823  48.4475760  25.3982734 117.7860770  48.2897448
  26.7320316 117.6392133  47.5887467  27.0995220 118.9637238  43.5778440
  27.8467039 119.4758635  43.2685562  27.3686810 118.6421291  44.4382834
  25.3721871 121.4595779  40.5605394  24.4633090 121.1754812  40.6577864
  25.4016954 121.8794857  39.7008701  30.6041138 125.0702368  44.3296562
  30.1503465 124.2293278  44.3861752  29.9735105 125.7063767  44.6671342
  29.5474058 115.9994354  45.5597229  28.8096814 115.4871741  45.8907472
  29.8000831 115.5594736  44.7480506  29.0474077 126.9078865  45.2646380
  29.3397052 127.4683922  44.5458746  29.5572698 127.2007426  46.0199539
  29.6485685 108.7770606  46.1538999  29.9544562 107.9167970  45.8664914
  30.3738290 109.3688227  45.9537993  15.9410041 119.1801293  44.5420597
  15.7434441 118.5870654  43.8171663  15.3856705 118.8753503  45.2596535
  23.9206765 119.0724400  46.6615190  23.9755374 118.1198236  46.5857666
  23.1097967 119.2283839  47.1456488  25.0697958 123.0004523  37.8993473
  24.6317388 122.2840382  37.4399110  25.8108399 123.2280637  37.3378564
  21.8599125 117.6901459  44.4205569  21.0466990 117.9895630  44.8270761
  22.3558119 117.2957148  45.1380051  24.0107702 127.6859216  46.3539833
  23.9683881 127.9120063  45.4248365  24.9270401 127.4522591  46.5025635
  27.4573336 118.1543284  53.2520463  27.8122724 118.3814757  54.1114928
  28.1045467 118.4861661  52.6297718  33.1871073 121.2761720  43.9569792
  33.0488972 121.4663316  43.0290981  32.8307292 122.0381102  44.4137843
  21.3513199 115.2619815  50.0366804  21.9912579 115.1208574  49.3389767
  20.5190730 114.9754328  49.6605406  33.2140453 123.3438247  48.9681063
  33.6476959 123.2513536  49.8164117  33.9272033 123.3195747  48.3301079
  22.1273503 124.5622245  46.1501796  22.9214102 124.0672565  45.9484371
  21.4165196 124.0340108  45.7869502  26.9468348 126.9440341  50.5014164
  27.0005370 127.5131277  51.2691880  26.0783129 127.1142226  50.1368201
  18.4356267 118.7065327  42.2261549  17.5053855 118.6449782  42.4431511
  18.5313739 118.1841280  41.4298190  18.3541816 115.2320140  44.8139790
  18.6148633 116.1465473  44.7048951  19.1758988 114.7644582  44.9636403
  19.8266741 116.6457897  51.9838615  20.4989794 116.4375259  51.3351264
  18.9996528 116.4479983  51.5443847  34.0756002 123.3861947  51.5013949
  34.2691892 124.2907758  51.7473223  33.9756620 122.9269366  52.3352534
  25.7292313 113.2719838  54.0004276  25.0820228 113.9709788  53.9068752
  26.4993328 113.7055982  54.3680524  29.1371111 123.5368690  57.0754829
  28.9856617 123.3079242  56.1584913  29.1275790 124.4939291  57.0886174
  25.9056447 121.1100603  52.0601096  26.8348507 121.2611762  51.8870063
  25.4847477 121.1984624  51.2049742  24.7044779 125.1351267  49.8299633
  24.5655865 124.7670052  50.7025571  23.9159375 125.6498907  49.6583591
  25.2992931 130.2360364  41.1725170  25.4744687 129.7648407  41.9870792
  24.6125719 130.8626130  41.4006430  26.2549994 124.5132870  47.2188471
  25.9199827 124.4733640  48.1146121  25.7553940 123.8477586  46.7458881
  20.2294238 119.9200500  52.7441052  20.0914036 119.1880739  53.3452591
  21.1399162 119.8309400  52.4625240  29.1909186 121.8588904  37.4925531
  28.5738357 121.1335732  37.3958583  28.7225674 122.6198265  37.1492605
  22.8576539 119.6320459  52.2324732  23.5676157 118.9913651  52.1911350
  22.8145847 119.8833354  53.1550913  30.8463318 126.5687813  55.1531311
  30.7875864 125.8847033  54.4861894  31.2482836 127.3106803  54.7011937
  21.5705473 116.6185677  54.0520371  21.0342830 116.1676416  54.7041968
  20.9822181 116.7531586  53.3090836  20.9807732 116.0774329  36.6146835
  20.1037198 115.9563129  36.2509082  21.4565485 115.2860407  36.3625724
  30.8480725 124.5327397  53.3845291  29.9607504 124.1953318  53.5071690
  31.4179276 123.8010428  53.6214056  12.5009872 120.8651488  46.7088342
  13.1880912 120.5513218  46.1209357  12.3458001 121.7692853  46.4355593
  17.3044594 115.7541685  51.1373366  17.2202783 115.1467354  50.4023776
  16.4827301 116.2450703  51.1382862  24.3781878 129.1928849  50.3506534
  24.3052050 129.9983820  50.8625838  23.9359271 129.3920815  49.5254555
  24.1671658 128.4300619  43.8609355  23.3839180 128.9722299  43.9547580
  24.8664403 128.9474599  44.2603597  27.4768308 114.2395248  46.5043561
  27.9737008 113.4865211  46.1844631  26.7055290 114.2759565  45.9386770
  35.3298065 119.9435614  48.1461852  35.3187942 120.8260329  47.7755785
  34.4615445 119.5907165  47.9516389  26.8380562 129.0915683  52.5064693
  27.5508534 129.7263148  52.4340594  26.3470590 129.1879549  51.6904694
  28.5598089 122.9966936  44.0781984  27.6254367 123.1168398  43.9086689
  28.7374757 122.0939402  43.8141994  24.0603277 116.3812631  46.2315245
  23.6901064 115.8283672  46.9196151  24.5562369 115.7770765  45.6790245
  31.9470640 118.8384255  44.6132018  32.4131092 119.6712246  44.5392321
  32.3978141 118.3729236  45.3177277  21.8892475 126.8410126  53.3270263
  22.5901935 127.4746609  53.4799658  21.4187590 127.1824858  52.5665903
  30.0146871 125.1828076  41.6118170  30.2906715 125.0684671  42.5212044
  29.1451370 124.7845561  41.5730343  29.9187303 111.2064842  48.6522920
  29.0050383 111.4369069  48.8205127  30.3480404 111.2903286  49.5036952
  29.6893761 119.3954734  51.1522814  29.0365212 119.6430641  50.4975266
  30.0674141 118.5818872  50.8185291  26.6500935 129.4314427  45.2550984
  26.8323330 128.6136083  45.7178736  27.4733921 129.6482119  44.8175874
  26.9843101 128.3582612  42.5166032  27.5130867 127.8475067  41.9036195
  27.2471320 128.0425142  43.3811566  25.7381334 120.1374545  57.6388851
  25.0621971 120.0368674  58.3091226  26.5608968 119.9813759  58.1024848
  17.4860193 126.3746481  50.2601366  18.0713630 125.6290169  50.3929270
  17.2885032 126.6850438  51.1438030  20.3398849 129.4097729  45.2763808
  19.6709224 129.8943856  44.7927848  20.2011718 129.6566949  46.1907187
  12.0777848 118.9452082  48.9805809  12.1161948 118.4115672  49.7742927
  11.5718141 118.4187287  48.3616786  24.4804117 131.4441472  51.8746467
  25.0322425 131.6073094  52.6395552  24.8210311 132.0345910  51.2026492
  19.4568610 113.7916622  52.4768351  19.5209937 114.6531453  52.0645749
  19.3935731 113.1790624  51.7440710  18.9320883 115.8639755  56.1241386
  19.5592922 115.4816832  56.7378910  18.0748802 115.6453957  56.4897078
  29.3314992 126.2702730  57.7295121  29.8754896 126.8832688  57.2350076
  28.7501836 126.8282308  58.2462134  15.7086426 117.6716184  42.0559741
  16.0039867 116.7626862  42.0026794  14.8074462 117.6503923  41.7340743
  27.6172505 129.3923448  48.8610149  27.4923644 128.5913188  48.3521094
  28.2751596 129.8869641  48.3724119  19.2380673 115.7472180  48.0387289
  18.5167259 116.3608148  47.8994762  20.0273929 116.2829945  47.9603935
  29.6807413 127.1932468  50.4889699  28.7337748 127.0737819  50.4168026
  30.0290186 126.3054966  50.5715960  22.0406986 113.0826607  54.3127941
  22.5641388 113.3288903  55.0754250  21.8219320 113.9146642  53.8931078
  17.4374267 115.3530281  42.1799066  17.1086973 114.4727660  41.9974172
  17.7913638 115.2977950  43.0675455  26.6853846 126.9885184  46.6894051
  26.5378809 126.0601892  46.8701621  27.5107340 127.0105275  46.2051126
  20.5516090 115.6403251  42.5474543  20.8912163 116.1689172  41.8253152
  20.9988211 115.9783657  43.3233110  30.2887968 127.8113743  47.7758924
  31.2134516 127.6056604  47.6383375  30.1203271 127.5630144  48.6848265
  23.2459531 114.0240302  51.9977611  22.9056352 113.2248115  52.3998291
  22.5398538 114.3242013  51.4254445  23.8976003 111.1089614  50.4504934
  24.7202072 110.6350093  50.3283825  24.1414067 111.8880098  50.9503621
  22.5384238 114.1377873  40.7467836  23.2592600 114.5159126  40.2431553
  21.9149542 114.8566750  40.8502814  26.6815361 114.8423022  41.6826168
  26.8978975 115.7247660  41.3814997  26.2009428 114.4509235  40.9531810
  21.4214582 117.8008735  48.2596913  21.2759163 118.1149038  49.1521195
  20.9439786 118.4193635  47.7067812  23.2810965 114.7911283  48.3077803
  23.2672534 113.8952376  47.9710101  23.9983393 114.7981947  48.9416089
  25.1337095 115.2248623  50.3530930  24.8754873 116.1465694  50.3515261
  24.6022136 114.8279058  51.0431394  30.0783284 128.3299410  43.1321015
  30.2520162 127.7645833  42.3794868  30.5712175 129.1300305  42.9500505
  15.8960244 120.3414079  51.1984574  15.3513712 121.1173887  51.3304849
  16.7739594 120.6884884  51.0403696  22.6847861 113.6725663  43.5765373
  22.8063772 112.7442309  43.7756260  22.3949903 113.6864349  42.6643688
  25.5539051 111.3580574  46.7132093  25.5760748 111.4219907  45.7584072
  25.9707110 110.5185082  46.9072599  35.9322675 121.0935833  44.7511315
  36.3753821 120.3443158  44.3530438  35.0549186 121.0845970  44.3685047
  31.0658457 127.6466175  40.2317914  31.7609361 128.2672867  40.4505228
  31.4081607 126.7961526  40.5070292  16.6826266 119.4683976  54.0914731
  15.9408002 119.6166611  54.6779362  16.3619010 119.7292241  53.2281481
  32.9649880 125.0965880  41.7605245  33.4901204 125.4353153  41.0354565
  32.8772232 124.1612896  41.5768379  24.6269929 129.0099954  53.8895121
  24.9357055 128.7649101  54.7617821  25.4245411 129.2146592  53.4013991
  24.6490541 131.1637864  46.1200498  24.2095531 130.6714242  46.8133354
  25.3998658 130.6210831  45.8792573  17.1282880 127.3549404  46.1225126
  17.9540900 127.0553176  45.7423769  16.7776932 126.5857027  46.5714914
  22.0964413 126.7075873  48.1922799  21.4744422 126.0446578  47.8925027
  22.7669280 126.7337005  47.5096447  15.3291485 125.2735731  47.0814059
  14.4923393 124.8457905  46.8998061  15.3015130 125.4668174  48.0184851
  22.1688940 115.1857661  57.7855305  22.2177096 116.0619783  57.4033075
  22.7111454 114.6435054  57.2126949  32.6543786 125.7298784  57.0656442
  31.8639330 125.7122923  56.5260942  32.4177140 126.2687078  57.8205479
  32.7741661 122.5791250  54.3789171  32.8239666 122.4141258  55.3204694
  32.6655584 121.7118509  53.9887052  21.6577920 125.2579796  41.6681260
  21.8066040 125.9415260  41.0147933  22.4644363 125.2384886  42.1830716
  30.0645423 118.5622178  55.6948478  30.9655286 118.4228643  55.4032476
  30.1393398 118.7276633  56.6346655  24.3988229 115.9389033  54.5401664
  23.5291538 116.2322599  54.2684253  24.6347709 116.5229478  55.2608928
  34.2759858 124.9988192  54.6231193  33.9844666 125.3618172  55.4594654
  33.6631989 124.2855200  54.4444525  35.4755540 122.5641072  47.1433763
  36.3102432 123.0030876  47.3071323  35.6114669 122.0879725  46.3242009
  32.5247046 120.1220806  53.0911251  33.0001168 120.3148453  52.2830102
  31.6012611 120.1779992  52.8454634  19.4130553 121.2844974  42.6742329
  19.1676595 120.3807304  42.8722539  19.5826467 121.2862124  41.7321807
  27.1027263 112.1568650  52.0567084  27.6209206 112.8929677  51.7313573
  26.7482395 112.4632643  52.8913844  18.6826200 117.0173331  40.1728490
  17.9895445 117.0917686  39.5168526  18.4377952 116.2533675  40.6950007
  27.3539857 108.5768933  47.5767981  27.6341610 107.9092122  48.2028408
  28.1390464 108.7698028  47.0642645  25.1573325 127.7527926  39.1393007
  24.5847292 128.3718114  38.6863479  25.7306119 128.3027288  39.6732929
  31.2248715 116.9986567  51.3239556  32.1766138 117.0984664  51.3451780
  31.0552165 116.2064835  51.8337641  29.2463095 114.0842150  51.5098957
  28.6513027 114.3647162  50.8145446  28.9612791 114.5736051  52.2815698
  28.3770585 128.0365077  40.2701590  29.3101258 127.9710638  40.4734465
  28.2893798 128.8721343  39.8116122  31.0058602 127.3530947  37.2305537
  30.9272233 127.0190811  38.1241295  31.8268268 127.8452715  37.2297010
  33.7036793 120.2192686  50.4381856  33.6713113 119.2808687  50.6241540
  34.3137416 120.2976723  49.7047681  25.5420124 119.0888739  36.4809060
  26.4879228 118.9594947  36.5497478  25.1634369 118.3503401  36.9578488
  33.8531281 117.0103730  50.4840139  33.3370330 116.2262186  50.2970068
  34.7371230 116.6822446  50.6486658  31.5142008 110.7544745  46.4435952
  31.3166829 110.4459833  47.3279284  32.1241714 111.4806384  46.5733882
  39.5213343 121.2808693  49.5787893  40.2516731 121.0193981  50.1395596
  38.9120288 120.5437415  49.6189961  37.6028640 119.4216556  50.1762344
  36.8761803 119.2872521  49.5678835  37.1875927 119.7293384  50.9819062
  25.4258816 123.1406485  57.9409717  26.3461826 123.3185084  58.1349763
  25.3908399 122.1962531  57.7889416  23.7263041 117.0138716  36.4163945
  22.8194496 116.7171828  36.4926659  24.0039022 116.7168534  35.5498231
  14.6440981 118.3345079  46.8662991  14.3243766 117.4810387  46.5737365
  14.0974409 118.5493657  47.6220959  18.4220889 121.0507520  50.5832498
  18.6406899 121.9824628  50.6020532  18.8346663 120.6915494  51.3687302
  25.3425107 111.5575605  42.5708186  24.5325835 111.2122690  42.9463432
  26.0309524 111.2483149  43.1595798  27.2715655 110.6353652  44.1932483
  27.8246693 111.0549106  44.8522506  27.5085741 109.7089400  44.2355439
  23.2948754 116.6240726  59.9735247  23.1945481 117.5735083  59.9047338
  23.0770296 116.2958965  59.1011317  22.4961825 113.8725651  36.5575924
  23.3580989 114.1980549  36.8171742  22.6812170 113.0857147  36.0448990
  14.5129241 121.9547990  48.8356113  13.8192713 121.5401943  48.3226067
  15.2602232 121.9968527  48.2389532  30.6494462 112.7454177  43.7011147
  30.0693131 113.4038981  43.3189200  30.3830395 111.9231522  43.2898565
  29.0998028 112.1459235  45.9032468  29.5997807 112.2575769  45.0946786
  29.7433636 111.8420288  46.5433276  23.1580024 120.0537865  58.7900309
  22.6747106 120.8538225  58.9964198  23.2440963 120.0645809  57.8367753
  16.4265984 121.8866244  46.7122128  16.4036672 121.9853932  45.7604011
  16.7366620 122.7331395  47.0339294  19.0853362 123.9442399  50.8268742
  20.0396615 123.9126342  50.7598674  18.8865885 123.4833023  51.6418968
  19.6752744 122.5143515  53.3939540  20.4945633 123.0087594  53.4174377
  19.9489551 121.5975483  53.3657108  29.4319340 114.9054268  42.7567496
  28.5445195 115.1903918  42.5387690  29.8473329 114.7448031  41.9094772
  32.7833876 114.9300789  46.4721835  33.5594266 115.4197241  46.7446452
  32.0582010 115.3558843  46.9293704  35.2206435 115.6428408  47.5295775
  35.8150926 115.4024144  46.8189084  35.2933018 114.9235538  48.1569312
  17.4403590 129.4862019  47.8438940  17.3058058 128.7262420  47.2776938
  17.0235653 130.2102919  47.3767729  28.5762553 124.6698942  36.8515515
  29.2798404 124.8748945  37.4673171  27.8525202 125.2375704  37.1164599
  29.4060364 120.4208804  42.9717786  29.3495565 120.8777355  42.1325418
  29.9588706 119.6599488  42.7940628  33.2165170 116.2098535  43.7967905
  32.9602104 115.8095171  44.6276113  32.5918038 116.9242329  43.6718044
  37.5277507 118.9494609  46.3039197  36.9677065 119.0187798  47.0770759
  36.9221011 118.7735593  45.5838693  20.5972716 130.3831336  48.0557383
  20.4805100 131.3276768  47.9536073  19.7765163 130.0804897  48.4443182
  30.4849251 125.1081472  38.9013976  31.3194855 124.6762670  38.7191450
  30.3233594 124.9363485  39.8290870  30.1395143 121.6113585  40.2670315
  30.0843947 121.4457856  39.3258759  29.5141198 122.3189618  40.4232505
  14.9287658 116.8481649  54.0931737  15.5746522 116.3380603  54.5818962
  14.7204809 117.5850331  54.6675162  27.4541050 123.9162497  59.5923878
  28.3232210 124.0903149  59.2310513  26.9747802 124.7356913  59.4699607
  23.4491268 111.1121694  39.8455633  23.4369938 112.0563534  40.0023904
  24.3414690 110.9291839  39.5515094  21.6227230 131.0359598  51.2713311
  22.5254477 131.0683208  51.5879806  21.3964600 130.1060049  51.2859647
  23.3780832 129.7890584  47.9323390  22.4276463 129.7892446  47.8187762
  23.6813319 129.0423319  47.4159425  27.2643388 107.7064470  44.1001570
  26.4975784 107.1522957  44.2458252  27.6754093 107.7786339  44.9615722
  19.2685149 113.9949266  58.1906751  20.1316611 113.6386071  58.4010076
  18.6950560 113.6563161  58.8782156  39.1133526 135.6251123  48.9969152
  39.7511936 135.5057870  48.2932492  38.9954369 136.5731967  49.0557104
  35.9223232 135.5778551  48.9330677  35.5841744 135.4619615  48.0451212
  36.7913000 135.1769716  48.9131683  31.7810048 137.4314027  44.9227568
  31.2174913 137.3403964  44.1543856  31.6662443 136.6113932  45.4030060
  36.4043015 136.7313402  54.8916883  36.3931656 136.3366201  54.0197386
  36.5663655 135.9979475  55.4850654  34.0506483 136.8927363  50.4297426
  34.6470055 136.6683385  49.7154389  34.1081455 136.1512108  51.0322874
  33.6231512 134.3466798  38.2647617  33.8757032 133.8248319  37.5031080
  32.6856071 134.1832944  38.3674301  38.6674794 133.3502576  46.0722360
  39.4537884 132.9322000  45.7212777  38.9313499 134.2548669  46.2404009
  38.8384872 138.7875427  40.7711017  38.2030705 138.8610053  41.4831922
  38.5082278 139.3769026  40.0930096  44.0683222 133.2877810  46.9755339
  44.8008393 132.7177026  47.2093168  43.3122577 132.8999410  47.4161844
  33.3427800 136.2494904  40.4671992  33.2264058 135.5739807  41.1353076
  33.4530060 135.7627278  39.6504145  35.6859341 135.7105051  44.1718681
  35.3217548 135.1835672  44.8831603  36.5426457 135.3203520  43.9985167
  41.5908642 126.9999384  51.4349947  41.2591967 127.8694795  51.2111162
  40.9954255 126.6835668  52.1143978  35.3264828 130.7394951  39.1680030
  35.4939231 131.6075187  39.5350501  35.1361997 130.9022233  38.2441319
  31.5352643 135.6525727  46.8682565  30.6103139 135.5201941  47.0760256
  31.7837056 136.4319946  47.3652507  41.4837305 131.7194470  48.5143297
  40.5754183 131.6509878  48.2202058  41.4324901 132.1966415  49.3425123
  35.3054049 133.1952608  40.1526697  35.1853674 133.6409659  40.9912177
  34.6106637 133.5437926  39.5940235  28.8961454 135.2959000  47.7026354
  29.0253835 135.5493479  48.6165765  28.2158905 135.8886708  47.3831009
  35.5578171 133.1384116  56.4578195  34.7811505 133.6978036  56.4481059
  36.1968734 133.6240899  56.9793065  43.3498952 129.9210908  50.2921171
  42.7073332 130.2143442  49.6460966  42.8453880 129.8063829  51.0974368
  41.0039115 133.6674082  40.9807031  41.9156971 133.9001468  40.8054728
  40.4948762 134.2511126  40.4182109  33.8124543 135.9469569  56.0196162
  34.5539228 136.4854613  55.7430985  33.1061529 136.5735858  56.1767714
  39.2879883 138.0898709  54.6168323  39.6963239 137.6481120  53.8722956
  38.5657144 137.5151337  54.8702516  35.6410953 133.0271316  51.9901880
  36.4872148 133.4510730  52.1336529  35.5809591 132.3704940  52.6840443
  39.6108698 138.6499900  48.3720612  38.9817560 138.8145614  47.6696680
  39.2234360 139.0641510  49.1431576  43.4897929 139.5854338  45.7264976
  42.8048968 139.9653239  45.1762009  43.5741779 140.1949664  46.4596924
  38.7910398 130.6875684  53.6483054  38.5471330 131.4417745  53.1117330
  39.0670329 131.0661032  54.4830301  40.7448861 137.2314297  52.3260319
  40.9565756 137.8746057  51.6494701  40.6978609 136.3976613  51.8582250
  38.3475090 129.8432118  49.2296892  37.4859569 130.1413371  49.5213629
  38.3737525 130.0602516  48.2977924  35.1636659 138.3874308  45.6370697
  35.6275005 138.6662011  44.8475320  34.8993458 137.4857753  45.4543788
  34.1005546 134.5097460  42.4460262  34.8029589 134.9618504  42.9134189
  33.7686174 133.8681279  43.0740156  32.5485907 133.1009217  56.8211472
  31.9184568 133.7825498  57.0546869  32.4421995 132.9892299  55.8764610
  27.8430879 132.7681013  47.7477396  27.0529933 133.0238542  47.2717507
  28.3342127 133.5829351  47.8529436  41.8594689 140.1086252  50.4982677
  42.6812133 139.7066440  50.2165358  41.8557092 140.0054486  51.4498793
  29.7945625 133.1325592  44.7060873  28.9976788 133.2444287  45.2244368
  29.5671217 133.4712245  43.8401763  26.1268582 133.0211504  50.1792387
  26.3776621 133.9058513  50.4449963  26.6628131 132.8416105  49.4067479
  49.9500682 136.4525001  46.8467648  49.1964390 135.8832399  46.6911653
  50.0848223 136.4187665  47.7938283  31.8266650 127.4029983  59.1836723
  31.4333595 126.8496181  59.8584367  32.6432790 127.7140561  59.5743240
  34.7434611 128.8187862  56.7756979  35.4844324 129.4195015  56.6961442
  34.9752534 128.0765500  56.2175022  29.8875949 134.0044229  55.0535209
  29.7729464 133.1029487  55.3542308  29.0320467 134.2507926  54.7020026
  38.6891774 124.8468965  51.0521261  38.3456043 125.7370607  50.9760372
  39.0570736 124.6570623  50.1890846  38.6542056 134.8377576  39.5593696
  38.1388680 135.6082181  39.7982084  38.3819365 134.1642712  40.1826758
  36.2389167 129.6827277  44.6178935  35.3830764 129.2934127  44.4384573
  36.6516119 129.7619238  43.7578720  37.7688314 127.2173620  49.0170494
  37.2653110 127.1803755  48.2038300  38.0618921 128.1266363  49.0767151
  34.0131200 127.3012350  48.0236676  34.8784197 127.1055159  47.6642566
  34.0808709 127.0722702  48.9506033  43.6276331 137.5909931  41.4946870
  42.8505773 137.2521090  41.0502032  44.3067812 137.5962554  40.8201835
  38.4428360 132.7104668  41.3853477  38.1378495 133.0250817  42.2363621
  39.3958802 132.7886088  41.4280810  41.8667637 137.0643912  48.1513478
  41.2091312 137.7543173  48.2393606  42.6708037 137.4540344  48.4947464
  31.6193519 129.5314558  45.3953043  32.1937271 129.3089739  44.6626236
  32.2064501 129.6003252  46.1481644  40.6773096 135.4188285  46.2017419
  41.1904978 136.0518276  46.7039129  41.3274320 134.8189480  45.8360779
  31.9463106 131.5619019  39.4148928  31.1100418 131.8993705  39.7358203
  31.8067876 131.4267999  38.4776065  33.9216187 126.4055807  44.1228112
  33.2680599 126.0904824  43.4984727  33.8796661 125.7831547  44.8487935
  35.0327392 136.6875102  36.0381404  34.1254453 136.4564355  36.2372553
  35.5298424 135.8912721  36.2255386  37.1553927 132.8937740  48.4475760
  36.2376489 133.1152687  48.2897448  37.5714071 132.9684051  47.5887467
  37.9388975 134.2929156  43.5778440  38.6860794 134.8050553  43.2685562
  38.2080564 133.9713209  44.4382834  36.2115625 136.7887697  40.5605394
  35.3026844 136.5046729  40.6577864  36.2410709 137.2086775  39.7008701
  40.3867812 131.3286272  45.5597229  39.6490569 130.8163658  45.8907472
  40.6394586 130.8886654  44.7480506  40.4879439 124.1062524  46.1538999
  40.7938316 123.2459888  45.8664914  41.2132044 124.6980144  45.9537993
  26.7803795 134.5093211  44.5420597  26.5828195 133.9162571  43.8171663
  26.2250459 134.2045421  45.2596535  34.7600519 134.4016317  46.6615190
  34.8149129 133.4490154  46.5857666  33.9491721 134.5575756  47.1456488
  35.9091713 138.3296440  37.8993473  35.4711143 137.6132299  37.4399110
  36.6502154 138.5572555  37.3378564  32.6992879 133.0193377  44.4205569
  31.8860745 133.3187547  44.8270761  33.1951873 132.6249066  45.1380051
  38.2967091 133.4835201  53.2520463  38.6516478 133.7106675  54.1114928
  38.9439222 133.8153578  52.6297718  44.0264828 136.6053637  43.9569792
  43.8882726 136.7955233  43.0290981  43.6701046 137.3673020  44.4137843
  32.1906954 130.5911732  50.0366804  32.8306333 130.4500492  49.3389767
  31.3584484 130.3046246  49.6605406  44.0534207 138.6730164  48.9681063
  44.4870714 138.5805453  49.8164117  44.7665788 138.6487665  48.3301079
  29.2750021 134.0357245  42.2261549  28.3447609 133.9741700  42.4431511
  29.3707493 133.5133197  41.4298190  29.1935570 130.5612057  44.8139790
  29.4542388 131.4757391  44.7048951  30.0152743 130.0936500  44.9636403
  30.6660496 131.9749815  51.9838615  31.3383549 131.7667177  51.3351264
  29.8390282 131.7771901  51.5443847  44.9149757 138.7153865  51.5013949
  45.1085647 139.6199675  51.7473223  44.8150375 138.2561284  52.3352534
  36.5686068 128.6011756  54.0004276  35.9213983 129.3001705  53.9068752
  37.3387083 129.0347899  54.3680524  39.9764865 138.8660608  57.0754829
  39.8250372 138.6371159  56.1584913  39.9669545 139.8231209  57.0886174
  36.7450202 136.4392520  52.0601096  37.6742262 136.5903680  51.8870063
  36.3241232 136.5276541  51.2049742  31.0687993 135.2492418  52.7441052
  30.9307791 134.5172656  53.3452591  31.9792916 135.1601318  52.4625240
  40.0302940 137.1880822  37.4925531  39.4132111 136.4627650  37.3958583
  39.5619429 137.9490182  37.1492605  33.6970293 134.9612377  52.2324732
  34.4069912 134.3205569  52.1911350  33.6539602 135.2125272  53.1550913
  32.4099227 131.9477595  54.0520371  31.8736584 131.4968333  54.7041968
  31.8215936 132.0823504  53.3090836  31.8201486 131.4066246  36.6146835
  30.9430953 131.2855047  36.2509082  32.2959239 130.6152325  36.3625724
  41.6874479 139.8619314  53.3845291  40.8001258 139.5245236  53.5071690
  42.2573030 139.1302345  53.6214056  28.1438349 131.0833603  51.1373366
  28.0596537 130.4759272  50.4023776  27.3221055 131.5742621  51.1382862
  38.3162063 129.5687166  46.5043561  38.8130762 128.8157128  46.1844631
  37.5449044 129.6051483  45.9386770  46.1691820 135.2727532  48.1461852
  46.1581696 136.1552247  47.7755785  45.3009199 134.9199082  47.9516389
  39.3991843 138.3258853  44.0781984  38.4648122 138.4460316  43.9086689
  39.5768512 137.4231320  43.8141994  34.8997031 131.7104549  46.2315245
  34.5294819 131.1575589  46.9196151  35.3956124 131.1062683  45.6790245
  42.7864395 134.1676173  44.6132018  43.2524847 135.0004164  44.5392321
  43.2371895 133.7021154  45.3177277  40.8540626 140.5119994  41.6118170
  41.1300470 140.3976588  42.5212044  39.9845124 140.1137479  41.5730343
  40.7581057 126.5356760  48.6522920  39.8444137 126.7660986  48.8205127
  41.1874159 126.6195204  49.5036952  40.5287516 134.7246651  51.1522814
  39.8758966 134.9722559  50.4975266  40.9067896 133.9110790  50.8185291
  36.5775089 135.4666463  57.6388851  35.9015726 135.3660592  58.3091226
  37.4002723 135.3105676  58.1024848  22.9171603 134.2743999  48.9805809
  22.9555702 133.7407590  49.7742927  22.4111895 133.7479205  48.3616786
  30.2962365 129.1208540  52.4768351  30.3603691 129.9823371  52.0645749
  30.2329485 128.5082541  51.7440710  29.7714637 131.1931672  56.1241386
  30.3986676 130.8108750  56.7378910  28.9142556 130.9745874  56.4897078
  26.5480180 133.0008101  42.0559741  26.8433621 132.0918780  42.0026794
  25.6468216 132.9795841  41.7340743  30.0774427 131.0764098  48.0387289
  29.3561013 131.6900066  47.8994762  30.8667683 131.6121863  47.9603935
  32.8800741 128.4118525  54.3127941  33.4035143 128.6580821  55.0754250
  32.6613074 129.2438559  53.8931078  28.2768022 130.6822199  42.1799066
  27.9480728 129.8019578  41.9974172  28.6307393 130.6269868  43.0675455
  31.3909845 130.9695169  42.5474543  31.7305917 131.4981090  41.8253152
  31.8381965 131.3075575  43.3233110  34.0853286 129.3532220  51.9977611
  33.7450106 128.5540033  52.3998291  33.3792292 129.6533930  51.4254445
  34.7369758 126.4381532  50.4504934  35.5595827 125.9642010  50.3283825
  34.9807821 127.2172016  50.9503621  33.3777992 129.4669791  40.7467836
  34.0986355 129.8451043  40.2431553  32.7543296 130.1858667  40.8502814
  37.5209115 130.1714939  41.6826168  37.7372729 131.0539577  41.3814997
  37.0403182 129.7801153  40.9531810  32.2608336 133.1300653  48.2596913
  32.1152917 133.4440956  49.1521195  31.7833540 133.7485553  47.7067812
  34.1204719 130.1203201  48.3077803  34.1066288 129.2244294  47.9710101
  34.8377147 130.1273864  48.9416089  35.9730850 130.5540541  50.3530930
  35.7148628 131.4757612  50.3515261  35.4415890 130.1570975  51.0431394
  33.5241615 129.0017581  43.5765373  33.6457526 128.0734227  43.7756260
  33.2343658 129.0156267  42.6643688  36.3932806 126.6872491  46.7132093
  36.4154502 126.7511824  45.7584072  36.8100865 125.8477000  46.9072599
  46.7716430 136.4227751  44.7511315  47.2147576 135.6735076  44.3530438
  45.8942940 136.4137887  44.3685047  27.5220020 134.7975893  54.0914731
  26.7801756 134.9458529  54.6779362  27.2012765 135.0584159  53.2281481
  43.8043634 140.4257798  41.7605245  44.3294958 140.7645071  41.0354565
  43.7165987 139.4904813  41.5768379  33.0082695 130.5149578  57.7855305
  33.0570850 131.3911701  57.4033075  33.5505209 129.9726971  57.2126949
  43.4937540 141.0590702  57.0656442  42.7033084 141.0414840  56.5260942
  43.2570895 141.5978995  57.8205479  43.6135415 137.9083168  54.3789171
  43.6633420 137.7433175  55.3204694  43.5049339 137.0410427  53.9887052
  40.9039178 133.8914096  55.6948478  41.8049041 133.7520561  55.4032476
  40.9787152 134.0568551  56.6346655  35.2381983 131.2680951  54.5401664
  34.3685293 131.5614517  54.2684253  35.4741464 131.8521396  55.2608928
  45.1153612 140.3280109  54.6231193  44.8238421 140.6910090  55.4594654
  44.5025744 139.6147118  54.4444525  46.3149295 137.8932989  47.1433763
  47.1496186 138.3322793  47.3071323  46.4508423 137.4171642  46.3242009
  43.3640801 135.4512724  53.0911251  43.8394922 135.6440370  52.2830102
  42.4406366 135.5071910  52.8454634  30.2524307 136.6136891  42.6742329
  30.0070349 135.7099221  42.8722539  30.4220222 136.6154042  41.7321807
  37.9421017 127.4860568  52.0567084  38.4602961 128.2221595  51.7313573
  37.5876150 127.7924561  52.8913844  29.5219955 132.3465249  40.1728490
  28.8289200 132.4209604  39.5168526  29.2771707 131.5825593  40.6950007
  38.1933611 123.9060850  47.5767981  38.4735365 123.2384039  48.2028408
  38.9784218 124.0989946  47.0642645  42.0642470 132.3278484  51.3239556
  43.0159892 132.4276582  51.3451780  41.8945920 131.5356753  51.8337641
  40.0856849 129.4134067  51.5098957  39.4906781 129.6939080  50.8145446
  39.8006546 129.9027968  52.2815698  44.5430547 135.5484604  50.4381856
  44.5106867 134.6100605  50.6241540  45.1531171 135.6268641  49.7047681
  36.3813878 134.4180657  36.4809060  37.3272983 134.2886865  36.5497478
  36.0028123 133.6795319  36.9578488  44.6925036 132.3395647  50.4840139
  44.1764084 131.5554104  50.2970068  45.5764984 132.0114364  50.6486658
  42.3535763 126.0836663  46.4435952  42.1560584 125.7751751  47.3279284
  42.9635468 126.8098302  46.5733882  50.3607097 136.6100611  49.5787893
  51.0910486 136.3485899  50.1395596  49.7514043 135.8729333  49.6189961
  48.4422394 134.7508473  50.1762344  47.7155558 134.6164438  49.5678835
  48.0269681 135.0585302  50.9819062  36.2652571 138.4698403  57.9409717
  37.1855580 138.6477002  58.1349763  36.2302154 137.5254448  57.7889416
  34.5656795 132.3430633  36.4163945  33.6588251 132.0463746  36.4926659
  34.8432776 132.0460451  35.5498231  25.4834736 133.6636997  46.8662991
  25.1637520 132.8102305  46.5737365  24.9368164 133.8785575  47.6220959
  36.1818861 126.8867523  42.5708186  35.3719589 126.5414608  42.9463432
  36.8703278 126.5775067  43.1595798  38.1109409 125.9645570  44.1932483
  38.6640448 126.3841023  44.8522506  38.3479496 125.0381318  44.2355439
  34.1342509 131.9532643  59.9735247  34.0339235 132.9027000  59.9047338
  33.9164051 131.6250882  59.1011317  33.3355580 129.2017568  36.5575924
  34.1974744 129.5272467  36.8171742  33.5205924 128.4149064  36.0448990
  41.4888216 128.0746095  43.7011147  40.9086885 128.7330899  43.3189200
  41.2224149 127.2523440  43.2898565  39.9391783 127.4751153  45.9032468
  40.4391561 127.5867687  45.0946786  40.5827391 127.1712205  46.5433276
  33.9973779 135.3829782  58.7900309  33.5140860 136.1830142  58.9964198
  34.0834718 135.3937727  57.8367753  40.2713094 130.2346185  42.7567496
  39.3838949 130.5195836  42.5387690  40.6867084 130.0739949  41.9094772
  43.6227631 130.2592706  46.4721835  44.3988021 130.7489159  46.7446452
  42.8975765 130.6850760  46.9293704  46.0600189 130.9720326  47.5295775
  46.6544680 130.7316061  46.8189084  46.1326773 130.2527456  48.1569312
  40.2454118 135.7500721  42.9717786  40.1889320 136.2069273  42.1325418
  40.7982461 134.9891406  42.7940628  44.0558924 131.5390453  43.7967905
  43.7995858 131.1387089  44.6276113  43.4311792 132.2534247  43.6718044
  48.3671262 134.2786526  46.3039197  47.8070820 134.3479716  47.0770759
  47.7614765 134.1027511  45.5838693  41.3243005 140.4373389  38.9013976
  42.1588609 140.0054588  38.7191450  41.1627348 140.2655403  39.8290870
  40.9788898 136.9405502  40.2670315  40.9237701 136.7749774  39.3258759
  40.3534953 137.6481535  40.4232505  25.7681412 132.1773567  54.0931737
  26.4140276 131.6672521  54.5818962  25.5598564 132.9142249  54.6675162
  34.2885023 126.4413611  39.8455633  34.2763693 127.3855451  40.0023904
  35.1808445 126.2583757  39.5515094  38.1037142 123.0356388  44.1001570
  37.3369538 122.4814875  44.2458252  38.5147847 123.1078257  44.9615722
  30.1078903 129.3241184  58.1906751  30.9710365 128.9677989  58.4010076
  29.5344314 128.9855079  58.8782156  52.4302396 142.3291301  51.4349947
  52.0985721 143.1986712  51.2111162  51.8348010 142.0127585  52.1143978
  49.5285528 140.1760883  51.0521261  49.1849798 141.0662524  50.9760372
  49.8964491 139.9862540  50.1890846  48.6082069 142.5465538  49.0170494
  48.1046864 142.5095673  48.2038300  48.9012675 143.4558280  49.0767151
  44.7609941 141.7347724  44.1228112  44.1074354 141.4196741  43.4984727
  44.7190415 141.1123465  44.8487935  51.3273194 139.4354442  46.1538999
  51.6332071 138.5751805  45.8664914  52.0525799 140.0272062  45.9537993
  51.5974812 141.8648677  48.6522920  50.6837892 142.0952904  48.8205127
  52.0267913 141.9487121  49.5036952  45.5763512 141.7673450  50.4504934
  46.3989581 141.2933928  50.3283825  45.8201576 142.5463933  50.9503621
  47.2326560 142.0164409  46.7132093  47.2548257 142.0803742  45.7584072
  47.6494619 141.1768918  46.9072599  48.7814772 142.8152485  52.0567084
  49.2996715 143.5513512  51.7313573  48.4269904 143.1216479  52.8913844
  49.0327366 139.2352768  47.5767981  49.3129119 138.5675957  48.2028408
  49.8177973 139.4281863  47.0642645  53.1929517 141.4128581  46.4435952
  52.9954338 141.1043669  47.3279284  53.8029223 142.1390219  46.5733882
  47.0212616 142.2159441  42.5708186  46.2113344 141.8706526  42.9463432
  47.7097032 141.9066984  43.1595798  48.9503164 141.2937487  44.1932483
  49.5034202 141.7132941  44.8522506  49.1873250 140.3673236  44.2355439
  52.3281971 143.4038013  43.7011147  51.7480640 144.0622817  43.3189200
  52.0617904 142.5815357  43.2898565  50.7785537 142.8043070  45.9032468
  51.2785316 142.9159605  45.0946786  51.4221145 142.5004123  46.5433276
  56.8993944 146.3012243  47.5295775  57.4938435 146.0607979  46.8189084
  56.9720527 145.5819374  48.1569312  48.9430897 138.3648306  44.1001570
  48.1763293 137.8106793  44.2458252  49.3541602 138.4370175  44.9615722
   6.5925665  52.1419453  33.5712955   5.8389374  51.5726851  33.4156959
   6.7273207  52.1082117  34.5183590   0.6959191  54.3624616  35.6926370
   1.1295697  54.2699905  36.5409424   1.4090771  54.3382117  35.0546386
   1.5574740  54.4048317  38.2259255   1.7510630  55.3094127  38.4718530
   1.4575358  53.9455736  39.0597840   2.8116803  50.9621983  34.8707159
   2.8006679  51.8446699  34.5001092   1.9434183  50.6093534  34.6761696
   3.4141413  52.1122203  31.4756622   3.8572559  51.3629528  31.0775745
   2.5367923  52.1032339  31.0930354   0.4468618  56.1152250  28.4850551
   0.9719942  56.4539523  27.7599871   0.3590970  55.1799265  28.3013686
   1.7578596  56.0174561  41.3476499   1.4663404  56.3804542  42.1839960
   1.1450727  55.3041570  41.1689831   2.9574278  53.5827441  33.8679069
   3.7921169  54.0217245  34.0316630   3.0933407  53.1066094  33.0487315
   1.1855531  51.2379056  37.1627162   1.1531851  50.2995057  37.3486846
   1.7956154  51.3163092  36.4292987   1.3350019  48.0290099  37.2085446
   0.8189068  47.2448556  37.0215374   2.2189968  47.7008816  37.3731965
   7.0032080  52.2995063  36.3033199   7.7335469  52.0380351  36.8640903
   6.3939026  51.5623785  36.3435267   5.0847378  50.4402925  36.9007650
   4.3580541  50.3058890  36.2924142   4.6694664  50.7479754  37.7064368
   2.7025173  46.6614777  34.2541082   3.2969663  46.4210513  33.5434390
   2.7751756  45.9421908  34.8814618   5.0096245  49.9680978  33.0284503
   4.4495803  50.0374168  33.8016065   4.4039749  49.7921963  32.3083999
   6.5952264  66.6437492  35.7214459   7.2330674  66.5244240  35.0177799
   6.4773107  67.5918336  35.7802411   3.4041970  66.5964920  35.6575984
   3.0660482  66.4805985  34.7696518   4.2731738  66.1956085  35.6376990
   3.8861753  67.7499772  41.6162189   3.8750394  67.3552570  40.7442693
   4.0482392  67.0165845  42.2095961   4.8428344  72.1171364  26.9587339
   4.1916324  72.7025445  26.5721353   5.6372707  72.6477559  27.0182377
   1.5325221  67.9113732  37.1542733   2.1288793  67.6869755  36.4399696
   1.5900193  67.1698478  37.7568181   6.1493532  64.3688946  32.7967667
   6.9356621  63.9508369  32.4458084   6.4132237  65.2735038  32.9649315
   6.3203610  69.8061796  27.4956324   5.6849443  69.8796423  28.2077228
   5.9901016  70.3955395  26.8175403  11.5501959  64.3064179  33.7000645
  12.2827131  63.7363396  33.9338475  10.7941315  63.9185780  34.1407151
   0.8246538  67.2681274  27.1917299   0.7082796  66.5926177  27.8598383
   0.9348798  66.7813648  26.3749452   3.1678079  66.7291421  30.8963988
   2.8036286  66.2022042  31.6076909   4.0245195  66.3389890  30.7230473
   9.0727380  58.0185753  38.1595254   8.7410704  58.8881164  37.9356469
   8.4772993  57.7022037  38.8389284   2.8083566  61.7581320  25.8925336
   2.9757968  62.6261557  26.2595808   2.6180735  61.9208602  24.9686626
   5.5658899  70.2198299  37.5591167   5.2659622  71.1223338  37.4506974
   5.2209959  69.9530483  38.4112320   8.9656043  62.7380840  35.2388604
   8.0572920  62.6696248  34.9447365   8.9143639  63.2152784  36.0670430
   2.7872787  64.2138978  26.8772003   2.6672412  64.6596029  27.7157484
   2.0925375  64.5624296  26.3185541   3.0396909  64.1570485  43.1823501
   2.2630243  64.7164405  43.1726366   3.6787472  64.6427268  43.7038372
  10.8317689  60.9397278  37.0166478  10.1892070  61.2329811  36.3706273
  10.3272618  60.8250198  37.8219675   8.4857853  64.6860451  27.7052337
   9.3975709  64.9187838  27.5300035   7.9767500  65.2697495  27.1427416
   1.2943281  66.9655938  42.7441468   2.0357965  67.5040982  42.4676292
   0.5880267  67.5922227  42.9013020   6.7698621  69.1085079  41.3413630
   7.1781977  68.6667489  40.5968262   6.0475882  68.5337706  41.5947823
   3.1229691  64.0457686  38.7147187   3.9690886  64.4697099  38.8581836
   3.0628328  63.3891310  39.4085750   7.0927435  69.6686270  35.0965919
   6.4636298  69.8331984  34.3941987   6.7053097  70.0827879  35.8676883
  10.9716667  70.6040707  32.4510283  10.2867705  70.9839609  31.9007316
  11.0560517  71.2136034  33.1842230   6.2729136  61.7062054  40.3728360
   6.0290068  62.4604115  39.8362636   6.5489067  62.0847402  41.2075608
   8.2267599  68.2500666  39.0505626   8.4384494  68.8932426  38.3740007
   8.1797347  67.4162983  38.5827556   5.8293828  60.8618487  35.9542198
   4.9678307  61.1599741  36.2458936   5.8556262  61.0788886  35.0223231
   2.6455397  69.4060678  32.3616004   3.1093743  69.6848381  31.5720626
   2.3812195  68.5044122  32.1789095   1.5824283  65.5283830  29.1705569
   2.2848327  65.9804874  29.6379495   1.2504912  64.8867649  29.7985462
   9.3413427  71.1272622  37.2227983  10.1630871  70.7252809  36.9410665
   9.3375830  71.0240856  38.1744099   3.1070030  70.6756665  39.3788694
   3.1714463  71.1377072  40.2146866   2.3980954  70.0454030  39.5071004
  17.4319420  67.4711370  33.5712955  16.6783128  66.9018768  33.4156959
  17.5666961  67.4374035  34.5183590   2.8218048  72.3424773  29.2467674
   2.6863723  73.1876308  29.6752522   3.3627860  72.5444050  28.4833608
   2.2253349  59.8374232  43.5002286   2.9663062  60.4381385  43.4206749
   2.4571271  59.0951869  42.9420329   4.4486524  72.9648339  43.3768016
   4.0050378  72.1784718  43.0588921   5.1103738  73.1527490  42.7111907
   6.5467762  73.2451139  41.4049418   6.5286238  74.0660020  40.9129687
   7.4687682  73.1205214  41.6299559   3.0040817  70.7595269  42.2472926
   3.5369153  69.9983557  42.0172234   2.4754898  70.4668920  42.9897080
   6.1710512  55.8655335  37.7766568   5.8274781  56.7556976  37.7005678
   6.5389474  55.6756992  36.9136153   6.1360794  65.8563946  26.2839003
   5.6207418  66.6268550  26.5227390   5.8638103  65.1829082  26.9072064
   3.7207905  60.7013646  31.3424241   2.8649502  60.3120497  31.1629880
   4.1334857  60.7805607  30.4824027   5.2507052  58.2359990  35.7415801
   4.7471847  58.1990125  34.9283606   5.5437659  59.1452732  35.8012458
   1.4949938  58.3198719  34.7481983   2.3602935  58.1241528  34.3887872
   1.5627447  58.0909071  35.6751339  11.1095068  68.6096300  28.2192176
  10.3324511  68.2707460  27.7747338  11.7886549  68.6148923  27.5447141
   5.9247097  63.7291038  28.1098784   5.6197233  64.0437187  28.9608927
   6.8777540  63.8072458  28.1526117   4.3693529  69.8881261  29.7591738
   3.8414891  69.1534021  29.4464975   3.8681032  70.6655937  29.5131706
   9.3486375  68.0830282  34.8758784   8.6910050  68.7729543  34.9638913
  10.1526774  68.4726713  35.2192771   8.1591834  66.4374654  32.9262726
   8.6723716  67.0704646  33.4284436   8.8093058  65.8375850  32.5606086
   1.4034925  57.4242176  30.8473419   0.7499337  57.1091193  30.2230034
   1.3615399  56.8017917  31.5733242   2.5146129  67.7061471  22.7626711
   1.6073191  67.4750725  22.9617860   3.0117161  66.9099091  22.9500693
   5.4214208  76.4158978  25.6823397   4.7475907  76.7190675  26.2908355
   5.8080030  77.2188059  25.3328854   4.6372665  63.9124110  35.1721067
   3.7195226  64.1339057  35.0142755   5.0532809  63.9870420  34.3132774
   5.4207713  65.3115525  30.3023747   6.1679532  65.8236923  29.9930869
   5.6899302  64.9899578  31.1628140   3.6934363  67.8074066  27.2850701
   2.7845582  67.5233099  27.3823171   3.7229447  68.2273145  26.4254008
   8.9253630  71.4180656  31.0541869   8.4715957  70.5771566  31.1107059
   8.2947597  72.0542054  31.3916649   7.8686550  62.3472642  32.2842536
   7.1309307  61.8350028  32.6152779   8.1213323  61.9073023  31.4725813
   7.3686570  73.2557152  31.9891687   7.6609544  73.8162209  31.2704052
   7.8785190  73.5485713  32.7444846   7.9698177  55.1248894  32.8784305
   8.2757054  54.2646257  32.5910220   8.6950782  55.7166514  32.6783299
   2.2419257  65.4202687  33.3860496   2.2967867  64.4676523  33.3102973
   1.4310459  65.5762126  33.8701795   3.3910451  69.3482810  24.6238780
   2.9529881  68.6318669  24.1644417   4.1320892  69.5758925  24.0623871
   2.3320195  74.0337503  33.0785140   2.2896373  74.2598350  32.1493672
   3.2482894  73.8000878  33.2270941   5.7785829  64.5021571  39.9765769
   6.1335216  64.7293044  40.8360235   6.4257960  64.8339948  39.3543025
  11.5083565  67.6240007  30.6815098  11.3701464  67.8141603  29.7536287
  11.1519784  68.3859390  31.1383149  11.5352945  69.6916534  35.6926370
  11.9689452  69.5991823  36.5409424  12.2484526  69.6674034  35.0546386
   5.2680840  73.2918628  37.2259470   5.3217862  73.8609564  37.9937186
   4.3995621  73.4620513  36.8613507  12.3968495  69.7340235  38.2259255
  12.5904385  70.6386045  38.4718530  12.2969113  69.2747654  39.0597840
   4.0504805  59.6198125  40.7249582   3.4032720  60.3188075  40.6314059
   4.8205821  60.0534269  41.0925831   7.4583603  69.8846977  43.8000136
   7.3069110  69.6557529  42.8830219   7.4488283  70.8417579  43.8131481
   4.2268940  67.4578890  38.7846402   5.1561000  67.6090050  38.6115370
   3.8059970  67.5462911  37.9295049   3.0257271  71.4829554  36.5544940
   2.8868357  71.1148339  37.4270878   2.2371868  71.9977194  36.3828898
   3.6205423  76.5838651  27.8970476   3.7957179  76.1126694  28.7116099
   2.9338211  77.2104417  28.1251737   4.5762487  70.8611157  33.9433778
   4.2412319  70.8211927  34.8391428   4.0766432  70.1955873  33.4704188
   7.5121678  68.2067191  24.2170837   6.8950849  67.4814020  24.1203890
   7.0438167  68.9676552  23.8737912   1.1789031  65.9798746  38.9570038
   1.8888650  65.3391939  38.9156657   1.1358339  66.2311641  39.8796219
   9.1675810  72.9166100  41.8776618   9.1088356  72.2325320  41.2107201
   9.5695328  73.6585090  41.4257244   9.1693217  70.8805684  40.1090597
   8.2819996  70.5431606  40.2316996   9.7391768  70.1488715  40.3459363
   2.6994371  75.5407136  37.0751841   2.6264542  76.3462108  37.5871145
   2.2571764  75.7399102  36.2499862   2.4884150  74.7778906  30.5854662
   1.7051672  75.3200586  30.6792887   3.1876895  75.2952886  30.9848903
   5.7980800  60.5873536  33.2288867   6.2949500  59.8343498  32.9089938
   5.0267782  60.6237852  32.6632077  13.6510558  66.2913901  34.8707159
  13.6400434  67.1738617  34.5001092  12.7827937  65.9385452  34.6761696
   5.1593054  75.4393970  39.2309999   5.8721026  76.0741435  39.1585901
   4.6683083  75.5357836  38.4150001   6.8810581  69.3445223  30.8027291
   5.9466860  69.4646685  30.6331995   7.0587249  68.4417690  30.5387301
   2.3815769  62.7290919  32.9560552   2.0113557  62.1761959  33.6441458
   2.8774862  62.1249052  32.4035552  10.2683132  65.1862542  31.3377325
  10.7343585  66.0190534  31.2637628  10.7190633  64.7207524  32.0422583
   8.3359363  71.5306363  28.3363477   8.6119207  71.4162958  29.2457351
   7.4663862  71.1323848  28.2975650   8.2399795  57.5543129  35.3768226
   7.3262875  57.7847356  35.5450433   8.6692897  57.6381573  36.2282259
   8.0106254  65.7433021  37.8768120   7.3577704  65.9908929  37.2220573
   8.3886634  64.9297159  37.5430598   4.9713427  75.7792714  31.9796291
   5.1535822  74.9614370  32.4424043   5.7946414  75.9960406  31.5421181
   5.3055593  74.7060899  29.2411339   5.8343359  74.1953354  28.6281501
   5.5683813  74.3903430  30.1056872   4.0593827  66.4852832  44.3634157
   3.3834464  66.3846961  45.0336533   4.8821461  66.3292046  44.8270155
   2.8016610  77.7919760  38.5991773   3.3534918  77.9551381  39.3640859
   3.1422803  78.3824197  37.9271798   7.6527484  72.6181017  44.4540428
   8.1967388  73.2310975  43.9595383   7.0714329  73.1760595  44.9707441
   5.9384997  75.7401735  35.5855456   5.8136136  74.9391475  35.0766401
   6.5964088  76.2347928  35.0969426   8.0019905  73.5410755  37.2135006
   7.0550241  73.4216106  37.1413332   8.3502678  72.6533253  37.2961267
   5.0066338  73.3363471  33.4139358   4.8591301  72.4080179  33.5946928
   5.8319832  73.3583562  32.9296433   8.6100460  74.1592030  34.5004231
   9.5347008  73.9534891  34.3628682   8.4415764  73.9108431  35.4093572
   1.5672024  60.3718589  38.7222918   1.2268844  59.5726402  39.1243598
   0.8611030  60.6720300  38.1499751   2.2188495  57.4567902  37.1750241
   3.0414565  56.9828380  37.0529131   2.4626559  58.2358385  37.6748927
   5.0027853  61.1901309  28.4071475   5.2191467  62.0725947  28.1060303
   4.5221920  60.7987522  27.6777117   1.6023457  61.1389570  35.0323109
   1.5885026  60.2430664  34.6955407   2.3195885  61.1460234  35.6661395
   3.4549588  61.5726910  37.0776237   3.1967366  62.4943981  37.0760567
   2.9234628  61.1757345  37.7676701   8.3995777  74.6777698  29.8566322
   8.5732654  74.1124120  29.1040175   8.8924668  75.4778592  29.6745812
   1.0060353  60.0203951  30.3010679   1.1276264  59.0920597  30.5001567
   0.7162395  60.0342637  29.3888995   3.8751543  57.7058861  33.4377399
   3.8973240  57.7698194  32.4829379   4.2919602  56.8663370  33.6317905
  14.2535168  67.4414121  31.4756622  14.6966314  66.6921446  31.0775745
  13.3761678  67.4324257  31.0930354   9.3870949  73.9944462  26.9563220
  10.0821854  74.6151155  27.1750535   9.7294099  73.1439813  27.2315598
  11.2862372  71.4444168  28.4850551  11.8113696  71.7831440  27.7599871
  11.1984725  70.5091183  28.3013686   2.9482421  75.3578241  40.6140428
   3.2569547  75.1127388  41.4863127   3.7457903  75.5624880  40.1259298
   2.9703033  77.5116151  32.8445804   2.5308023  77.0192529  33.5378661
   3.7211150  76.9689118  32.6037880   0.4901433  61.5335948  44.5100612
   0.5389588  62.4098071  44.1278382   1.0323947  60.9913341  43.9372255
  10.9756278  72.0777071  43.7901749  10.1851822  72.0601210  43.2506249
  10.7389633  72.6165365  44.5450786  11.0954153  68.9269538  41.1034478
  11.1452158  68.7619545  42.0450000  10.9868077  68.0596797  40.7132358
   8.3857916  64.9100466  42.4193784   9.2867778  64.7706930  42.1277782
   8.4605890  65.0754920  43.3591962   2.7200721  62.2867320  41.2646971
   1.8504030  62.5800886  40.9929559   2.9560201  62.8707765  41.9854234
  12.5972350  71.3466479  41.3476499  12.3057158  71.7096460  42.1839960
  11.9844481  70.6333487  41.1689831  13.7968032  68.9119359  33.8679069
  14.6314924  69.3509163  34.0316630  13.9327161  68.4358012  33.0487315
  10.8459538  66.4699094  39.8156557  11.3213660  66.6626740  39.0075409
   9.9225104  66.5258279  39.5699941   5.4239755  58.5046937  38.7812391
   5.9421699  59.2407964  38.4558880   5.0694888  58.8110931  39.6159150
   5.6752349  54.9247220  34.3013288   5.9554103  54.2570409  34.9273714
   6.4602956  55.1176315  33.7887952   3.4785817  74.1006214  25.8638314
   2.9059785  74.7196401  25.4108786   4.0518611  74.6505575  26.3978236
   9.5461207  63.3464854  38.0484863  10.4978630  63.4462951  38.0697087
   9.3764658  62.5543122  38.5582947   7.5675587  60.4320437  38.2344264
   6.9725519  60.7125450  37.5390752   7.2825283  60.9214338  39.0061005
   6.6983077  74.3843364  26.9946896   7.6313750  74.3188925  27.1979772
   6.6106290  75.2199631  26.5361429   9.3271094  73.7009234  23.9550844
   9.2484725  73.3669098  24.8486602  10.1480761  74.1931002  23.9542316
  12.0249285  66.5670973  37.1627162  11.9925605  65.6286974  37.3486846
  12.6349909  66.6455010  36.4292987   3.8632616  65.4367026  23.2054366
   4.8091721  65.3073235  23.2742785   3.4846861  64.6981688  23.6823795
  12.1743774  63.3582017  37.2085446  11.6582822  62.5740474  37.0215374
  13.0583722  63.0300733  37.3731965   9.8354501  57.1023032  33.1681258
   9.6379322  56.7938121  34.0524590  10.4454206  57.8284671  33.2979188
  17.8425835  67.6286980  36.3033199  18.5729223  67.3672268  36.8640903
  17.2332780  66.8915702  36.3435267  15.9241132  65.7694843  36.9007650
  15.1974296  65.6350808  36.2924142  15.5088419  66.0771671  37.7064368
   3.7471309  69.4884773  44.6655023   4.6674318  69.6663372  44.8595070
   3.7120892  68.5440818  44.5134723   2.0475533  63.3617003  23.1409252
   1.1406989  63.0650116  23.2171965   2.3251514  63.0646821  22.2743538
   3.6637599  57.9053893  29.2953493   2.8538327  57.5600977  29.6708739
   4.3522016  57.5961436  29.8841105   5.5928147  56.9831939  30.9177790
   6.1459186  57.4027393  31.5767813   5.8298233  56.0567687  30.9600746
   1.6161246  62.9719013  46.6980554   1.5157973  63.9213370  46.6292645
   1.3982788  62.6437252  45.8256624   0.8174318  60.2203938  23.2821231
   1.6793482  60.5458836  23.5417048   1.0024662  59.4335434  22.7694297
   8.9706954  59.0932464  30.4256454   8.3905623  59.7517269  30.0434506
   8.7042887  58.2709809  30.0143871   7.4210521  58.4937522  32.6277774
   7.9210299  58.6054057  31.8192093   8.0646129  58.1898575  33.2678583
   1.4792516  66.4016152  45.5145615   0.9959598  67.2016512  45.7209504
   1.5653455  66.4124097  44.5613059   7.7531832  61.2532555  29.4812802
   6.8657687  61.5382205  29.2632997   8.1685821  61.0926318  28.6340079
  11.1046368  61.2779076  33.1967141  11.8806758  61.7675528  33.4691758
  10.3794503  61.7037130  33.6539011  13.5418927  61.9906695  34.2541082
  14.1363418  61.7502431  33.5434390  13.6145511  61.2713826  34.8814618
   6.8975046  71.0177230  23.5760822   7.6010896  71.2227232  24.1918478
   6.1737694  71.5853991  23.8409906   7.7272856  66.7687091  29.6963092
   7.6708057  67.2255642  28.8570725   8.2801198  66.0077775  29.5185935
  11.5377662  62.5576823  30.5213212  11.2814596  62.1573458  31.3521420
  10.9130530  63.2720617  30.3963351  15.8490000  65.2972896  33.0284503
  15.2889558  65.3666085  33.8016065  15.2433503  65.1213881  32.3083999
   8.8061743  71.4559759  25.6259282   9.6407347  71.0240957  25.4436757
   8.6446086  71.2841772  26.5536177   8.4607635  67.9591872  26.9915622
   8.4056439  67.7936143  26.0504066   7.8353691  68.6667905  27.1477811
   5.7753542  70.2640784  46.3169184   6.6444702  70.4381436  45.9555819
   5.2960294  71.0835201  46.1944914   1.7703761  57.4599981  26.5700940
   1.7582431  58.4041821  26.7269211   2.6627183  57.2770126  26.2760401
   1.6993325  76.1368871  34.6568697   0.7488956  76.1370733  34.5433069
   2.0025811  75.3901606  34.1404731   5.5855880  54.0542758  30.8246877
   4.8188276  53.5001244  30.9703559   5.9966585  54.1264626  31.6861028
  17.4346018  81.9729410  35.7214459  18.0724428  81.8536157  35.0177799
  17.3166861  82.9210254  35.7802411  14.2435724  81.9256838  35.6575984
  13.9054236  81.8097903  34.7696518  15.1125493  81.5248003  35.6376990
  10.1022540  83.7792314  31.6472875   9.5387405  83.6882251  30.8789162
   9.9874935  82.9592219  32.1275367  14.7255507  83.0791690  41.6162189
  14.7144148  82.6844488  40.7442693  14.8876147  82.3457762  42.2095961
   7.6486972  85.2743506  34.4857095   8.4408264  84.9334331  34.0703394
   7.8883622  85.3838481  35.4059248  15.6822099  87.4463282  26.9587339
  15.0310079  88.0317362  26.5721353  16.4766462  87.9769477  27.0182377
   9.6077726  84.5352419  27.3574474  10.3808602  83.9881406  27.2187350
   9.9603125  85.3996669  27.5688935  11.4462769  85.8628801  40.5641373
  11.1552635  86.7674432  40.4488039  12.0819753  85.9045329  41.2785443
  12.3718975  83.2405650  37.1542733  12.9682548  83.0161672  36.4399696
  12.4293947  82.4990395  37.7568181  11.9444004  80.6945085  24.9892924
  12.1969525  80.1726607  24.2276387  11.0068563  80.5311231  25.0919607
  16.9887287  79.6980864  32.7967667  17.7750376  79.2800287  32.4458084
  17.2525991  80.6026956  32.9649315  17.1597364  85.1353714  27.4956324
  16.5243197  85.2088341  28.2077228  16.8294770  85.7247313  26.8175403
  22.3895714  79.6356097  33.7000645  23.1220886  79.0655314  33.9338475
  21.6335070  79.2477697  34.1407151  11.6640293  82.5973191  27.1917299
  11.5476551  81.9218095  27.8598383  11.7742553  82.1105565  26.3749452
  14.0071834  82.0583338  30.8963988  13.6430041  81.5313959  31.6076909
  14.8638949  81.6681807  30.7230473  19.9121134  73.3477671  38.1595254
  19.5804459  74.2173082  37.9356469  19.3166748  73.0313955  38.8389284
  13.6477321  77.0873238  25.8925336  13.8151723  77.9553475  26.2595808
  13.4574490  77.2500520  24.9686626  16.4052654  85.5490217  37.5591167
  16.1053377  86.4515256  37.4506974  16.0603713  85.2822400  38.4112320
   9.8565135  82.0004014  33.5927871   8.9315632  81.8680228  33.8005563
  10.1049548  82.7798233  34.0897814  19.8049798  78.0672757  35.2388604
  18.8966675  77.9988166  34.9447365  19.7537393  78.5444702  36.0670430
  13.6266541  79.5430896  26.8772003  13.5066167  79.9887946  27.7157484
  12.9319130  79.8916213  26.3185541   7.2173946  81.6437287  34.4271660
   7.3466327  81.8971766  35.3411072   6.5371398  82.2364995  34.1076315
  11.3873434  92.3134537  30.5262135  11.3097463  93.2642362  30.6050615
  10.7835077  91.9680410  31.1837061  13.8790663  79.4862403  43.1823501
  13.1023997  80.0456323  43.1726366  14.5181226  79.9719186  43.7038372
  21.6711444  76.2689196  37.0166478  21.0285824  76.5621729  36.3706273
  21.1666372  76.1542116  37.8219675  19.3251608  80.0152369  27.7052337
  20.2369464  80.2479756  27.5300035  18.8161255  80.5989413  27.1427416
  12.1337036  82.2947856  42.7441468  12.8751720  82.8332900  42.4676292
  11.4274021  82.9214145  42.9013020  17.6092375  84.4376997  41.3413630
  18.0175731  83.9959407  40.5968262  16.8869637  83.8629624  41.5947823
  13.9623445  79.3749603  38.7147187  14.8084640  79.7989017  38.8581836
  13.9022083  78.7183228  39.4085750  17.9321190  84.9978187  35.0965919
  17.3030052  85.1623901  34.3941987  17.5446852  85.4119797  35.8676883
  21.8110422  85.9332625  32.4510283  21.1261460  86.3131526  31.9007316
  21.8954271  86.5427952  33.1842230  17.1122891  77.0353972  40.3728360
  16.8683822  77.7896032  39.8362636  17.3882821  77.4139319  41.2075608
  19.0661353  83.5792584  39.0505626  19.2778249  84.2224344  38.3740007
  19.0191102  82.7454901  38.5827556  16.6687582  76.1910405  35.9542198
  15.8072061  76.4891658  36.2458936  16.6950017  76.4080804  35.0223231
  13.4849152  84.7352595  32.3616004  13.9487497  85.0140298  31.5720626
  13.2205950  83.8336040  32.1789095  10.3773233  84.2824077  35.2995767
  10.9474590  84.7111345  34.6613252  10.9681345  84.0006662  35.9979953
  12.4218038  80.8575748  29.1705569  13.1242081  81.3096791  29.6379495
  12.0898666  80.2159567  29.7985462  10.8698399  79.4487504  43.5456778
  10.2397060  80.1303785  43.7792175  10.7634487  79.3370586  42.6009917
   6.1643372  79.1159300  34.4722703   5.3742426  79.3716829  33.9962813
   6.6554619  79.9307638  34.5774743  20.1807181  86.4564540  37.2227983
  21.0024625  86.0544727  36.9410665  20.1769584  86.3532774  38.1744099
   8.1158117  79.4803880  31.4306179   7.3189280  79.5922574  31.9489675
   7.8883709  79.8190532  30.5647070  13.9463785  86.0048583  39.3788694
  14.0108217  86.4668990  40.2146866  13.2374709  85.3745948  39.5071004
   4.4481075  79.3689791  36.9037693   4.6989113  80.2536801  37.1695269
   4.9840623  79.1894392  36.1312785  28.2713174  82.8003288  33.5712955
  27.5176883  82.2310686  33.4156959  28.4060716  82.7665953  34.5183590
  13.6611802  87.6716690  29.2467674  13.5257477  88.5168226  29.6752522
  14.2021615  87.8735968  28.4833608  10.1479142  73.7508270  45.9082029
   9.7546088  73.1974469  46.5829674  10.9645282  74.0618849  46.2988547
   7.1141200  85.1892128  29.8195599   7.6265720  85.9835379  29.9701164
   7.7663913  84.4918419  29.7529201   8.9236085  88.3057885  31.9018353
   9.1002713  89.2275849  31.7139336   9.7192918  87.9916304  32.3312732
  13.0647103  75.1666149  43.5002286  13.8056816  75.7673302  43.4206749
  13.2965026  74.4243787  42.9420329   8.2088441  80.3522517  41.7780516
   8.0941956  79.4507774  42.0787615   7.3532959  80.5986213  41.4265332
  15.2880279  88.2940257  43.3768016  14.8444133  87.5076635  43.0588921
  15.9497492  88.4819407  42.7111907  10.0467400  89.8236058  37.9028695
  10.5974825  89.6953122  37.1305689   9.2078876  90.1230947  37.5523588
  17.3861517  88.5743057  41.4049418  17.3679992  89.3951938  40.9129687
  18.3081437  88.4497132  41.6299559  13.8434571  86.0887186  42.2472926
  14.3762908  85.3275474  42.0172234  13.3148652  85.7960838  42.9897080
  17.0104266  71.1947252  37.7766568  16.6668535  72.0848894  37.7005678
  17.3783229  71.0048910  36.9136153   5.0790117  83.5180783  30.5955170
   5.9165339  83.9277791  30.3788878   5.2568384  82.5780225  30.5655364
  16.9754549  81.1855863  26.2839003  16.4601172  81.9560468  26.5227390
  16.7031857  80.5120999  26.9072064  14.5601660  76.0305564  31.3424241
  13.7043256  75.6412414  31.1629880  14.9728612  76.1097525  30.4824027
  16.0900806  73.5651907  35.7415801  15.5865602  73.5282043  34.9283606
  16.3831413  74.4744650  35.8012458  12.3343692  73.6490637  34.7481983
  13.1996689  73.4533446  34.3887872  12.4021201  73.4200989  35.6751339
  21.9488823  83.9388218  28.2192176  21.1718266  83.5999377  27.7747338
  22.6280304  83.9440841  27.5447141  16.7640852  79.0582955  28.1098784
  16.4590987  79.3729105  28.9608927  17.7171294  79.1364375  28.1526117
  15.2087284  85.2173179  29.7591738  14.6808645  84.4825938  29.4464975
  14.7074786  85.9947855  29.5131706  20.1880130  83.4122199  34.8758784
  19.5303804  84.1021461  34.9638913  20.9920529  83.8018631  35.2192771
   9.9406011  75.8792845  32.1198350  10.5149763  75.6568026  31.3871542
  10.5276994  75.9481539  32.8726951  18.9985589  81.7666572  32.9262726
  19.5117470  82.3996564  33.4284436  19.6486812  81.1667767  32.5606086
  10.2675598  77.9097306  26.1394235   9.4312911  78.2471993  26.4603509
  10.1280368  77.7746286  25.2021372  12.2428679  72.7534094  30.8473419
  11.5893091  72.4383111  30.2230034  12.2009153  72.1309834  31.5733242
  13.3539884  83.0353389  22.7626711  12.4466946  82.8042642  22.9617860
  13.8510916  82.2391008  22.9500693  16.2607963  91.7450896  25.6823397
  15.5869662  92.0482593  26.2908355  16.6473785  92.5479977  25.3328854
  15.4766419  79.2416027  35.1721067  14.5588981  79.4630974  35.0142755
  15.8926563  79.3162338  34.3132774  16.2601467  80.6407443  30.3023747
  17.0073286  81.1528840  29.9930869  16.5293057  80.3191496  31.1628140
  14.5328117  83.1365984  27.2850701  13.6239337  82.8525017  27.3823171
  14.5623201  83.5565062  26.4254008  19.7647385  86.7472573  31.0541869
  19.3109712  85.9063483  31.1107059  19.1341351  87.3833972  31.3916649
  18.7080304  77.6764559  32.2842536  17.9703061  77.1641946  32.6152779
  18.9607078  77.2364941  31.4725813  18.2080324  88.5849070  31.9891687
  18.5003298  89.1454127  31.2704052  18.7178945  88.8777631  32.7444846
  18.8091932  70.4540811  32.8784305  19.1150808  69.5938175  32.5910220
  19.5344536  71.0458432  32.6783299   5.1016288  80.8571498  31.2665903
   4.9040688  80.2640859  30.5416970   4.5462952  80.5523708  31.9841842
  13.0813011  80.7494604  33.3860496  13.1361621  79.7968441  33.3102973
  12.2704213  80.9054044  33.8701795  14.2304205  84.6774728  24.6238780
  13.7923635  83.9610586  24.1644417  14.9714646  84.9050842  24.0623871
  11.0205371  79.3671664  31.1450875  10.2073237  79.6665835  31.5516067
  11.5164365  78.9727353  31.8625358  13.1713949  89.3629421  33.0785140
  13.1290128  89.5890267  32.1493672  14.0876648  89.1292796  33.2270941
  16.6179583  79.8313489  39.9765769  16.9728971  80.0584962  40.8360235
  17.2651714  80.1631865  39.3543025  22.3477320  82.9531925  30.6815098
  22.2095219  83.1433521  29.7536287  21.9913539  83.7151307  31.1383149
  10.5119446  76.9390020  36.7612110  11.1518825  76.7978779  36.0635074
   9.6796977  76.6524533  36.3850712  22.3746700  85.0208452  35.6926370
  22.8083206  84.9283741  36.5409424  23.0878280  84.9965952  35.0546386
  11.2879750  86.2392450  32.8747103  12.0820348  85.7442770  32.6729678
  10.5771442  85.7110313  32.5114808  16.1074594  88.6210546  37.2259470
  16.1611617  89.1901482  37.9937186  15.2389376  88.7912431  36.8613507
   7.5962513  80.3835532  28.9506855   6.6660102  80.3219987  29.1676818
   7.6919985  79.8611485  28.1543497   7.5148062  76.9090345  31.5385097
   7.7754880  77.8235678  31.4294258   8.3365235  76.4414787  31.6881710
   8.9872988  78.3228102  38.7083922   9.6596041  78.1145464  38.0596571
   8.1602774  78.1250188  38.2689154  23.2362249  85.0632152  38.2259255
  23.4298139  85.9677963  38.4718530  23.1362867  84.6039571  39.0597840
  14.8898560  74.9490043  40.7249582  14.2426475  75.6479992  40.6314059
  15.6599575  75.3826187  41.0925831  18.2977358  85.2138895  43.8000136
  18.1462864  84.9849447  42.8830219  18.2882037  86.1709496  43.8131481
  15.0662694  82.7870808  38.7846402  15.9954754  82.9381967  38.6115370
  14.6453724  82.8754828  37.9295049  13.8651026  86.8121472  36.5544940
  13.7262112  86.4440257  37.4270878  13.0765622  87.3269112  36.3828898
  14.4599178  91.9130569  27.8970476  14.6350934  91.4418612  28.7116099
  13.7731966  92.5396335  28.1251737  15.4156241  86.1903075  33.9433778
  15.0806074  86.1503845  34.8391428  14.9160187  85.5247791  33.4704188
   9.3900485  81.5970705  39.4686359   9.2520283  80.8650944  40.0697898
  10.3005409  81.5079605  39.1870547  18.3515433  83.5359109  24.2170837
  17.7344603  82.8105937  24.1203890  17.8831921  84.2968469  23.8737912
  12.0182786  81.3090664  38.9570038  12.7282404  80.6683856  38.9156657
  11.9752094  81.5603559  39.8796219  20.0069564  88.2458018  41.8776618
  19.9482111  87.5617238  41.2107201  20.4089083  88.9877008  41.4257244
  10.7311720  78.2955882  40.7765678  10.1949077  77.8446621  41.4287274
  10.1428428  78.4301791  40.0336142   9.0260263  95.0619931  34.6710337
   9.2656861  95.6938456  35.3489355   8.1829460  94.7107971  34.9575696
  10.1413979  77.7544533  23.3392142   9.2643445  77.6333334  22.9754388
  10.6171732  76.9630612  23.0871030  20.0086972  86.2097601  40.1090597
  19.1213750  85.8723523  40.2316996  20.5785523  85.4780633  40.3459363
   1.6616119  82.5421693  33.4333649   2.3487159  82.2283423  32.8454664
   1.5064247  83.4463058  33.1600900   6.4650841  77.4311890  37.8618672
   6.3809030  76.8237559  37.1269082   5.6433547  77.9220908  37.8628169
  13.5388125  90.8699054  37.0751841  13.4658297  91.6754025  37.5871145
  13.0965518  91.0691020  36.2499862  13.3277905  90.1070824  30.5854662
  12.5445427  90.6492504  30.6792887  14.0270650  90.6244803  30.9848903
  16.6374555  75.9165453  33.2288867  17.1343254  75.1635416  32.9089938
  15.8661536  75.9529770  32.6632077  24.4904312  81.6205819  34.8707159
  24.4794188  82.5030534  34.5001092  23.6221692  81.2677370  34.6761696
  15.9986809  90.7685888  39.2309999  16.7114781  91.4033353  39.1585901
  15.5076837  90.8649754  38.4150001  17.7204336  84.6737141  30.8027291
  16.7860614  84.7938603  30.6331995  17.8981004  83.7709607  30.5387301
  13.2209524  78.0582836  32.9560552  12.8507311  77.5053877  33.6441458
  13.7168616  77.4540970  32.4035552  21.1076887  80.5154460  31.3377325
  21.5737339  81.3482451  31.2637628  21.5584387  80.0499441  32.0422583
  11.0498722  88.5180331  40.0515570  11.7508182  89.1516814  40.2044964
  10.5793837  88.8595063  39.2911209  19.1753118  86.8598281  28.3363477
  19.4512962  86.7454876  29.2457351  18.3057617  86.4615766  28.2975650
  19.0793550  72.8835047  35.3768226  18.1656629  73.1139274  35.5450433
  19.5086651  72.9673491  36.2282259  18.8500008  81.0724939  37.8768120
  18.1971458  81.3200846  37.2220573  19.2280388  80.2589077  37.5430598
  15.8107182  91.1084632  31.9796291  15.9929577  90.2906288  32.4424043
  16.6340168  91.3252324  31.5421181  16.1449347  90.0352817  29.2411339
  16.6737114  89.5245272  28.6281501  16.4077567  89.7195347  30.1056872
  14.8987581  81.8144750  44.3634157  14.2228218  81.7138879  45.0336533
  15.7215215  81.6583964  44.8270155   6.6466440  88.0516686  36.9846673
   7.2319877  87.3060374  37.1174577   6.4491279  88.3620643  37.8683337
   9.5005095  91.0867934  32.0009115   8.8315471  91.5714061  31.5173155
   9.3617965  91.3337154  32.9152494   1.2384095  80.6222287  35.7051116
   1.2768194  80.0885877  36.4988234   0.7324388  80.0957492  35.0862093
  13.6410364  93.1211677  38.5991773  14.1928672  93.2843299  39.3640859
  13.9816557  93.7116115  37.9271798   8.6174857  75.4686827  39.2013658
   8.6816184  76.3301658  38.7891056   8.5541977  74.8560829  38.4686017
   8.0927130  77.5409960  42.8486692   8.7199169  77.1587037  43.4624217
   7.2355049  77.3224162  43.2142385  18.4921238  87.9472935  44.4540428
  19.0361142  88.5602893  43.9595383  17.9108083  88.5052513  44.9707441
   4.8692673  79.3486389  28.7805047   5.1646114  78.4397067  28.7272101
   3.9680708  79.3274128  28.4586050  16.7778751  91.0693653  35.5855456
  16.6529891  90.2683393  35.0766401  17.4357842  91.5639846  35.0969426
   8.3986920  77.4242385  34.7632596   7.6773505  78.0378353  34.6240069
   9.1880175  77.9600150  34.6849242  18.8413660  88.8702673  37.2135006
  17.8943995  88.7508024  37.1413332  19.1896433  87.9825171  37.2961267
  11.2013233  74.7596812  41.0373248  11.7247635  75.0059108  41.7999557
  10.9825566  75.5916847  40.6176385   6.5980514  77.0300486  28.9044372
   6.2693220  76.1497865  28.7219478   6.9519885  76.9748155  29.7920762
  15.8460093  88.6655389  33.4139358  15.6985055  87.7372096  33.5946928
  16.6713586  88.6875480  32.9296433   9.7122337  77.3173456  29.2719850
  10.0518410  77.8459377  28.5498458  10.1594458  77.6553862  30.0478417
  19.4494215  89.4883948  34.5004231  20.3740762  89.2826809  34.3628682
  19.2809518  89.2400349  35.4093572  12.4065778  75.7010507  38.7222918
  12.0662598  74.9018320  39.1243598  11.7004784  76.0012218  38.1499751
  13.0582250  72.7859819  37.1750241  13.8808319  72.3120297  37.0529131
  13.3020313  73.5650303  37.6748927  11.6990484  75.8148078  27.4713143
  12.4198847  76.1929331  26.9676860  11.0755789  76.5336955  27.5748121
  15.8421607  76.5193227  28.4071475  16.0585222  77.4017865  28.1060303
  15.3615674  76.1279440  27.6777117  10.5820829  79.4778940  34.9842220
  10.4365409  79.7919243  35.8766501  10.1046032  80.0963840  34.4313118
  12.4417212  76.4681488  35.0323109  12.4278780  75.5722581  34.6955407
  13.1589640  76.4752152  35.6661395  14.2943342  76.9018828  37.0776237
  14.0361120  77.8235899  37.0760567  13.7628383  76.5049263  37.7676701
  19.2389531  90.0069615  29.8566322  19.4126409  89.4416038  29.1040175
  19.7318422  90.8070510  29.6745812   5.0566491  82.0184284  37.9229881
   4.5119959  82.7944092  38.0550155   5.9345841  82.3655089  37.7649002
  11.8454107  75.3495868  30.3010679  11.9670019  74.4212514  30.5001567
  11.5556150  75.3634554  29.3888995  14.7145298  73.0350779  33.4377399
  14.7366995  73.0990112  32.4829379  15.1313357  72.1955287  33.6317905
  25.0928922  82.7706038  31.4756622  25.5360068  82.0213363  31.0775745
  24.2155432  82.7616175  31.0930354  20.2264704  89.3236380  26.9563220
  20.9215608  89.9443072  27.1750535  20.5687854  88.4731731  27.2315598
   5.8432513  81.1454181  40.8160038   5.1014249  81.2936816  41.4024668
   5.5225257  81.4062446  39.9526787  22.1256127  86.7736085  28.4850551
  22.6507451  87.1123358  27.7599871  22.0378479  85.8383101  28.3013686
  13.7876175  90.6870159  40.6140428  14.0963302  90.4419306  41.4863127
  14.5851657  90.8916797  40.1259298  13.8096787  92.8408068  32.8445804
  13.3701778  92.3484447  33.5378661  14.5604904  92.2981036  32.6037880
   6.2889126  89.0319609  32.8470432   7.1147146  88.7323381  32.4669076
   5.9383178  88.2627232  33.2960221  11.2570660  88.3846078  34.9168106
  10.6350669  87.7216783  34.6170334  11.9275526  88.4107209  34.2341754
   4.4897731  86.9505936  33.8059366   3.6529640  86.5228110  33.6243367
   4.4621377  87.1438379  34.7430157  11.3295187  76.8627866  44.5100612
  11.3783342  77.7389988  44.1278382  11.8717701  76.3205259  43.9372255
  21.8150033  87.4068989  43.7901749  21.0245576  87.3893128  43.2506249
  21.5783387  87.9457283  44.5450786  21.9347908  84.2561455  41.1034478
  21.9845913  84.0911463  42.0450000  21.8261831  83.3888714  40.7132358
  10.8184166  86.9350001  28.3926567  10.9672287  87.6185465  27.7393239
  11.6250610  86.9155091  28.9076022  19.2251670  80.2392383  42.4193784
  20.1261533  80.0998848  42.1277782  19.2999645  80.4046838  43.3591962
  13.5594475  77.6159238  41.2646971  12.6897785  77.9092804  40.9929559
  13.7953956  78.1999683  41.9854234  23.4366105  86.6758397  41.3476499
  23.1450913  87.0388377  42.1839960  22.8238236  85.9625405  41.1689831
  24.6361787  84.2411277  33.8679069  25.4708678  84.6801081  34.0316630
  24.7720916  83.7649930  33.0487315  21.6853293  81.7991011  39.8156557
  22.1607414  81.9918658  39.0075409  20.7618858  81.8550197  39.5699941
   8.5736799  82.9615179  29.3987635   8.3282841  82.0577509  29.5967846
   8.7432714  82.9632329  28.4567113  16.2633509  73.8338855  38.7812391
  16.7815453  74.5699882  38.4558880  15.9088642  74.1402848  39.6159150
   7.8432447  78.6943536  26.8973797   7.1501692  78.7687891  26.2413833
   7.5984199  77.9303880  27.4195314  16.5146103  70.2539137  34.3013288
  16.7947857  69.5862327  34.9273714  17.2996710  70.4468233  33.7887952
  14.3179572  89.4298131  25.8638314  13.7453539  90.0488318  25.4108786
  14.8912366  89.9797493  26.3978236  20.3854962  78.6756771  38.0484863
  21.3372385  78.7754869  38.0697087  20.2158412  77.8835040  38.5582947
  18.4069341  75.7612355  38.2344264  17.8119273  76.0417367  37.5390752
  18.1219038  76.2506256  39.0061005  17.5376832  89.7135281  26.9946896
  18.4707505  89.6480843  27.1979772  17.4500045  90.5491548  26.5361429
  20.1664848  89.0301152  23.9550844  20.0878480  88.6961015  24.8486602
  20.9874515  89.5222920  23.9542316  22.8643040  81.8962891  37.1627162
  22.8319360  80.9578892  37.3486846  23.4743663  81.9746928  36.4292987
  14.7026370  80.7658944  23.2054366  15.6485475  80.6365152  23.2742785
  14.3240615  80.0273606  23.6823795  23.0137528  78.6873935  37.2085446
  22.4976577  77.9032391  37.0215374  23.8977477  78.3592651  37.3731965
  20.6748255  72.4314950  33.1681258  20.4773076  72.1230038  34.0524590
  21.2847961  73.1576589  33.2979188  28.6819589  82.9578898  36.3033199
  29.4122978  82.6964186  36.8640903  28.0726535  82.2207620  36.3435267
  26.7634887  81.0986761  36.9007650  26.0368050  80.9642725  36.2924142
  26.3482173  81.4063589  37.7064368  14.5865063  84.8176690  44.6655023
  15.5068072  84.9955289  44.8595070  14.5514646  83.8732736  44.5134723
  12.8869288  78.6908920  23.1409252  11.9800743  78.3942033  23.2171965
  13.1645269  78.3938739  22.2743538   3.8047228  80.0115284  33.5908298
   3.4850012  79.1580592  33.2982672   3.2580656  80.2263862  34.3466265
   7.5827136  82.7277725  37.3077805   7.8013145  83.6594833  37.3265838
   7.9952909  82.3685699  38.0932608  14.5031353  73.2345810  29.2953493
  13.6932082  72.8892895  29.6708739  15.1915770  72.9253354  29.8841105
  16.4321902  72.3123857  30.9177790  16.9852940  72.7319310  31.5767813
  16.6691988  71.3859605  30.9600746  12.4555001  78.3010931  46.6980554
  12.3551728  79.2505288  46.6292645  12.2376543  77.9729170  45.8256624
  11.6568072  75.5495856  23.2821231  12.5187236  75.8750754  23.5417048
  11.8418416  74.7627352  22.7694297   3.6735488  83.6318195  35.5601420
   2.9798959  83.2172148  35.0471374   4.4208479  83.6738732  34.9634839
  19.8100709  74.4224382  30.4256454  19.2299378  75.0809186  30.0434506
  19.5436641  73.6001727  30.0143871  18.2604275  73.8229440  32.6277774
  18.7604053  73.9345974  31.8192093  18.9039883  73.5190493  33.2678583
  12.3186271  81.7308069  45.5145615  11.8353353  82.5308430  45.7209504
  12.4047210  81.7416014  44.5613059   5.5872231  83.5636449  33.4367435
   5.5642919  83.6624136  32.4849318   5.8972867  84.4101600  33.7584601
   8.2459608  85.6212604  37.5514049   9.2002862  85.5896547  37.4843981
   8.0472132  85.1603228  38.3664275   8.8358991  84.1913720  40.1184847
   9.6551880  84.6857799  40.1419684   9.1095798  83.2745688  40.0902414
  18.5925587  76.5824473  29.4812802  17.7051442  76.8674123  29.2632997
  19.0079576  76.4218236  28.6340079  21.9440123  76.6070994  33.1967141
  22.7200513  77.0967446  33.4691758  21.2188257  77.0329048  33.6539011
  24.3812681  77.3198613  34.2541082  24.9757172  77.0794349  33.5434390
  24.4539265  76.6005743  34.8814618   6.6009837  91.1632224  34.5684247
   6.4664305  90.4032625  34.0022245   6.1841899  91.8873124  34.1013036
  17.7368800  86.3469147  23.5760822  18.4404650  86.5519150  24.1918478
  17.0131449  86.9145909  23.8409906  18.5666610  82.0979008  29.6963092
  18.5101812  82.5547560  28.8570725  19.1194953  81.3369693  29.5185935
  22.3771416  77.8868740  30.5213212  22.1208351  77.4865376  31.3521420
  21.7524284  78.6012534  30.3963351  26.6883754  80.6264814  33.0284503
  26.1283312  80.6958003  33.8016065  26.0827258  80.4505798  32.3083999
   9.7578963  92.0601541  34.7802689   9.6411347  93.0046973  34.6781380
   8.9371409  91.7575102  35.1688489  19.6455498  86.7851676  25.6259282
  20.4801102  86.3532875  25.4436757  19.4839841  86.6133690  26.5536177
  19.3001390  83.2883790  26.9915622  19.2450194  83.1228061  26.0504066
  18.6747445  83.9959823  27.1477811   4.0893905  78.5251854  40.8177044
   4.7352768  78.0150808  41.3064269   3.8811056  79.2620536  41.3920469
  16.6147297  85.5932702  46.3169184  17.4838457  85.7673354  45.9555819
  16.1354048  86.4127118  46.1944914  12.6097515  72.7891899  26.5700940
  12.5976185  73.7333739  26.7269211  13.5020937  72.6062044  26.2760401
  10.7833477  92.7129803  37.9958618  11.6860724  92.7453413  38.3125113
  10.5570847  91.7830254  38.0104954  12.5387079  91.4660789  34.6568697
  11.5882710  91.4662651  34.5433069  12.8419565  90.7193524  34.1404731
  16.4249635  69.3834675  30.8246877  15.6582031  68.8293162  30.9703559
  16.8360340  69.4556544  31.6861028   8.4291396  75.6719471  44.9152058
   9.2922857  75.3156276  45.1255383   7.8556806  75.3333366  45.6027462
  28.2739773  97.3021328  35.7214459  28.9118183  97.1828075  35.0177799
  28.1560616  98.2502171  35.7802411  25.0829479  97.2548756  35.6575984
  24.7447991  97.1389820  34.7696518  25.9519247  96.8539921  35.6376990
  20.9416295  99.1084232  31.6472875  20.3781160  99.0174169  30.8789162
  20.8268690  98.2884137  32.1275367  25.5649262  98.4083607  41.6162189
  25.5537903  98.0136406  40.7442693  25.7269901  97.6749680  42.2095961
  18.4880727 100.6035424  34.4857095  19.2802019 100.2626248  34.0703394
  18.7277377 100.7130399  35.4059248  26.5215853 102.7755200  26.9587339
  25.8703833 103.3609280  26.5721353  27.3160216 103.3061395  27.0182377
  20.4471481  99.8644337  27.3574474  21.2202357  99.3173324  27.2187350
  20.7996879 100.7288586  27.5688935  22.2856523 101.1920719  40.5641373
  21.9946389 102.0966350  40.4488039  22.9213507 101.2337247  41.2785443
  23.2112730  98.5697568  37.1542733  23.8076302  98.3453590  36.4399696
  23.2687701  97.8282313  37.7568181  22.7837758  96.0237003  24.9892924
  23.0363279  95.5018524  24.2276387  21.8462317  95.8603148  25.0919607
  27.8281041  95.0272781  32.7967667  28.6144130  94.6092205  32.4458084
  28.0919746  95.9318874  32.9649315  27.9991119 100.4645632  27.4956324
  27.3636952 100.5380258  28.2077228  27.6688525 101.0539231  26.8175403
  33.2289468  94.9648015  33.7000645  33.9614640  94.3947231  33.9338475
  32.4728824  94.5769615  34.1407151  22.5034047  97.9265109  27.1917299
  22.3870305  97.2510012  27.8598383  22.6136307  97.4397483  26.3749452
  24.8465588  97.3875256  30.8963988  24.4823795  96.8605877  31.6076909
  25.7032704  96.9973725  30.7230473  30.7514889  88.6769589  38.1595254
  30.4198213  89.5465000  37.9356469  30.1560502  88.3605873  38.8389284
  24.4871075  92.4165156  25.8925336  24.6545477  93.2845392  26.2595808
  24.2968244  92.5792437  24.9686626  27.2446408 100.8782135  37.5591167
  26.9447131 101.7807173  37.4506974  26.8997468 100.6114318  38.4112320
  20.6958890  97.3295932  33.5927871  19.7709386  97.1972146  33.8005563
  20.9443303  98.1090151  34.0897814  30.6443552  93.3964675  35.2388604
  29.7360429  93.3280083  34.9447365  30.5931148  93.8736620  36.0670430
  24.4660296  94.8722813  26.8772003  24.3459921  95.3179864  27.7157484
  23.7712884  95.2208131  26.3185541  18.0567701  96.9729205  34.4271660
  18.1860082  97.2263684  35.3411072  17.3765152  97.5656913  34.1076315
  22.2267188 107.6426455  30.5262135  22.1491218 108.5934280  30.6050615
  21.6228832 107.2972328  31.1837061  24.7184418  94.8154320  43.1823501
  23.9417752  95.3748241  43.1726366  25.3574981  95.3011103  43.7038372
  32.5105198  91.5981113  37.0166478  31.8679579  91.8913646  36.3706273
  32.0060127  91.4834034  37.8219675  30.1645362  95.3444286  27.7052337
  31.0763218  95.5771673  27.5300035  29.6555009  95.9281331  27.1427416
  22.9730790  97.6239774  42.7441468  23.7145474  98.1624818  42.4676292
  22.2667776  98.2506063  42.9013020  28.4486130  99.7668914  41.3413630
  28.8569486  99.3251325  40.5968262  27.7263391  99.1921542  41.5947823
  24.8017200  94.7041521  38.7147187  25.6478395  95.1280935  38.8581836
  24.7415837  94.0475145  39.4085750  28.7714944 100.3270105  35.0965919
  28.1423807 100.4915819  34.3941987  28.3840606 100.7411714  35.8676883
  32.6504176 101.2624543  32.4510283  31.9655214 101.6423444  31.9007316
  32.7348026 101.8719869  33.1842230  27.9516645  92.3645889  40.3728360
  27.7077577  93.1187950  39.8362636  28.2276576  92.7431237  41.2075608
  29.9055108  98.9084502  39.0505626  30.1172003  99.5516262  38.3740007
  29.8584856  98.0746818  38.5827556  27.5081337  91.5202322  35.9542198
  26.6465816  91.8183576  36.2458936  27.5343771  91.7372721  35.0223231
  24.3242906 100.0644513  32.3616004  24.7881252 100.3432216  31.5720626
  24.0599704  99.1627958  32.1789095  21.2166987  99.6115995  35.2995767
  21.7868344 100.0403263  34.6613252  21.8075099  99.3298579  35.9979953
  23.2611792  96.1867665  29.1705569  23.9635836  96.6388709  29.6379495
  22.9292421  95.5451484  29.7985462  21.7092154  94.7779422  43.5456778
  21.0790814  95.4595703  43.7792175  21.6028242  94.6662504  42.6009917
  17.0037126  94.4451218  34.4722703  16.2136180  94.7008747  33.9962813
  17.4948374  95.2599556  34.5774743  31.0200936 101.7856457  37.2227983
  31.8418380 101.3836644  36.9410665  31.0163339 101.6824691  38.1744099
  18.9551872  94.8095797  31.4306179  18.1583035  94.9214492  31.9489675
  18.7277464  95.1482449  30.5647070  24.7857539 101.3340500  39.3788694
  24.8501972 101.7960908  40.2146866  24.0768463 100.7037865  39.5071004
  15.2874829  94.6981708  36.9037693  15.5382868  95.5828718  37.1695269
  15.8234378  94.5186310  36.1312785  39.1106929  98.1295206  33.5712955
  38.3570637  97.5602604  33.4156959  39.2454470  98.0957870  34.5183590
  24.5005557 103.0008608  29.2467674  24.3651232 103.8460144  29.6752522
  25.0415369 103.2027886  28.4833608  20.9872897  89.0800188  45.9082029
  20.5939842  88.5266386  46.5829674  21.8039037  89.3910766  46.2988547
  17.9534954 100.5184046  29.8195599  18.4659475 101.3127296  29.9701164
  18.6057667  99.8210336  29.7529201  19.7629839 103.6349802  31.9018353
  19.9396467 104.5567767  31.7139336  20.5586673 103.3208222  32.3312732
  23.9040858  90.4958067  43.5002286  24.6450571  91.0965220  43.4206749
  24.1358780  89.7535705  42.9420329  19.0482196  95.6814434  41.7780516
  18.9335711  94.7799691  42.0787615  18.1926713  95.9278131  41.4265332
  26.1274033 103.6232174  43.3768016  25.6837887 102.8368553  43.0588921
  26.7891247 103.8111325  42.7111907  20.8861154 105.1527976  37.9028695
  21.4368580 105.0245039  37.1305689  20.0472630 105.4522865  37.5523588
  28.2255271 103.9034974  41.4049418  28.2073747 104.7243855  40.9129687
  29.1475191 103.7789050  41.6299559  24.6828326 101.4179104  42.2472926
  25.2156662 100.6567392  42.0172234  24.1542407 101.1252756  42.9897080
  27.8498020  86.5239170  37.7766568  27.5062290  87.4140812  37.7005678
  28.2176983  86.3340828  36.9136153  15.9183871  98.8472700  30.5955170
  16.7559093  99.2569709  30.3788878  16.0962139  97.9072142  30.5655364
  27.8148303  96.5147781  26.2839003  27.2994927  97.2852386  26.5227390
  27.5425612  95.8412917  26.9072064  25.3995414  91.3597482  31.3424241
  24.5437011  90.9704332  31.1629880  25.8122366  91.4389443  30.4824027
  26.9294561  88.8943825  35.7415801  26.4259356  88.8573960  34.9283606
  27.2225168  89.8036568  35.8012458  23.1737447  88.9782555  34.7481983
  24.0390444  88.7825363  34.3887872  23.2414956  88.7492907  35.6751339
  32.7882577  99.2680136  28.2192176  32.0112020  98.9291295  27.7747338
  33.4674058  99.2732759  27.5447141  27.6034606  94.3874873  28.1098784
  27.2984742  94.7021022  28.9608927  28.5565048  94.4656293  28.1526117
  26.0481038 100.5465096  29.7591738  25.5202400  99.8117856  29.4464975
  25.5468541 101.3239773  29.5131706  31.0273884  98.7414117  34.8758784
  30.3697559  99.4313378  34.9638913  31.8314283  99.1310549  35.2192771
  20.7799766  91.2084763  32.1198350  21.3543518  90.9859944  31.3871542
  21.3670748  91.2773457  32.8726951  29.8379343  97.0958490  32.9262726
  30.3511225  97.7288481  33.4284436  30.4880567  96.4959685  32.5606086
  21.1069353  93.2389224  26.1394235  20.2706665  93.5763910  26.4603509
  20.9674123  93.1038203  25.2021372  23.0822434  88.0826012  30.8473419
  22.4286846  87.7675029  30.2230034  23.0402908  87.4601752  31.5733242
  24.1933638  98.3645307  22.7626711  23.2860700  98.1334560  22.9617860
  24.6904670  97.5682926  22.9500693  27.1001717 107.0742814  25.6823397
  26.4263416 107.3774511  26.2908355  27.4867539 107.8771894  25.3328854
  26.3160174  94.5707945  35.1721067  25.3982735  94.7922892  35.0142755
  26.7320318  94.6454256  34.3132774  27.0995222  95.9699361  30.3023747
  27.8467041  96.4820758  29.9930869  27.3686811  95.6483414  31.1628140
  25.3721872  98.4657902  27.2850701  24.4633091  98.1816934  27.3823171
  25.4016956  98.8856980  26.4254008  30.6041139 102.0764491  31.0541869
  30.1503466 101.2355401  31.1107059  29.9735106 102.7125889  31.3916649
  29.5474059  93.0056477  32.2842536  28.8096816  92.4933863  32.6152779
  29.8000832  92.5656859  31.4725813  29.0474078 103.9140988  31.9891687
  29.3397053 104.4746045  31.2704052  29.5572699 104.2069549  32.7444846
  29.6485686  85.7832729  32.8784305  29.9544563  84.9230092  32.5910220
  30.3738291  86.3750349  32.6783299  15.9410042  96.1863416  31.2665903
  15.7434442  95.5932776  30.5416970  15.3856706  95.8815626  31.9841842
  23.9206766  96.0786522  33.3860496  23.9755376  95.1260359  33.3102973
  23.1097968  96.2345961  33.8701795  25.0697960 100.0066645  24.6238780
  24.6317390  99.2902504  24.1644417  25.8108401 100.2342760  24.0623871
  21.8599126  94.6963582  31.1450875  21.0466991  94.9957752  31.5516067
  22.3558120  94.3019271  31.8625358  24.0107704 104.6921339  33.0785140
  23.9683882 104.9182185  32.1493672  24.9270403 104.4584713  33.2270941
  27.4573337  95.1605406  39.9765769  27.8122725  95.3876879  40.8360235
  28.1045469  95.4923783  39.3543025  33.1871074  98.2823842  30.6815098
  33.0488973  98.4725438  29.7536287  32.8307293  99.0443225  31.1383149
  21.3513201  92.2681937  36.7612110  21.9912580  92.1270696  36.0635074
  20.5190731  91.9816451  36.3850712  33.2140454 100.3500369  35.6926370
  33.6476961 100.2575658  36.5409424  33.9272035 100.3257870  35.0546386
  22.1273504 101.5684368  32.8747103  22.9214103 101.0734688  32.6729678
  21.4165197 101.0402231  32.5114808  26.9468349 103.9502463  37.2259470
  27.0005371 104.5193400  37.9937186  26.0783130 104.1204348  36.8613507
  18.4356268  95.7127450  28.9506855  17.5053856  95.6511905  29.1676818
  18.5313740  95.1903402  28.1543497  18.3541817  92.2382262  31.5385097
  18.6148634  93.1527596  31.4294258  19.1758989  91.7706705  31.6881710
  19.8266742  93.6520020  38.7083922  20.4989796  93.4437382  38.0596571
  18.9996529  93.4542106  38.2689154  34.0756004 100.3924070  38.2259255
  34.2691894 101.2969880  38.4718530  33.9756622  99.9331489  39.0597840
  25.7292314  90.2781960  40.7249582  25.0820229  90.9771910  40.6314059
  26.4993330  90.7118104  41.0925831  29.1371112 100.5430813  43.8000136
  28.9856619 100.3141364  42.8830219  29.1275792 101.5001414  43.8131481
  25.9056449  98.1162725  38.7846402  26.8348509  98.2673885  38.6115370
  25.4847479  98.2046746  37.9295049  24.7044780 102.1413390  36.5544940
  24.5655866 101.7732174  37.4270878  23.9159377 102.6561029  36.3828898
  25.2992932 107.2422486  27.8970476  25.4744688 106.7710529  28.7116099
  24.6125720 107.8688252  28.1251737  26.2549996 101.5194992  33.9433778
  25.9199828 101.4795762  34.8391428  25.7553941 100.8539708  33.4704188
  20.2294240  96.9262623  39.4686359  20.0914038  96.1942861  40.0697898
  21.1399163  96.8371523  39.1870547  29.1909187  98.8651027  24.2170837
  28.5738358  98.1397855  24.1203890  28.7225676  99.6260387  23.8737912
  22.8576540  96.6382582  38.9570038  23.5676159  95.9975774  38.9156657
  22.8145848  96.8895477  39.8796219  30.8463319 103.5749935  41.8776618
  30.7875865 102.8909155  41.2107201  31.2482837 104.3168925  41.4257244
  21.5705474  93.6247800  40.7765678  21.0342831  93.1738538  41.4287274
  20.9822183  93.7593709  40.0336142  19.8654018 110.3911849  34.6710337
  20.1050616 111.0230373  35.3489355  19.0223214 110.0399889  34.9575696
  20.9807733  93.0836451  23.3392142  20.1037199  92.9625252  22.9754388
  21.4565486  92.2922529  23.0871030  30.8480726 101.5389519  40.1090597
  29.9607505 101.2015441  40.2316996  31.4179277 100.8072550  40.3459363
  12.5009873  97.8713611  33.4333649  13.1880913  97.5575341  32.8454664
  12.3458002  98.7754976  33.1600900  17.3044595  92.7603807  37.8618672
  17.2202784  92.1529477  37.1269082  16.4827302  93.2512826  37.8628169
  24.3781880 106.1990971  37.0751841  24.3052051 107.0045943  37.5871145
  23.9359273 106.3982937  36.2499862  24.1671659 105.4362741  30.5854662
  23.3839181 105.9784422  30.6792887  24.8664404 105.9536721  30.9848903
  27.4768309  91.2457371  33.2288867  27.9737009  90.4927333  32.9089938
  26.7055291  91.2821688  32.6632077  35.3298067  96.9497736  34.8707159
  35.3187943  97.8322452  34.5001092  34.4615446  96.5969287  34.6761696
  26.8380563 106.0977805  39.2309999  27.5508535 106.7325270  39.1585901
  26.3470592 106.1941671  38.4150001  28.5598090 100.0029058  30.8027291
  27.6254369 100.1230521  30.6331995  28.7374758  99.1001525  30.5387301
  24.0603278  93.3874754  32.9560552  23.6901066  92.8345794  33.6441458
  24.5562371  92.7832887  32.4035552  31.9470641  95.8446377  31.3377325
  32.4131094  96.6774369  31.2637628  32.3978142  95.3791359  32.0422583
  21.8892477 103.8472249  40.0515570  22.5901936 104.4808732  40.2044964
  21.4187592 104.1886981  39.2911209  30.0146872 102.1890199  28.3363477
  30.2906716 102.0746793  29.2457351  29.1451371 101.7907684  28.2975650
  29.9187304  88.2126964  35.3768226  29.0050384  88.4431191  35.5450433
  30.3480406  88.2965409  36.2282259  29.6893763  96.4016856  37.8768120
  29.0365213  96.6492764  37.2220573  30.0674142  95.5880995  37.5430598
  26.6500936 106.4376550  31.9796291  26.8323331 105.6198206  32.4424043
  27.4733922 106.6544242  31.5421181  26.9843102 105.3644735  29.2411339
  27.5130868 104.8537189  28.6281501  27.2471322 105.0487265  30.1056872
  25.7381336  97.1436667  44.3634157  25.0621973  97.0430797  45.0336533
  26.5608970  96.9875881  44.8270155  17.4860195 103.3808604  36.9846673
  18.0713632 102.6352292  37.1174577  17.2885033 103.6912561  37.8683337
  20.3398850 106.4159851  32.0009115  19.6709225 106.9005979  31.5173155
  20.2011720 106.6629072  32.9152494  12.0777849  95.9514204  35.7051116
  12.1161949  95.4177795  36.4988234  11.5718142  95.4249410  35.0862093
  24.4804119 108.4503595  38.5991773  25.0322427 108.6135216  39.3640859
  24.8210312 109.0408033  37.9271798  19.4568612  90.7978745  39.2013658
  19.5209938  91.6593576  38.7891056  19.3935732  90.1852746  38.4686017
  18.9320884  92.8701877  42.8486692  19.5592923  92.4878955  43.4624217
  18.0748803  92.6516079  43.2142385  29.3314993 103.2764852  44.4540428
  29.8754897 103.8894811  43.9595383  28.7501838 103.8344431  44.9707441
  15.7086427  94.6778306  28.7805047  16.0039868  93.7688985  28.7272101
  14.8074463  94.6566046  28.4586050  27.6172506 106.3985570  35.5855456
  27.4923645 105.5975310  35.0766401  28.2751597 106.8931764  35.0969426
  19.2380674  92.7534303  34.7632596  18.5167260  93.3670271  34.6240069
  20.0273930  93.2892068  34.6849242  29.6807414 104.1994591  37.2135006
  28.7337750 104.0799942  37.1413332  30.0290187 103.3117089  37.2961267
  22.0406988  90.0888729  41.0373248  22.5641389  90.3351026  41.7999557
  21.8219321  90.9208764  40.6176385  17.4374269  92.3592404  28.9044372
  17.1086975  91.4789783  28.7219478  17.7913639  92.3040073  29.7920762
  26.6853847 103.9947307  33.4139358  26.5378810 103.0664014  33.5946928
  27.5107341 104.0167397  32.9296433  20.5516092  92.6465374  29.2719850
  20.8912164  93.1751295  28.5498458  20.9988212  92.9845780  30.0478417
  30.2887969 104.8175865  34.5004231  31.2134517 104.6118727  34.3628682
  30.1203273 104.5692267  35.4093572  23.2459533  91.0302425  38.7222918
  22.9056353  90.2310238  39.1243598  22.5398539  91.3304135  38.1499751
  23.8976004  88.1151737  37.1750241  24.7202074  87.6412215  37.0529131
  24.1414068  88.8942221  37.6748927  22.5384239  91.1439995  27.4713143
  23.2592601  91.5221248  26.9676860  21.9149543  91.8628872  27.5748121
  26.6815362  91.8485144  28.4071475  26.8978976  92.7309782  28.1060303
  26.2009429  91.4571358  27.6777117  21.4214583  94.8070858  34.9842220
  21.2759164  95.1211161  35.8766501  20.9439787  95.4255758  34.4313118
  23.2810966  91.7973406  35.0323109  23.2672535  90.9014499  34.6955407
  23.9983394  91.8044069  35.6661395  25.1337097  92.2310746  37.0776237
  24.8754875  93.1527816  37.0760567  24.6022137  91.8341180  37.7676701
  30.0783286 105.3361533  29.8566322  30.2520163 104.7707955  29.1040175
  30.5712177 106.1362428  29.6745812  15.8960245  97.3476202  37.9229881
  15.3513713  98.1236010  38.0550155  16.7739595  97.6947006  37.7649002
  22.6847862  90.6787786  30.3010679  22.8063773  89.7504432  30.5001567
  22.3949904  90.6926472  29.3888995  25.5539052  88.3642696  33.4377399
  25.5760749  88.4282029  32.4829379  25.9707111  87.5247205  33.6317905
  35.9322677  98.0997956  31.4756622  36.3753823  97.3505281  31.0775745
  35.0549187  98.0908092  31.0930354  31.0658458 104.6528297  26.9563220
  31.7609363 105.2734990  27.1750535  31.4081608 103.8023649  27.2315598
  16.6826267  96.4746098  40.8160038  15.9408003  96.6228734  41.4024668
  16.3619011  96.7354364  39.9526787  32.9649881 102.1028003  28.4850551
  33.4901205 102.4415276  27.7599871  32.8772234 101.1675018  28.3013686
  24.6269930 106.0162077  40.6140428  24.9357056 105.7711223  41.4863127
  25.4245412 106.2208715  40.1259298  24.6490542 108.1699986  32.8445804
  24.2095532 107.6776365  33.5378661  25.3998659 107.6272954  32.6037880
  17.1282881 104.3611527  32.8470432  17.9540901 104.0615299  32.4669076
  16.7776933 103.5919149  33.2960221  22.0964414 103.7137995  34.9168106
  21.4744423 103.0508700  34.6170334  22.7669281 103.7399127  34.2341754
  15.3291486 102.2797853  33.8059366  14.4923394 101.8520028  33.6243367
  15.3015131 102.4730297  34.7430157  22.1688942  92.1919783  44.5100612
  22.2177097  93.0681906  44.1278382  22.7111456  91.6497176  43.9372255
  32.6543787 102.7360907  43.7901749  31.8639331 102.7185045  43.2506249
  32.4177142 103.2749200  44.5450786  32.7741662  99.5853373  41.1034478
  32.8239667  99.4203380  42.0450000  32.6655586  98.7180632  40.7132358
  21.6577921 102.2641919  28.3926567  21.8066041 102.9477383  27.7393239
  22.4644364 102.2447009  28.9076022  30.0645425  95.5684301  42.4193784
  30.9655287  95.4290766  42.1277782  30.1393399  95.7338756  43.3591962
  24.3988230  92.9451156  41.2646971  23.5291539  93.2384722  40.9929559
  24.6347710  93.5291601  41.9854234  34.2759859 102.0050314  41.3476499
  33.9844667 102.3680295  42.1839960  33.6631990 101.2917323  41.1689831
  35.4755541  99.5703194  33.8679069  36.3102433 100.0092998  34.0316630
  35.6114670  99.0941847  33.0487315  32.5247047  97.1282929  39.8156557
  33.0001169  97.3210575  39.0075409  31.6012613  97.1842115  39.5699941
  19.4130554  98.2907096  29.3987635  19.1676596  97.3869426  29.5967846
  19.5826468  98.2924247  28.4567113  27.1027264  89.1630773  38.7812391
  27.6209208  89.8991800  38.4558880  26.7482397  89.4694766  39.6159150
  18.6826201  94.0235454  26.8973797  17.9895446  94.0979809  26.2413833
  18.4377953  93.2595797  27.4195314  27.3539858  85.5831055  34.3013288
  27.6341612  84.9154244  34.9273714  28.1390465  85.7760151  33.7887952
  25.1573326 104.7590049  25.8638314  24.5847294 105.3780236  25.4108786
  25.7306120 105.3089411  26.3978236  31.2248716  94.0048689  38.0484863
  32.1766139  94.1046787  38.0697087  31.0552167  93.2126958  38.5582947
  29.2463096  91.0904272  38.2344264  28.6513028  91.3709285  37.5390752
  28.9612792  91.5798173  39.0061005  28.3770586 105.0427199  26.9946896
  29.3101259 104.9772761  27.1979772  28.2893799 105.8783466  26.5361429
  31.0058603 104.3593069  23.9550844  30.9272234 104.0252933  24.8486602
  31.8268270 104.8514837  23.9542316  33.7036794  97.2254809  37.1627162
  33.6713114  96.2870810  37.3486846  34.3137418  97.3038846  36.4292987
  25.5420125  96.0950862  23.2054366  26.4879230  95.9657070  23.2742785
  25.1634370  95.3565524  23.6823795  33.8531283  94.0165852  37.2085446
  33.3370331  93.2324309  37.0215374  34.7371231  93.6884569  37.3731965
  31.5142009  87.7606868  33.1681258  31.3166831  87.4521956  34.0524590
  32.1241715  88.4868507  33.2979188  39.5213344  98.2870816  36.3033199
  40.2516732  98.0256104  36.8640903  38.9120289  97.5499538  36.3435267
  37.6028641  96.4278678  36.9007650  36.8761805  96.2934643  36.2924142
  37.1875928  96.7355507  37.7064368  25.4258817 100.1468608  44.6655023
  26.3461827 100.3247207  44.8595070  25.3908401  99.2024653  44.5134723
  23.7263042  94.0200838  23.1409252  22.8194497  93.7233951  23.2171965
  24.0039023  93.7230656  22.2743538  14.6440982  95.3407202  33.5908298
  14.3243767  94.4872510  33.2982672  14.0974411  95.5555780  34.3466265
  18.4220890  98.0569643  37.3077805  18.6406900  98.9886750  37.3265838
  18.8346664  97.6977617  38.0932608  25.3425108  88.5637728  29.2953493
  24.5325836  88.2184813  29.6708739  26.0309525  88.2545272  29.8841105
  27.2715656  87.6415775  30.9177790  27.8246695  88.0611228  31.5767813
  27.5085742  86.7151523  30.9600746  23.2948755  93.6302848  46.6980554
  23.1945482  94.5797205  46.6292645  23.0770297  93.3021087  45.8256624
  22.4961827  90.8787773  23.2821231  23.3580991  91.2042672  23.5417048
  22.6812171  90.0919269  22.7694297  14.5129242  98.9610113  35.5601420
  13.8192714  98.5464066  35.0471374  15.2602233  99.0030650  34.9634839
  30.6494463  89.7516300  30.4256454  30.0693132  90.4101104  30.0434506
  30.3830396  88.9293644  30.0143871  29.0998030  89.1521358  32.6277774
  29.5997808  89.2637892  31.8192093  29.7433637  88.8482410  33.2678583
  23.1580025  97.0599987  45.5145615  22.6747107  97.8600347  45.7209504
  23.2440964  97.0707932  44.5613059  16.4265985  98.8928367  33.4367435
  16.4036673  98.9916054  32.4849318  16.7366622  99.7393518  33.7584601
  19.0853363 100.9504522  37.5514049  20.0396616 100.9188464  37.4843981
  18.8865886 100.4895146  38.3664275  19.6752745  99.5205638  40.1184847
  20.4945634 100.0149717  40.1419684  19.9489553  98.6037606  40.0902414
  29.4319341  91.9116390  29.4812802  28.5445196  92.1966041  29.2632997
  29.8473330  91.7510154  28.6340079  32.7833877  91.9362911  33.1967141
  33.5594267  92.4259364  33.4691758  32.0582012  92.3620965  33.6539011
  35.2206436  92.6490530  34.2541082  35.8150927  92.4086266  33.5434390
  35.2933020  91.9297661  34.8814618  17.4403592 106.4924141  34.5684247
  17.3058060 105.7324542  34.0022245  17.0235654 107.2165041  34.1013036
  28.5762555 101.6761065  23.5760822  29.2798405 101.8811067  24.1918478
  27.8525203 102.2437827  23.8409906  29.4060365  97.4270926  29.6963092
  29.3495566  97.8839478  28.8570725  29.9588707  96.6661611  29.5185935
  33.2165171  93.2160658  30.5213212  32.9602105  92.8157294  31.3521420
  32.5918039  93.9304452  30.3963351  37.5277509  95.9556731  33.0284503
  36.9677067  96.0249921  33.8016065  36.9221012  95.7797716  32.3083999
  20.5972718 107.3893458  34.7802689  20.4805102 108.3338891  34.6781380
  19.7765164 107.0867020  35.1688489  30.4849252 102.1143594  25.6259282
  31.3194856 101.6824793  25.4436757  30.3233595 101.9425608  26.5536177
  30.1395144  98.6175707  26.9915622  30.0843948  98.4519979  26.0504066
  29.5141200  99.3251740  27.1477811  14.9287659  93.8543772  40.8177044
  15.5746523  93.3442726  41.3064269  14.7204810  94.5912453  41.3920469
  27.4541051 100.9224619  46.3169184  28.3232211 101.0965272  45.9555819
  26.9747803 101.7419036  46.1944914  23.4491270  88.1183816  26.5700940
  23.4369940  89.0625656  26.7269211  24.3414692  87.9353962  26.2760401
  21.6227232 108.0421720  37.9958618  22.5254478 108.0745331  38.3125113
  21.3964602 107.1122171  38.0104954  23.3780834 106.7952707  34.6568697
  22.4276465 106.7954568  34.5433069  23.6813320 106.0485441  34.1404731
  27.2643389  84.7126593  30.8246877  26.4975785  84.1585080  30.9703559
  27.6754094  84.7848462  31.6861028  19.2685150  91.0011389  44.9152058
  20.1316612  90.6448194  45.1255383  18.6950561  90.6625284  45.6027462
  39.1133527 112.6313245  35.7214459  39.7511937 112.5119993  35.0177799
  38.9954370 113.5794089  35.7802411  35.9223233 112.5840673  35.6575984
  35.5841745 112.4681738  34.7696518  36.7913002 112.1831838  35.6376990
  31.7810049 114.4376150  31.6472875  31.2174914 114.3466087  30.8789162
  31.6662444 113.6176054  32.1275367  36.4043016 113.7375525  41.6162189
  36.3931657 113.3428323  40.7442693  36.5663656 113.0041598  42.2095961
  29.3274481 115.9327341  34.4857095  30.1195773 115.5918166  34.0703394
  29.5671131 116.0422316  35.4059248  37.3609608 118.1047117  26.9587339
  36.7097588 118.6901198  26.5721353  38.1553971 118.6353312  27.0182377
  31.2865235 115.1936255  27.3574474  32.0596111 114.6465242  27.2187350
  31.6390634 116.0580504  27.5688935  33.1250278 116.5212637  40.5641373
  32.8340144 117.4258268  40.4488039  33.7607262 116.5629164  41.2785443
  34.0506484 113.8989485  37.1542733  34.6470057 113.6745508  36.4399696
  34.1081456 113.1574231  37.7568181  33.6231513 111.3528921  24.9892924
  33.8757034 110.8310442  24.2276387  32.6856072 111.1895066  25.0919607
  38.6674796 110.3564699  32.7967667  39.4537885 109.9384122  32.4458084
  38.9313500 111.2610791  32.9649315  38.8384873 115.7937549  27.4956324
  38.2030706 115.8672176  28.2077228  38.5082279 116.3831148  26.8175403
  44.0683223 110.2939932  33.7000645  44.8008395 109.7239149  33.9338475
  43.3122579 109.9061533  34.1407151  33.3427802 113.2557027  27.1917299
  33.2264060 112.5801930  27.8598383  33.4530061 112.7689401  26.3749452
  35.6859343 112.7167174  30.8963988  35.3217550 112.1897795  31.6076909
  36.5426458 112.3265643  30.7230473  41.5908643 104.0061506  38.1595254
  41.2591968 104.8756917  37.9356469  40.9954257 103.6897790  38.8389284
  35.3264830 107.7457073  25.8925336  35.4939232 108.6137310  26.2595808
  35.1361999 107.9084355  24.9686626  38.0840163 116.2074052  37.5591167
  37.7840886 117.1099091  37.4506974  37.7391222 115.9406236  38.4112320
  31.5352644 112.6587849  33.5927871  30.6103141 112.5264063  33.8005563
  31.7837057 113.4382068  34.0897814  41.4837306 108.7256593  35.2388604
  40.5754184 108.6572001  34.9447365  41.4324902 109.2028537  36.0670430
  35.3054050 110.2014731  26.8772003  35.1853676 110.6471782  27.7157484
  34.6106639 110.5500049  26.3185541  28.8961455 112.3021123  34.4271660
  29.0253836 112.5555602  35.3411072  28.2158907 112.8948831  34.1076315
  33.0660942 122.9718373  30.5262135  32.9884972 123.9226198  30.6050615
  32.4622586 122.6264245  31.1837061  35.5578172 110.1446238  43.1823501
  34.7811506 110.7040158  43.1726366  36.1968735 110.6303021  43.7038372
  43.3498953 106.9273031  37.0166478  42.7073333 107.2205564  36.3706273
  42.8453881 106.8125951  37.8219675  41.0039117 110.6736204  27.7052337
  41.9156973 110.9063591  27.5300035  40.4948764 111.2573248  27.1427416
  33.8124545 112.9531691  42.7441468  34.5539229 113.4916735  42.4676292
  33.1061530 113.5797980  42.9013020  39.2879884 115.0960832  41.3413630
  39.6963240 114.6543242  40.5968262  38.5657146 114.5213459  41.5947823
  35.6410954 110.0333439  38.7147187  36.4872149 110.4572852  38.8581836
  35.5809592 109.3767063  39.4085750  39.6108699 115.6562023  35.0965919
  38.9817561 115.8207737  34.3941987  39.2234361 116.0703632  35.8676883
  43.4897931 116.5916460  32.4510283  42.8048969 116.9715362  31.9007316
  43.5741780 117.2011787  33.1842230  38.7910400 107.6937807  40.3728360
  38.5471331 108.4479868  39.8362636  39.0670330 108.0723155  41.2075608
  40.7448862 114.2376419  39.0505626  40.9565758 114.8808179  38.3740007
  40.6978611 113.4038736  38.5827556  38.3475091 106.8494240  35.9542198
  37.4859570 107.1475494  36.2458936  38.3737526 107.0664639  35.0223231
  35.1636661 115.3936431  32.3616004  35.6275006 115.6724134  31.5720626
  34.8993459 114.4919875  32.1789095  32.0560742 114.9407912  35.2995767
  32.6262099 115.3695181  34.6613252  32.6468854 114.6590497  35.9979953
  34.1005547 111.5159583  29.1705569  34.8029590 111.9680627  29.6379495
  33.7686175 110.8743402  29.7985462  32.5485908 110.1071340  43.5456778
  31.9184569 110.7887621  43.7792175  32.4421996 109.9954421  42.6009917
  27.8430881 109.7743136  34.4722703  27.0529935 110.0300664  33.9962813
  28.3342128 110.5891474  34.5774743  41.8594690 117.1148375  37.2227983
  42.6812134 116.7128562  36.9410665  41.8557093 117.0116609  38.1744099
  29.7945626 110.1387715  31.4306179  28.9976789 110.2506409  31.9489675
  29.5671218 110.4774367  30.5647070  35.6251294 116.6632418  39.3788694
  35.6895726 117.1252825  40.2146866  34.9162218 116.0329783  39.5071004
  26.1268584 110.0273626  36.9037693  26.3776622 110.9120636  37.1695269
  26.6628132 109.8478228  36.1312785  49.9500683 113.4587123  33.5712955
  49.1964392 112.8894521  33.4156959  50.0848225 113.4249788  34.5183590
  35.3399311 118.3300526  29.2467674  35.2044986 119.1752061  29.6752522
  35.8809124 118.5319803  28.4833608  31.8266651 104.4092106  45.9082029
  31.4333597 103.8558304  46.5829674  32.6432791 104.7202684  46.2988547
  28.7928709 115.8475964  29.8195599  29.3053229 116.6419214  29.9701164
  29.4451422 115.1502254  29.7529201  30.6023593 118.9641720  31.9018353
  30.7790222 119.8859685  31.7139336  31.3980427 118.6500139  32.3312732
  34.7434612 105.8249985  43.5002286  35.4844325 106.4257138  43.4206749
  34.9752535 105.0827622  42.9420329  29.8875950 111.0106352  41.7780516
  29.7729465 110.1091609  42.0787615  29.0320468 111.2570049  41.4265332
  36.9667788 118.9524092  43.3768016  36.5231642 118.1660471  43.0588921
  37.6285001 119.1403243  42.7111907  31.7254909 120.4819894  37.9028695
  32.2762334 120.3536957  37.1305689  30.8866385 120.7814783  37.5523588
  39.0649026 119.2326892  41.4049418  39.0467501 120.0535773  40.9129687
  39.9868946 119.1080967  41.6299559  35.5222080 116.7471022  42.2472926
  36.0550417 115.9859310  42.0172234  34.9936161 116.4544673  42.9897080
  38.6891775 101.8531088  37.7766568  38.3456044 102.7432729  37.7005678
  39.0570738 101.6632745  36.9136153  26.7577626 114.1764618  30.5955170
  27.5952848 114.5861626  30.3788878  26.9355893 113.2364060  30.5655364
  38.6542058 111.8439699  26.2839003  38.1388681 112.6144303  26.5227390
  38.3819366 111.1704835  26.9072064  36.2389169 106.6889399  31.3424241
  35.3830765 106.2996250  31.1629880  36.6516120 106.7681360  30.4824027
  37.7688315 104.2235743  35.7415801  37.2653111 104.1865878  34.9283606
  38.0618922 105.1328485  35.8012458  34.0131201 104.3074472  34.7481983
  34.8784198 104.1117281  34.3887872  34.0808710 104.0784824  35.6751339
  43.6276332 114.5972053  28.2192176  42.8505775 114.2583213  27.7747338
  44.3067813 114.6024676  27.5447141  38.4428361 109.7166791  28.1098784
  38.1378496 110.0312940  28.9608927  39.3958803 109.7948211  28.1526117
  36.8874793 115.8757014  29.7591738  36.3596154 115.1409774  29.4464975
  36.3862295 116.6531690  29.5131706  41.8667639 114.0706035  34.8758784
  41.2091313 114.7605296  34.9638913  42.6708038 114.4602466  35.2192771
  31.6193520 106.5376680  32.1198350  32.1937272 106.3151862  31.3871542
  32.2064503 106.6065375  32.8726951  40.6773098 112.4250407  32.9262726
  41.1904979 113.0580399  33.4284436  41.3274321 111.8251603  32.5606086
  31.9463107 108.5681141  26.1394235  31.1100420 108.9055828  26.4603509
  31.8067877 108.4330121  25.2021372  33.9216188 103.4117929  30.8473419
  33.2680600 103.0966946  30.2230034  33.8796662 102.7893670  31.5733242
  35.0327393 113.6937224  22.7626711  34.1254455 113.4626478  22.9617860
  35.5298425 112.8974844  22.9500693  37.9395472 122.4034732  25.6823397
  37.2657171 122.7066428  26.2908355  38.3261294 123.2063812  25.3328854
  37.1553928 109.8999863  35.1721067  36.2376490 110.1214810  35.0142755
  37.5714072 109.9746173  34.3132774  37.9388976 111.2991278  30.3023747
  38.6860795 111.8112676  29.9930869  38.2080566 110.9775331  31.1628140
  36.2115626 113.7949819  27.2850701  35.3026846 113.5108852  27.3823171
  36.2410710 114.2148898  26.4254008  41.4434894 117.4056409  31.0541869
  40.9897221 116.5647319  31.1107059  40.8128860 118.0417807  31.3916649
  40.3867813 108.3348395  32.2842536  39.6490570 107.8225781  32.6152779
  40.6394587 107.8948776  31.4725813  39.8867833 119.2432905  31.9891687
  40.1790807 119.8037962  31.2704052  40.3966454 119.5361466  32.7444846
  40.4879441 101.1124647  32.8784305  40.7938317 100.2522010  32.5910220
  41.2132045 101.7042267  32.6783299  26.7803797 111.5155333  31.2665903
  26.5828197 110.9224694  30.5416970  26.2250461 111.2107544  31.9841842
  34.7600520 111.4078440  33.3860496  34.8149130 110.4552276  33.3102973
  33.9491722 111.5637879  33.8701795  35.9091714 115.3358563  24.6238780
  35.4711144 114.6194422  24.1644417  36.6502155 115.5634678  24.0623871
  32.6992880 110.0255500  31.1450875  31.8860746 110.3249670  31.5516067
  33.1951874 109.6311188  31.8625358  34.8501458 120.0213256  33.0785140
  34.8077637 120.2474103  32.1493672  35.7664157 119.7876631  33.2270941
  38.2967092 110.4897324  39.9765769  38.6516480 110.7168797  40.8360235
  38.9439223 110.8215701  39.3543025  44.0264829 113.6115760  30.6815098
  43.8882728 113.8017356  29.7536287  43.6701048 114.3735143  31.1383149
  32.1906955 107.5973855  36.7612110  32.8306334 107.4562614  36.0635074
  31.3584486 107.3108368  36.3850712  44.0534209 115.6792287  35.6926370
  44.4870715 115.5867576  36.5409424  44.7665789 115.6549787  35.0546386
  32.9667259 116.8976285  32.8747103  33.7607857 116.4026606  32.6729678
  32.2558951 116.3694149  32.5114808  37.7862103 119.2794381  37.2259470
  37.8399126 119.8485317  37.9937186  36.9176885 119.4496266  36.8613507
  29.2750022 111.0419367  28.9506855  28.3447611 110.9803823  29.1676818
  29.3707494 110.5195320  28.1543497  29.1935571 107.5674180  31.5385097
  29.4542389 108.4819513  31.4294258  30.0152744 107.0998623  31.6881710
  30.6660497 108.9811937  38.7083922  31.3383550 108.7729299  38.0596571
  29.8390283 108.7834023  38.2689154  44.9149758 115.7215988  38.2259255
  45.1085648 116.6261798  38.4718530  44.8150376 115.2623407  39.0597840
  36.5686069 105.6073878  40.7249582  35.9213984 106.3063828  40.6314059
  37.3387084 106.0410022  41.0925831  39.9764867 115.8722730  43.8000136
  39.8250373 115.6433282  42.8830219  39.9669546 116.8293332  43.8131481
  36.7450203 113.4454643  38.7846402  37.6742263 113.5965803  38.6115370
  36.3241233 113.5338664  37.9295049  35.5438535 117.4705307  36.5544940
  35.4049621 117.1024092  37.4270878  34.7553131 117.9852947  36.3828898
  36.1386687 122.5714404  27.8970476  36.3138443 122.1002447  28.7116099
  35.4519475 123.1980170  28.1251737  37.0943750 116.8486910  33.9433778
  36.7593583 116.8087680  34.8391428  36.5947696 116.1831626  33.4704188
  31.0687994 112.2554540  39.4686359  30.9307792 111.5234779  40.0697898
  31.9792918 112.1663440  39.1870547  40.0302942 114.1942945  24.2170837
  39.4132112 113.4689773  24.1203890  39.5619430 114.9552305  23.8737912
  33.6970295 111.9674500  38.9570038  34.4069913 111.3267692  38.9156657
  33.6539603 112.2187394  39.8796219  41.6857073 118.9041853  41.8776618
  41.6269620 118.2201073  41.2107201  42.0876592 119.6460843  41.4257244
  32.4099229 108.9539717  40.7765678  31.8736586 108.5030456  41.4287274
  31.8215937 109.0885626  40.0336142  30.7047772 125.7203767  34.6710337
  30.9444370 126.3522291  35.3489355  29.8616969 125.3691807  34.9575696
  31.8201488 108.4128369  23.3392142  30.9430954 108.2917170  22.9754388
  32.2959241 107.6214447  23.0871030  41.6874481 116.8681437  40.1090597
  40.8001259 116.5307359  40.2316996  42.2573032 116.1364468  40.3459363
  23.3403628 113.2005529  33.4333649  24.0274668 112.8867259  32.8454664
  23.1851756 114.1046893  33.1600900  28.1438350 108.0895725  37.8618672
  28.0596539 107.4821395  37.1269082  27.3221056 108.5804743  37.8628169
  35.2175634 121.5282889  37.0751841  35.1445806 122.3337861  37.5871145
  34.7753027 121.7274855  36.2499862  35.0065414 120.7654659  30.5854662
  34.2232936 121.3076339  30.6792887  35.7058159 121.2828639  30.9848903
  38.3162064 106.5749289  33.2288867  38.8130763 105.8219251  32.9089938
  37.5449045 106.6113605  32.6632077  46.1691821 112.2789654  34.8707159
  46.1581697 113.1614370  34.5001092  45.3009201 111.9261205  34.6761696
  37.6774318 121.4269723  39.2309999  38.3902290 122.0617188  39.1585901
  37.1864346 121.5233589  38.4150001  39.3991844 115.3320976  30.8027291
  38.4648123 115.4522438  30.6331995  39.5768513 114.4293443  30.5387301
  34.8997033 108.7166672  32.9560552  34.5294820 108.1637712  33.6441458
  35.3956125 108.1124805  32.4035552  42.7864396 111.1738295  31.3377325
  43.2524848 112.0066287  31.2637628  43.2371896 110.7083277  32.0422583
  32.7286231 119.1764167  40.0515570  33.4295691 119.8100650  40.2044964
  32.2581346 119.5178898  39.2911209  40.8540627 117.5182116  28.3363477
  41.1300471 117.4038711  29.2457351  39.9845126 117.1199601  28.2975650
  40.7581059 103.5418882  35.3768226  39.8444138 103.7723109  35.5450433
  41.1874160 103.6257326  36.2282259  40.5287517 111.7308774  37.8768120
  39.8758967 111.9784682  37.2220573  40.9067897 110.9172912  37.5430598
  37.4894691 121.7668467  31.9796291  37.6717085 120.9490123  32.4424043
  38.3127677 121.9836160  31.5421181  37.8236856 120.6936652  29.2411339
  38.3524623 120.1829107  28.6281501  38.0865076 120.3779183  30.1056872
  36.5775090 112.4728585  44.3634157  35.9015727 112.3722714  45.0336533
  37.4002724 112.3167799  44.8270155  28.3253949 118.7100522  36.9846673
  28.9107386 117.9644210  37.1174577  28.1278788 119.0204478  37.8683337
  31.1792604 121.7451769  32.0009115  30.5102980 122.2297897  31.5173155
  31.0405474 121.9920990  32.9152494  22.9171604 111.2806122  35.7051116
  22.9555703 110.7469713  36.4988234  22.4111897 110.7541327  35.0862093
  35.3197873 123.7795513  38.5991773  35.8716181 123.9427134  39.3640859
  35.6604066 124.3699950  37.9271798  30.2962366 106.1270662  39.2013658
  30.3603693 106.9885493  38.7891056  30.2329486 105.5144664  38.4686017
  29.7714639 108.1993795  42.8486692  30.3986678 107.8170872  43.4624217
  28.9142558 107.9807997  43.2142385  40.1708747 118.6056770  44.4540428
  40.7148651 119.2186728  43.9595383  39.5895592 119.1636349  44.9707441
  26.5480181 110.0070224  28.7805047  26.8433623 109.0980902  28.7272101
  25.6468217 109.9857964  28.4586050  38.4566260 121.7277488  35.5855456
  38.3317400 120.9267228  35.0766401  39.1145351 122.2223681  35.0969426
  30.0774428 108.0826221  34.7632596  29.3561014 108.6962188  34.6240069
  30.8667684 108.6183985  34.6849242  40.5201169 119.5286508  37.2135006
  39.5731504 119.4091859  37.1413332  40.8683942 118.6409006  37.2961267
  32.8800742 105.4180647  41.0373248  33.4035144 105.6642944  41.7999557
  32.6613075 106.2500682  40.6176385  28.2768023 107.6884322  28.9044372
  27.9480729 106.8081701  28.7219478  28.6307394 107.6331990  29.7920762
  37.5247602 119.3239224  33.4139358  37.3772564 118.3955932  33.5946928
  38.3501095 119.3459315  32.9296433  31.3909846 107.9757292  29.2719850
  31.7305919 108.5043213  28.5498458  31.8381967 108.3137698  30.0478417
  41.1281724 120.1467783  34.5004231  42.0528271 119.9410644  34.3628682
  40.9597027 119.8984184  35.4093572  34.0853287 106.3594342  38.7222918
  33.7450107 105.5602155  39.1243598  33.3792293 106.6596053  38.1499751
  34.7369759 103.4443655  37.1750241  35.5595828 102.9704133  37.0529131
  34.9807822 104.2234138  37.6748927  33.3777993 106.4731913  27.4713143
  34.0986356 106.8513166  26.9676860  32.7543298 107.1920790  27.5748121
  37.5209116 107.1777062  28.4071475  37.7372731 108.0601700  28.1060303
  37.0403183 106.7863275  27.6777117  32.2608338 110.1362775  34.9842220
  32.1152918 110.4503078  35.8766501  31.7833541 110.7547676  34.4313118
  34.1204721 107.1265323  35.0323109  34.1066289 106.2306417  34.6955407
  34.8377149 107.1335987  35.6661395  35.9730851 107.5602663  37.0776237
  35.7148629 108.4819734  37.0760567  35.4415892 107.1633098  37.7676701
  40.9177040 120.6653451  29.8566322  41.0913918 120.0999873  29.1040175
  41.4105931 121.4654345  29.6745812  26.7354000 112.6768120  37.9229881
  26.1907468 113.4527928  38.0550155  27.6133350 113.0238924  37.7649002
  33.5241616 106.0079704  30.3010679  33.6457528 105.0796350  30.5001567
  33.2343659 106.0218390  29.3888995  36.3932807 103.6934614  33.4377399
  36.4154504 103.7573947  32.4829379  36.8100866 102.8539123  33.6317905
  46.7716431 113.4289874  31.4756622  47.2147577 112.6797199  31.0775745
  45.8942941 113.4200010  31.0930354  41.9052212 119.9820215  26.9563220
  42.6003117 120.6026908  27.1750535  42.2475363 119.1315566  27.2315598
  27.5220022 111.8038016  40.8160038  26.7801758 111.9520651  41.4024668
  27.2012766 112.0646282  39.9526787  43.8043636 117.4319921  28.4850551
  44.3294960 117.7707193  27.7599871  43.7165988 116.4966936  28.3013686
  35.4663684 121.3453994  40.6140428  35.7750811 121.1003141  41.4863127
  36.2639166 121.5500633  40.1259298  35.4884296 123.4991904  32.8445804
  35.0489287 123.0068283  33.5378661  36.2392413 122.9564871  32.6037880
  27.9676635 119.6903445  32.8470432  28.7934655 119.3907217  32.4669076
  27.6170687 118.9211067  33.2960221  32.9358169 119.0429913  34.9168106
  32.3138178 118.3800618  34.6170334  33.6063035 119.0691045  34.2341754
  26.1685240 117.6089771  33.8059366  25.3317149 117.1811945  33.6243367
  26.1408886 117.8022214  34.7430157  33.0082696 107.5211701  44.5100612
  33.0570851 108.3973824  44.1278382  33.5505210 106.9789094  43.9372255
  43.4937542 118.0652824  43.7901749  42.7033085 118.0476963  43.2506249
  43.2570896 118.6041118  44.5450786  43.6135417 114.9145291  41.1034478
  43.6633422 114.7495298  42.0450000  43.5049340 114.0472550  40.7132358
  32.4971675 117.5933836  28.3926567  32.6459796 118.2769301  27.7393239
  33.3038119 117.5738926  28.9076022  40.9039179 110.8976219  42.4193784
  41.8049042 110.7582683  42.1277782  40.9787154 111.0630673  43.3591962
  35.2381984 108.2743073  41.2646971  34.3685294 108.5676639  40.9929559
  35.4741465 108.8583518  41.9854234  45.1153614 117.3342232  41.3476499
  44.8238422 117.6972213  42.1839960  44.5025745 116.6209240  41.1689831
  46.3149296 114.8995112  33.8679069  47.1496187 115.3384916  34.0316630
  46.4508425 114.4233765  33.0487315  43.3640802 112.4574847  39.8156557
  43.8394923 112.6502493  39.0075409  42.4406367 112.5134033  39.5699941
  30.2524308 113.6199014  29.3987635  30.0070350 112.7161344  29.5967846
  30.4220223 113.6216164  28.4567113  37.9421018 104.4922690  38.7812391
  38.4602962 105.2283717  38.4558880  37.5876151 104.7986684  39.6159150
  29.5219956 109.3527371  26.8973797  28.8289201 109.4271726  26.2413833
  29.2771708 108.5887715  27.4195314  38.1933612 100.9122973  34.3013288
  38.4735366 100.2446162  34.9273714  38.9784219 101.1052068  33.7887952
  35.9967081 120.0881967  25.8638314  35.4241048 120.7072154  25.4108786
  36.5699875 120.6381328  26.3978236  42.0642471 109.3340607  38.0484863
  43.0159894 109.4338704  38.0697087  41.8945921 108.5418875  38.5582947
  40.0856850 106.4196190  38.2344264  39.4906782 106.7001203  37.5390752
  39.8006547 106.9090091  39.0061005  39.2164341 120.3719117  26.9946896
  40.1495014 120.3064679  27.1979772  39.1287554 121.2075384  26.5361429
  41.8452357 119.6884987  23.9550844  41.7665989 119.3544851  24.8486602
  42.6662024 120.1806755  23.9542316  44.5430549 112.5546726  37.1627162
  44.5106869 111.6162727  37.3486846  45.1531172 112.6330763  36.4292987
  36.3813879 111.4242779  23.2054366  37.3272984 111.2948988  23.2742785
  36.0028124 110.6857441  23.6823795  44.6925037 109.3457770  37.2085446
  44.1764086 108.5616227  37.0215374  45.5764986 109.0176487  37.3731965
  42.3535764 103.0898785  33.1681258  42.1560585 102.7813874  34.0524590
  42.9635470 103.8160424  33.2979188  50.3607098 113.6162733  36.3033199
  51.0910487 113.3548021  36.8640903  49.7514044 112.8791455  36.3435267
  48.4422396 111.7570596  36.9007650  47.7155559 111.6226561  36.2924142
  48.0269682 112.0647425  37.7064368  36.2652572 115.4760526  44.6655023
  37.1855581 115.6539125  44.8595070  36.2302155 114.5316571  44.5134723
  34.5656797 109.3492756  23.1409252  33.6588252 109.0525869  23.2171965
  34.8432778 109.0522574  22.2743538  25.4834737 110.6699119  33.5908298
  25.1637521 109.8164427  33.2982672  24.9368165 110.8847697  34.3466265
  29.2614645 113.3861560  37.3077805  29.4800654 114.3178668  37.3265838
  29.6740418 113.0269535  38.0932608  36.1818862 103.8929646  29.2953493
  35.3719591 103.5476731  29.6708739  36.8703279 103.5837189  29.8841105
  38.1109411 102.9707692  30.9177790  38.6640449 103.3903146  31.5767813
  38.3479497 102.0443440  30.9600746  34.1342510 108.9594766  46.6980554
  34.0339237 109.9089123  46.6292645  33.9164052 108.6313005  45.8256624
  33.3355581 106.2079691  23.2821231  34.1974745 106.5334589  23.5417048
  33.5205925 105.4211187  22.7694297  25.3522997 114.2902031  35.5601420
  24.6586468 113.8755984  35.0471374  26.0995988 114.3322567  34.9634839
  41.4888218 105.0808218  30.4256454  40.9086887 105.7393022  30.0434506
  41.2224150 104.2585562  30.0143871  39.9391784 104.4813275  32.6277774
  40.4391562 104.5929810  31.8192093  40.5827392 104.1774328  33.2678583
  33.9973780 112.3891905  45.5145615  33.5140862 113.1892265  45.7209504
  34.0834719 112.3999850  44.5613059  27.2659740 114.2220285  33.4367435
  27.2430428 114.3207972  32.4849318  27.5760376 115.0685435  33.7584601
  29.9247117 116.2796440  37.5514049  30.8790371 116.2480382  37.4843981
  29.7259641 115.8187063  38.3664275  30.5146500 114.8497556  40.1184847
  31.3339389 115.3441634  40.1419684  30.7883307 113.9329524  40.0902414
  40.2713096 107.2408308  29.4812802  39.3838951 107.5257959  29.2632997
  40.6867085 107.0802071  28.6340079  43.6227632 107.2654829  33.1967141
  44.3988022 107.7551281  33.4691758  42.8975766 107.6912883  33.6539011
  46.0600190 107.9782448  34.2541082  46.6544681 107.7378184  33.5434390
  46.1326774 107.2589579  34.8814618  28.2797346 121.8216059  34.5684247
  28.1451814 121.0616460  34.0022245  27.8629408 122.5456959  34.1013036
  39.4156309 117.0052983  23.5760822  40.1192159 117.2102985  24.1918478
  38.6918958 117.5729744  23.8409906  40.2454119 112.7562844  29.6963092
  40.1889321 113.2131395  28.8570725  40.7982462 111.9953528  29.5185935
  44.0558925 108.5452576  30.5213212  43.7995860 108.1449211  31.3521420
  43.4311793 109.2596370  30.3963351  48.3671263 111.2848649  33.0284503
  47.8070821 111.3541838  33.8016065  47.7614767 111.1089634  32.3083999
  31.4366472 122.7185376  34.7802689  31.3198856 123.6630809  34.6781380
  30.6158918 122.4158938  35.1688489  41.3243007 117.4435512  25.6259282
  42.1588611 117.0116710  25.4436757  41.1627350 117.2717525  26.5536177
  40.9788899 113.9467625  26.9915622  40.9237703 113.7811897  26.0504066
  40.3534954 114.6543658  27.1477811  25.7681414 109.1835689  40.8177044
  26.4140277 108.6734643  41.3064269  25.5598565 109.9204371  41.3920469
  38.2934806 116.2516537  46.3169184  39.1625966 116.4257189  45.9555819
  37.8141557 117.0710954  46.1944914  34.2885024 103.4475734  26.5700940
  34.2763694 104.3917574  26.7269211  35.1808446 103.2645879  26.2760401
  32.4620986 123.3713638  37.9958618  33.3648233 123.4037248  38.3125113
  32.2358356 122.4414089  38.0104954  34.2174588 122.1244624  34.6568697
  33.2670219 122.1246486  34.5433069  34.5207074 121.3777359  34.1404731
  38.1037144 100.0418511  30.8246877  37.3369539  99.4876997  30.9703559
  38.5147849 100.1140379  31.6861028  30.1078905 106.3303307  44.9152058
  30.9710366 105.9740111  45.1255383  29.5344315 105.9917201  45.6027462
  49.9527282 127.9605163  35.7214459  50.5905692 127.8411910  35.0177799
  49.8348125 128.9086007  35.7802411  46.7616988 127.9132591  35.6575984
  46.4235499 127.7973656  34.7696518  47.6306756 127.5123756  35.6376990
  42.6203804 129.7668067  31.6472875  42.0568669 129.6758004  30.8789162
  42.5056199 128.9467972  32.1275367  47.2436771 129.0667443  41.6162189
  47.2325412 128.6720241  40.7442693  47.4057410 128.3333515  42.2095961
  40.1668236 131.2619259  34.4857095  40.9589528 130.9210084  34.0703394
  40.4064886 131.3714234  35.4059248  48.2003362 133.4339035  26.9587339
  47.5491342 134.0193116  26.5721353  48.9947725 133.9645230  27.0182377
  42.1258990 130.5228172  27.3574474  42.8989866 129.9757159  27.2187350
  42.4784388 131.3872422  27.5688935  43.9644032 131.8504555  40.5641373
  43.6733898 132.7550185  40.4488039  44.6001016 131.8921082  41.2785443
  44.8900239 129.2281403  37.1542733  45.4863811 129.0037425  36.4399696
  44.9475210 128.4866149  37.7568181  44.4625267 126.6820838  24.9892924
  44.7150788 126.1602360  24.2276387  43.5249826 126.5186984  25.0919607
  49.5068550 125.6856617  32.7967667  50.2931639 125.2676040  32.4458084
  49.7707254 126.5902709  32.9649315  49.6778628 131.1229467  27.4956324
  49.0424460 131.1964094  28.2077228  49.3476034 131.7123066  26.8175403
  54.9076977 125.6231850  33.7000645  55.6402149 125.0531067  33.9338475
  54.1516333 125.2353450  34.1407151  44.1821556 128.5848944  27.1917299
  44.0657814 127.9093848  27.8598383  44.2923816 128.0981318  26.3749452
  46.5253097 128.0459091  30.8963988  46.1611304 127.5189712  31.6076909
  47.3820213 127.6557560  30.7230473  52.4302398 119.3353424  38.1595254
  52.0985722 120.2048835  37.9356469  51.8348011 119.0189708  38.8389284
  46.1658584 123.0748991  25.8925336  46.3332986 123.9429228  26.2595808
  45.9755753 123.2376273  24.9686626  48.9233917 131.5365970  37.5591167
  48.6234640 132.4391009  37.4506974  48.5784977 131.2698153  38.4112320
  42.3746399 127.9879767  33.5927871  41.4496895 127.8555981  33.8005563
  42.6230812 128.7673986  34.0897814  52.3231061 124.0548510  35.2388604
  51.4147938 123.9863919  34.9447365  52.2718657 124.5320455  36.0670430
  46.1447805 125.5306649  26.8772003  46.0247430 125.9763699  27.7157484
  45.4500393 125.8791966  26.3185541  39.7355210 127.6313040  34.4271660
  39.8647591 127.8847519  35.3411072  39.0552661 128.2240748  34.1076315
  43.9054697 138.3010290  30.5262135  43.8278727 139.2518115  30.6050615
  43.3016341 137.9556163  31.1837061  46.3971927 125.4738156  43.1823501
  45.6205261 126.0332076  43.1726366  47.0362490 125.9594939  43.7038372
  54.1892707 122.2564949  37.0166478  53.5467088 122.5497482  36.3706273
  53.6847636 122.1417869  37.8219675  51.8432871 126.0028122  27.7052337
  52.7550727 126.2355509  27.5300035  51.3342518 126.5865166  27.1427416
  44.6518299 128.2823609  42.7441468  45.3932983 128.8208653  42.4676292
  43.9455285 128.9089898  42.9013020  50.1273639 130.4252750  41.3413630
  50.5356995 129.9835160  40.5968262  49.4050900 129.8505377  41.5947823
  46.4804709 125.3625356  38.7147187  47.3265904 125.7864770  38.8581836
  46.4203346 124.7058981  39.4085750  50.4502453 130.9853940  35.0965919
  49.8211316 131.1499654  34.3941987  50.0628115 131.3995550  35.8676883
  54.3291685 131.9208378  32.4510283  53.6442723 132.3007279  31.9007316
  54.4135535 132.5303705  33.1842230  49.6304154 123.0229725  40.3728360
  49.3865086 123.7771785  39.8362636  49.9064085 123.4015072  41.2075608
  51.5842617 129.5668337  39.0505626  51.7959512 130.2100097  38.3740007
  51.5372365 128.7330654  38.5827556  49.1868846 122.1786158  35.9542198
  48.3253325 122.4767411  36.2458936  49.2131280 122.3956557  35.0223231
  46.0030415 130.7228348  32.3616004  46.4668761 131.0016051  31.5720626
  45.7387213 129.8211793  32.1789095  42.8954496 130.2699830  35.2995767
  43.4655853 130.6987098  34.6613252  43.4862608 129.9882415  35.9979953
  44.9399301 126.8451501  29.1705569  45.6423345 127.2972544  29.6379495
  44.6079930 126.2035320  29.7985462  43.3879663 125.4363257  43.5456778
  42.7578323 126.1179538  43.7792175  43.2815751 125.3246339  42.6009917
  38.6824635 125.1035053  34.4722703  37.8923689 125.3592582  33.9962813
  39.1735883 125.9183391  34.5774743  52.6988445 132.4440293  37.2227983
  53.5205889 132.0420480  36.9410665  52.6950848 132.3408527  38.1744099
  40.6339381 125.4679633  31.4306179  39.8370544 125.5798327  31.9489675
  40.4064973 125.8066285  30.5647070  46.4645048 131.9924336  39.3788694
  46.5289481 132.4544743  40.2146866  45.7555972 131.3621701  39.5071004
  36.9662338 125.3565544  36.9037693  37.2170377 126.2412554  37.1695269
  37.5021887 125.1770145  36.1312785  60.7894438 128.7879041  33.5712955
  60.0358146 128.2186439  33.4156959  60.9241979 128.7541706  34.5183590
  46.1793066 133.6592443  29.2467674  46.0438741 134.5043979  29.6752522
  46.7202878 133.8611721  28.4833608  42.6660406 119.7384023  45.9082029
  42.2727351 119.1850222  46.5829674  43.4826546 120.0494602  46.2988547
  39.6322463 131.1767881  29.8195599  40.1446984 131.9711132  29.9701164
  40.2845176 130.4794172  29.7529201  41.4417348 134.2933638  31.9018353
  41.6183976 135.2151602  31.7139336  42.2374182 133.9792057  32.3312732
  45.5828367 121.1541902  43.5002286  46.3238080 121.7549055  43.4206749
  45.8146289 120.4119540  42.9420329  40.7269705 126.3398270  41.7780516
  40.6123220 125.4383527  42.0787615  39.8714222 126.5861966  41.4265332
  47.8061542 134.2816010  43.3768016  47.3625396 133.4952388  43.0588921
  48.4678756 134.4695160  42.7111907  42.5648663 135.8111811  37.9028695
  43.1156089 135.6828875  37.1305689  41.7260139 136.1106700  37.5523588
  49.9042780 134.5618810  41.4049418  49.8861256 135.3827691  40.9129687
  50.8262700 134.4372885  41.6299559  46.3615835 132.0762939  42.2472926
  46.8944171 131.3151227  42.0172234  45.8329916 131.7836591  42.9897080
  49.5285529 117.1823005  37.7766568  49.1849799 118.0724647  37.7005678
  49.8964492 116.9924663  36.9136153  37.5971380 129.5056536  30.5955170
  38.4346602 129.9153544  30.3788878  37.7749648 128.5655978  30.5655364
  49.4935812 127.1731616  26.2839003  48.9782436 127.9436221  26.5227390
  49.2213121 126.4996752  26.9072064  47.0782923 122.0181317  31.3424241
  46.2224520 121.6288167  31.1629880  47.4909875 122.0973278  30.4824027
  48.6082070 119.5527660  35.7415801  48.1046865 119.5157796  34.9283606
  48.9012677 120.4620403  35.8012458  44.8524956 119.6366390  34.7481983
  45.7177953 119.4409199  34.3887872  44.9202465 119.4076742  35.6751339
  54.4670086 129.9263971  28.2192176  53.6899529 129.5875130  27.7747338
  55.1461567 129.9316594  27.5447141  49.2822115 125.0458708  28.1098784
  48.9772251 125.3604858  28.9608927  50.2352557 125.1240128  28.1526117
  47.7268547 131.2048932  29.7591738  47.1989909 130.4701691  29.4464975
  47.2256050 131.9823608  29.5131706  52.7061393 129.3997952  34.8758784
  52.0485068 130.0897214  34.9638913  53.5101792 129.7894384  35.2192771
  42.4587275 121.8668598  32.1198350  43.0331027 121.6443780  31.3871542
  43.0458257 121.9357293  32.8726951  51.5166852 127.7542325  32.9262726
  52.0298734 128.3872317  33.4284436  52.1668076 127.1543520  32.5606086
  42.7856862 123.8973059  26.1394235  41.9494174 124.2347746  26.4603509
  42.6461632 123.7622039  25.2021372  44.7609943 118.7409847  30.8473419
  44.1074355 118.4258864  30.2230034  44.7190417 118.1185587  31.5733242
  45.8721147 129.0229142  22.7626711  44.9648209 128.7918395  22.9617860
  46.3692179 128.2266761  22.9500693  48.7789226 137.7326649  25.6823397
  48.1050925 138.0358346  26.2908355  49.1655048 138.5355730  25.3328854
  47.9947683 125.2291780  35.1721067  47.0770244 125.4506727  35.0142755
  48.4107827 125.3038091  34.3132774  48.7782731 126.6283196  30.3023747
  49.5254550 127.1404593  29.9930869  49.0474320 126.3067249  31.1628140
  47.0509381 129.1241737  27.2850701  46.1420600 128.8400770  27.3823171
  47.0804465 129.5440815  26.4254008  52.2828648 132.7348326  31.0541869
  51.8290975 131.8939236  31.1107059  51.6522615 133.3709725  31.3916649
  51.2261568 123.6640312  32.2842536  50.4884325 123.1517699  32.6152779
  51.4788341 123.2240694  31.4725813  50.7261587 134.5724823  31.9891687
  51.0184562 135.1329880  31.2704052  51.2360208 134.8653384  32.7444846
  51.3273195 116.4416564  32.8784305  51.6332072 115.5813928  32.5910220
  52.0525800 117.0334185  32.6783299  37.6197551 126.8447251  31.2665903
  37.4221951 126.2516612  30.5416970  37.0644215 126.5399461  31.9841842
  45.5994275 126.7370357  33.3860496  45.6542885 125.7844194  33.3102973
  44.7885477 126.8929797  33.8701795  46.7485469 130.6650481  24.6238780
  46.3104899 129.9486339  24.1644417  47.4895909 130.8926595  24.0623871
  43.5386635 125.3547417  31.1450875  42.7254500 125.6541588  31.5516067
  44.0345629 124.9603106  31.8625358  45.6895213 135.3505174  33.0785140
  45.6471391 135.5766020  32.1493672  46.6057912 135.1168549  33.2270941
  49.1360846 125.8189242  39.9765769  49.4910234 126.0460715  40.8360235
  49.7832978 126.1507618  39.3543025  54.8658583 128.9407678  30.6815098
  54.7276482 129.1309274  29.7536287  54.5094802 129.7027060  31.1383149
  43.0300710 122.9265773  36.7612110  43.6700089 122.7854532  36.0635074
  42.1978240 122.6400286  36.3850712  54.8927963 131.0084205  35.6926370
  55.3264470 130.9159494  36.5409424  55.6059544 130.9841705  35.0546386
  43.8061013 132.2268203  32.8747103  44.6001612 131.7318523  32.6729678
  43.0952706 131.6986066  32.5114808  48.6255858 134.6086299  37.2259470
  48.6792880 135.1777235  37.9937186  47.7570639 134.7788184  36.8613507
  40.1143777 126.3711285  28.9506855  39.1841365 126.3095740  29.1676818
  40.2101249 125.8487238  28.1543497  40.0329326 122.8966098  31.5385097
  40.2936143 123.8111431  31.4294258  40.8546498 122.4290540  31.6881710
  41.5054251 124.3103855  38.7083922  42.1777305 124.1021217  38.0596571
  40.6784038 124.1125941  38.2689154  55.7543513 131.0507905  38.2259255
  55.9479403 131.9553716  38.4718530  55.6544131 130.5915324  39.0597840
  47.4079823 120.9365796  40.7249582  46.7607738 121.6355745  40.6314059
  48.1780839 121.3701940  41.0925831  50.8158621 131.2014648  43.8000136
  50.6644128 130.9725200  42.8830219  50.8063301 132.1585249  43.8131481
  47.5843958 128.7746561  38.7846402  48.5136018 128.9257720  38.6115370
  47.1634988 128.8630582  37.9295049  46.3832289 132.7997225  36.5544940
  46.2443375 132.4316010  37.4270878  45.5946886 133.3144865  36.3828898
  46.9780441 137.9006322  27.8970476  47.1532197 137.4294365  28.7116099
  46.2913229 138.5272088  28.1251737  47.9337505 132.1778828  33.9433778
  47.5987337 132.1379598  34.8391428  47.4341450 131.5123544  33.4704188
  41.9081749 127.5846458  39.4686359  41.7701546 126.8526697  40.0697898
  42.8186672 127.4955358  39.1870547  50.8696696 129.5234862  24.2170837
  50.2525867 128.7981690  24.1203890  50.4013185 130.2844222  23.8737912
  44.5364049 127.2966417  38.9570038  45.2463668 126.6559609  38.9156657
  44.4933357 127.5479312  39.8796219  52.5250828 134.2333771  41.8776618
  52.4663374 133.5492991  41.2107201  52.9270346 134.9752761  41.4257244
  43.2492983 124.2831635  40.7765678  42.7130340 123.8322374  41.4287274
  42.6609692 124.4177544  40.0336142  42.6595242 123.7420286  23.3392142
  41.7824708 123.6209087  22.9754388  43.1352995 122.9506365  23.0871030
  52.5268235 132.1973354  40.1090597  51.6395014 131.8599276  40.2316996
  53.0966786 131.4656386  40.3459363  34.1797382 128.5297446  33.4333649
  34.8668422 128.2159176  32.8454664  34.0245511 129.4338811  33.1600900
  38.9832104 123.4187643  37.8618672  38.8990293 122.8113312  37.1269082
  38.1614811 123.9096661  37.8628169  46.0569389 136.8574807  37.0751841
  45.9839560 137.6629778  37.5871145  45.6146782 137.0566773  36.2499862
  45.8459168 136.0946577  30.5854662  45.0626690 136.6368257  30.6792887
  46.5451913 136.6120556  30.9848903  49.1555818 121.9041206  33.2288867
  49.6524518 121.1511169  32.9089938  48.3842800 121.9405523  32.6632077
  57.0085576 127.6081572  34.8707159  56.9975452 128.4906287  34.5001092
  56.1402955 127.2553123  34.6761696  48.5168072 136.7561641  39.2309999
  49.2296044 137.3909106  39.1585901  48.0258101 136.8525507  38.4150001
  50.2385599 130.6612894  30.8027291  49.3041878 130.7814356  30.6331995
  50.4162267 129.7585360  30.5387301  45.7390787 124.0458589  32.9560552
  45.3688575 123.4929630  33.6441458  46.2349879 123.4416723  32.4035552
  53.6258150 126.5030213  31.3377325  54.0918603 127.3358204  31.2637628
  54.0765651 126.0375194  32.0422583  43.5679986 134.5056084  40.0515570
  44.2689445 135.1392567  40.2044964  43.0975101 134.8470816  39.2911209
  51.6934381 132.8474034  28.3363477  51.9694225 132.7330629  29.2457351
  50.8238880 132.4491519  28.2975650  51.5974813 118.8710800  35.3768226
  50.6837893 119.1015027  35.5450433  52.0267915 118.9549244  36.2282259
  51.3681272 127.0600692  37.8768120  50.7152722 127.3076599  37.2220573
  51.7461651 126.2464830  37.5430598  48.3288445 137.0960385  31.9796291
  48.5110840 136.2782041  32.4424043  49.1521431 137.3128077  31.5421181
  48.6630611 136.0228570  29.2411339  49.1918377 135.5121025  28.6281501
  48.9258831 135.7071100  30.1056872  47.4168845 127.8020503  44.3634157
  46.7409482 127.7014632  45.0336533  48.2396478 127.6459717  44.8270155
  39.1647704 134.0392439  36.9846673  39.7501140 133.2936127  37.1174577
  38.9672542 134.3496396  37.8683337  42.0186359 137.0743687  32.0009115
  41.3496734 137.5589814  31.5173155  41.8799229 137.3212907  32.9152494
  33.7565358 126.6098040  35.7051116  33.7949458 126.0761630  36.4988234
  33.2505651 126.0833245  35.0862093  46.1591627 139.1087430  38.5991773
  46.7109936 139.2719052  39.3640859  46.4997821 139.6991868  37.9271798
  41.1356121 121.4562580  39.2013658  41.1997447 122.3177411  38.7891056
  41.0723241 120.8436582  38.4686017  40.6108393 123.5285713  42.8486692
  41.2380432 123.1462790  43.4624217  39.7536312 123.3099915  43.2142385
  51.0102502 133.9348688  44.4540428  51.5542406 134.5478646  43.9595383
  50.4289347 134.4928266  44.9707441  37.3873936 125.3362142  28.7805047
  37.6827377 124.4272820  28.7272101  36.4861972 125.3149881  28.4586050
  49.2960015 137.0569406  35.5855456  49.1711154 136.2559146  35.0766401
  49.9539106 137.5515599  35.0969426  40.9168183 123.4118138  34.7632596
  40.1954769 124.0254106  34.6240069  41.7061439 123.9475903  34.6849242
  51.3594923 134.8578426  37.2135006  50.4125259 134.7383777  37.1413332
  51.7077696 133.9700924  37.2961267  43.7194497 120.7472565  41.0373248
  44.2428898 120.9934861  41.7999557  43.5006830 121.5792600  40.6176385
  39.1161778 123.0176239  28.9044372  38.7874484 122.1373618  28.7219478
  39.4701148 122.9623908  29.7920762  48.3641356 134.6531142  33.4139358
  48.2166319 133.7247850  33.5946928  49.1894850 134.6751233  32.9296433
  42.2303601 123.3049209  29.2719850  42.5699673 123.8335130  28.5498458
  42.6775721 123.6429615  30.0478417  51.9675478 135.4759701  34.5004231
  52.8922026 135.2702562  34.3628682  51.7990782 135.2276102  35.4093572
  44.9247042 121.6886260  38.7222918  44.5843862 120.8894073  39.1243598
  44.2186048 121.9887971  38.1499751  45.5763513 118.7735572  37.1750241
  46.3989583 118.2996051  37.0529131  45.8201577 119.5526056  37.6748927
  44.2171748 121.8023831  27.4713143  44.9380110 122.1805084  26.9676860
  43.5937052 122.5212708  27.5748121  48.3602871 122.5068980  28.4071475
  48.5766485 123.3893618  28.1060303  47.8796938 122.1155193  27.6777117
  43.1002092 125.4654693  34.9842220  42.9546673 125.7794996  35.8766501
  42.6227296 126.0839593  34.4313118  44.9598475 122.4557241  35.0323109
  44.9460044 121.5598334  34.6955407  45.6770903 122.4627905  35.6661395
  46.8124606 122.8894581  37.0776237  46.5542384 123.8111652  37.0760567
  46.2809646 122.4925016  37.7676701  51.7570794 135.9945368  29.8566322
  51.9307672 135.4291791  29.1040175  52.2499686 136.7946263  29.6745812
  37.5747754 128.0060037  37.9229881  37.0301222 128.7819845  38.0550155
  38.4527104 128.3530842  37.7649002  44.3635371 121.3371621  30.3010679
  44.4851282 120.4088267  30.5001567  44.0737413 121.3510307  29.3888995
  47.2326561 119.0226532  33.4377399  47.2548258 119.0865865  32.4829379
  47.6494620 118.1831040  33.6317905  57.6110186 128.7581791  31.4756622
  58.0541332 128.0089116  31.0775745  56.7336696 128.7491928  31.0930354
  52.7445967 135.3112133  26.9563220  53.4396872 135.9318825  27.1750535
  53.0869117 134.4607484  27.2315598  38.3613776 127.1329934  40.8160038
  37.6195512 127.2812569  41.4024668  38.0406520 127.3938199  39.9526787
  54.6437390 132.7611838  28.4850551  55.1688714 133.0999111  27.7599871
  54.5559743 131.8258854  28.3013686  46.3057439 136.6745912  40.6140428
  46.6144565 136.4295059  41.4863127  47.1032921 136.8792550  40.1259298
  46.3278051 138.8283821  32.8445804  45.8883041 138.3360200  33.5378661
  47.0786168 138.2856789  32.6037880  38.8070390 135.0195362  32.8470432
  39.6328410 134.7199134  32.4669076  38.4564442 134.2502985  33.2960221
  43.7751923 134.3721831  34.9168106  43.1531932 133.7092536  34.6170334
  44.4456790 134.3982962  34.2341754  37.0078995 132.9381689  33.8059366
  36.1710903 132.5103863  33.6243367  36.9802640 133.1314132  34.7430157
  43.8476450 122.8503619  44.5100612  43.8964606 123.7265741  44.1278382
  44.3898965 122.3081012  43.9372255  54.3331296 133.3944742  43.7901749
  53.5426840 133.3768881  43.2506249  54.0964651 133.9333036  44.5450786
  54.4529171 130.2437208  41.1034478  54.5027176 130.0787216  42.0450000
  54.3443095 129.3764467  40.7132358  43.3365430 132.9225754  28.3926567
  43.4853550 133.6061218  27.7393239  44.1431873 132.9030844  28.9076022
  51.7432934 126.2268136  42.4193784  52.6442796 126.0874601  42.1277782
  51.8180908 126.3922591  43.3591962  46.0775739 123.6034991  41.2646971
  45.2079048 123.8968557  40.9929559  46.3135219 124.1875436  41.9854234
  55.9547368 132.6634150  41.3476499  55.6632176 133.0264130  42.1839960
  55.3419499 131.9501158  41.1689831  57.1543050 130.2287030  33.8679069
  57.9889942 130.6676834  34.0316630  57.2902179 129.7525683  33.0487315
  54.2034556 127.7866764  39.8156557  54.6788678 127.9794411  39.0075409
  53.2800122 127.8425950  39.5699941  41.0918063 128.9490932  29.3987635
  40.8464105 128.0453262  29.5967846  41.2613977 128.9508082  28.4567113
  48.7814773 119.8214608  38.7812391  49.2996717 120.5575635  38.4558880
  48.4269906 120.1278601  39.6159150  40.3613710 124.6819289  26.8973797
  39.6682955 124.7563644  26.2413833  40.1165462 123.9179633  27.4195314
  49.0327367 116.2414890  34.3013288  49.3129121 115.5738080  34.9273714
  49.8177974 116.4343986  33.7887952  46.8360835 135.4173884  25.8638314
  46.2634803 136.0364072  25.4108786  47.4093629 135.9673246  26.3978236
  52.9036225 124.6632524  38.0484863  53.8553648 124.7630622  38.0697087
  52.7339676 123.8710793  38.5582947  50.9250605 121.7488108  38.2344264
  50.3300537 122.0293120  37.5390752  50.6400301 122.2382009  39.0061005
  50.0558095 135.7011035  26.9946896  50.9888768 135.6356596  27.1979772
  49.9681308 136.5367301  26.5361429  52.6846112 135.0176905  23.9550844
  52.6059743 134.6836768  24.8486602  53.5055779 135.5098673  23.9542316
  55.3824303 127.8838644  37.1627162  55.3500623 126.9454645  37.3486846
  55.9924927 127.9622681  36.4292987  47.2207634 126.7534697  23.2054366
  48.1666739 126.6240905  23.2742785  46.8421879 126.0149359  23.6823795
  55.5318792 124.6749688  37.2085446  55.0157840 123.8908144  37.0215374
  56.4158740 124.3468404  37.3731965  53.1929518 118.4190703  33.1681258
  52.9954340 118.1105791  34.0524590  53.8029224 119.1452342  33.2979188
  61.2000853 128.9454651  36.3033199  61.9304241 128.6839939  36.8640903
  60.5907798 128.2083373  36.3435267  59.2816150 127.0862514  36.9007650
  58.5549314 126.9518479  36.2924142  58.8663437 127.3939342  37.7064368
  47.1046326 130.8052443  44.6655023  48.0249336 130.9831042  44.8595070
  47.0695910 129.8608489  44.5134723  45.4050551 124.6784674  23.1409252
  44.4982006 124.3817786  23.2171965  45.6826532 124.3814492  22.2743538
  36.3228491 125.9991037  33.5908298  36.0031276 125.1456345  33.2982672
  35.7761920 126.2139615  34.3466265  40.1008399 128.7153478  37.3077805
  40.3194409 129.6470586  37.3265838  40.5134173 128.3561452  38.0932608
  47.0212617 119.2221563  29.2953493  46.2113345 118.8768648  29.6708739
  47.7097034 118.9129107  29.8841105  48.9503165 118.2999610  30.9177790
  49.5034204 118.7195063  31.5767813  49.1873251 117.3735358  30.9600746
  44.9736264 124.2886684  46.6980554  44.8732991 125.2381041  46.6292645
  44.7557806 123.9604923  45.8256624  44.1749336 121.5371609  23.2821231
  45.0368500 121.8626507  23.5417048  44.3599680 120.7503105  22.7694297
  36.1916751 129.6193948  35.5601420  35.4980223 129.2047901  35.0471374
  36.9389742 129.6614485  34.9634839  52.3281972 120.4100135  30.4256454
  51.7480641 121.0684939  30.0434506  52.0617905 119.5877480  30.0143871
  50.7785539 119.8105193  32.6277774  51.2785317 119.9221727  31.8192093
  51.4221146 119.5066246  33.2678583  44.8367534 127.7183823  45.5145615
  44.3534616 128.5184183  45.7209504  44.9228473 127.7291767  44.5613059
  38.1053494 129.5512202  33.4367435  38.0824182 129.6499889  32.4849318
  38.4154130 130.3977353  33.7584601  40.7640872 131.6088357  37.5514049
  41.7184125 131.5772300  37.4843981  40.5653395 131.1478981  38.3664275
  41.3540254 130.1789473  40.1184847  42.1733143 130.6733552  40.1419684
  41.6277062 129.2621441  40.0902414  51.1106850 122.5700226  29.4812802
  50.2232705 122.8549876  29.2632997  51.5260839 122.4093989  28.6340079
  54.4621386 122.5946747  33.1967141  55.2381776 123.0843199  33.4691758
  53.7369521 123.0204801  33.6539011  56.8993945 123.3074366  34.2541082
  57.4938436 123.0670102  33.5434390  56.9720529 122.5881496  34.8814618
  39.1191101 137.1507977  34.5684247  38.9845569 136.3908378  34.0022245
  38.7023163 137.8748877  34.1013036  50.2550064 132.3344900  23.5760822
  50.9585914 132.5394903  24.1918478  49.5312712 132.9021662  23.8409906
  51.0847874 128.0854762  29.6963092  51.0283075 128.5423313  28.8570725
  51.6376216 127.3245446  29.5185935  54.8952680 123.8744493  30.5213212
  54.6389614 123.4741129  31.3521420  54.2705548 124.5888287  30.3963351
  59.2065018 126.6140567  33.0284503  58.6464576 126.6833756  33.8016065
  58.6008521 126.4381551  32.3083999  42.2760227 138.0477294  34.7802689
  42.1592611 138.9922726  34.6781380  41.4552673 137.7450855  35.1688489
  52.1636761 132.7727429  25.6259282  52.9982365 132.3408628  25.4436757
  52.0021104 132.6009443  26.5536177  51.8182653 129.2759543  26.9915622
  51.7631457 129.1103814  26.0504066  51.1928709 129.9835576  27.1477811
  36.6075168 124.5127607  40.8177044  37.2534032 124.0026561  41.3064269
  36.3992319 125.2496289  41.3920469  49.1328560 131.5808455  46.3169184
  50.0019720 131.7549107  45.9555819  48.6535312 132.4002871  46.1944914
  45.1278779 118.7767652  26.5700940  45.1157449 119.7209492  26.7269211
  46.0202201 118.5937797  26.2760401  43.3014741 138.7005556  37.9958618
  44.2041987 138.7329166  38.3125113  43.0752111 137.7706007  38.0104954
  45.0568343 137.4536542  34.6568697  44.1063974 137.4538404  34.5433069
  45.3600829 136.7069277  34.1404731  48.9430898 115.3710428  30.8246877
  48.1763294 114.8168915  30.9703559  49.3541603 115.4432297  31.6861028
  40.9472659 121.6595224  44.9152058  41.8104121 121.3032029  45.1255383
  40.3738070 121.3209119  45.6027462  60.7921036 143.2897081  35.7214459
  61.4299446 143.1703828  35.0177799  60.6741879 144.2377925  35.7802411
  57.6010742 143.2424509  35.6575984  57.2629254 143.1265573  34.7696518
  58.4700511 142.8415674  35.6376990  53.4597558 145.0959985  31.6472875
  52.8962423 145.0049922  30.8789162  53.3449953 144.2759890  32.1275367
  58.0830525 144.3959360  41.6162189  58.0719166 144.0012159  40.7442693
  58.2451165 143.6625433  42.2095961  55.7293993 144.5573321  37.1542733
  56.3257566 144.3329343  36.4399696  55.7868965 143.8158066  37.7568181
  55.3019022 142.0112756  24.9892924  55.5544543 141.4894277  24.2276387
  54.3643581 141.8478901  25.0919607  60.3462305 141.0148534  32.7967667
  61.1325394 140.5967958  32.4458084  60.6101009 141.9194627  32.9649315
  60.5172382 146.4521385  27.4956324  59.8818215 146.5256011  28.2077228
  60.1869788 147.0414984  26.8175403  65.7470732 140.9523768  33.7000645
  66.4795904 140.3822984  33.9338475  64.9910087 140.5645368  34.1407151
  55.0215311 143.9140862  27.1917299  54.9051569 143.2385765  27.8598383
  55.1317570 143.4273236  26.3749452  57.3646852 143.3751009  30.8963988
  57.0005059 142.8481630  31.6076909  58.2213967 142.9849478  30.7230473
  63.2696152 134.6645342  38.1595254  62.9379477 135.5340753  37.9356469
  62.6741766 134.3481626  38.8389284  57.0052338 138.4040909  25.8925336
  57.1726741 139.2721145  26.2595808  56.8149508 138.5668191  24.9686626
  53.2140153 143.3171685  33.5927871  52.2890650 143.1847899  33.8005563
  53.4624566 144.0965904  34.0897814  63.1624815 139.3840428  35.2388604
  62.2541693 139.3155836  34.9447365  63.1112411 139.8612373  36.0670430
  56.9841559 140.8598566  26.8772003  56.8641185 141.3055617  27.7157484
  56.2894148 141.2083884  26.3185541  50.5748964 142.9604958  34.4271660
  50.7041345 143.2139437  35.3411072  49.8946415 143.5532666  34.1076315
  57.2365681 140.8030073  43.1823501  56.4599015 141.3623994  43.1726366
  57.8756244 141.2886856  43.7038372  65.0286462 137.5856866  37.0166478
  64.3860842 137.8789399  36.3706273  64.5241390 137.4709787  37.8219675
  62.6826626 141.3320039  27.7052337  63.5944482 141.5647426  27.5300035
  62.1736273 141.9157084  27.1427416  55.4912054 143.6115527  42.7441468
  56.2326738 144.1500571  42.4676292  54.7849039 144.2381816  42.9013020
  60.9667393 145.7544667  41.3413630  61.3750749 145.3127078  40.5968262
  60.2444655 145.1797295  41.5947823  57.3198463 140.6917274  38.7147187
  58.1659658 141.1156688  38.8581836  57.2597101 140.0350898  39.4085750
  61.2896208 146.3145858  35.0965919  60.6605070 146.4791572  34.3941987
  60.9021870 146.7287467  35.8676883  65.1685440 147.2500296  32.4510283
  64.4836478 147.6299197  31.9007316  65.2529289 147.8595622  33.1842230
  60.4697909 138.3521642  40.3728360  60.2258840 139.1063703  39.8362636
  60.7457839 138.7306990  41.2075608  62.4236371 144.8960255  39.0505626
  62.6353267 145.5392015  38.3740007  62.3766120 144.0622571  38.5827556
  60.0262600 137.5078075  35.9542198  59.1647079 137.8059329  36.2458936
  60.0525035 137.7248474  35.0223231  56.8424170 146.0520266  32.3616004
  57.3062515 146.3307969  31.5720626  56.5780968 145.1503711  32.1789095
  55.7793056 142.1743418  29.1705569  56.4817099 142.6264462  29.6379495
  55.4473684 141.5327237  29.7985462  54.2273417 140.7655175  43.5456778
  53.5972078 141.4471456  43.7792175  54.1209505 140.6538257  42.6009917
  49.5218390 140.4326971  34.4722703  48.7317444 140.6884500  33.9962813
  50.0129637 141.2475309  34.5774743  63.5382199 147.7732210  37.2227983
  64.3599643 147.3712398  36.9410665  63.5344602 147.6700444  38.1744099
  51.4733135 140.7971550  31.4306179  50.6764298 140.9090245  31.9489675
  51.2458727 141.1358203  30.5647070  47.8056093 140.6857461  36.9037693
  48.0564131 141.5704471  37.1695269  48.3415641 140.5062063  36.1312785
  71.6288192 144.1170959  33.5712955  70.8751901 143.5478357  33.4156959
  71.7635734 144.0833623  34.5183590  53.5054160 135.0675941  45.9082029
  53.1121106 134.5142139  46.5829674  54.3220300 135.3786519  46.2988547
  56.4222121 136.4833820  43.5002286  57.1631834 137.0840973  43.4206749
  56.6540044 135.7411458  42.9420329  51.5663459 141.6690187  41.7780516
  51.4516974 140.7675444  42.0787615  50.7107977 141.9153884  41.4265332
  60.3679284 132.5114923  37.7766568  60.0243553 133.4016565  37.7005678
  60.7358247 132.3216581  36.9136153  60.3329567 142.5023534  26.2839003
  59.8176190 143.2728139  26.5227390  60.0606875 141.8288670  26.9072064
  57.9176678 137.3473235  31.3424241  57.0618274 136.9580085  31.1629880
  58.3303629 137.4265196  30.4824027  59.4475824 134.8819578  35.7415801
  58.9440620 134.8449713  34.9283606  59.7406431 135.7912321  35.8012458
  55.6918710 134.9658308  34.7481983  56.5571707 134.7701116  34.3887872
  55.7596219 134.7368660  35.6751339  65.3063841 145.2555889  28.2192176
  64.5293284 144.9167048  27.7747338  65.9855322 145.2608512  27.5447141
  60.1215870 140.3750626  28.1098784  59.8166005 140.6896775  28.9608927
  61.0746312 140.4532046  28.1526117  63.5455148 144.7289870  34.8758784
  62.8878822 145.4189131  34.9638913  64.3495547 145.1186302  35.2192771
  53.2981029 137.1960516  32.1198350  53.8724781 136.9735697  31.3871542
  53.8852012 137.2649210  32.8726951  62.3560607 143.0834243  32.9262726
  62.8692488 143.7164234  33.4284436  63.0061830 142.4835438  32.5606086
  53.6250616 139.2264977  26.1394235  52.7887929 139.5639663  26.4603509
  53.4855386 139.0913957  25.2021372  55.6003697 134.0701765  30.8473419
  54.9468109 133.7550782  30.2230034  55.5584171 133.4477505  31.5733242
  56.7114902 144.3521060  22.7626711  55.8041964 144.1210313  22.9617860
  57.2085934 143.5558679  22.9500693  58.8341437 140.5583698  35.1721067
  57.9163999 140.7798645  35.0142755  59.2501581 140.6330009  34.3132774
  59.6176485 141.9575114  30.3023747  60.3648304 142.4696511  29.9930869
  59.8868075 141.6359167  31.1628140  57.8903135 144.4533655  27.2850701
  56.9814355 144.1692687  27.3823171  57.9198219 144.8732733  26.4254008
  62.0655322 138.9932230  32.2842536  61.3278079 138.4809616  32.6152779
  62.3182096 138.5532612  31.4725813  62.1666950 131.7708482  32.8784305
  62.4725826 130.9105846  32.5910220  62.8919554 132.3626102  32.6783299
  48.4591306 142.1739169  31.2665903  48.2615706 141.5808529  30.5416970
  47.9037970 141.8691379  31.9841842  56.4388029 142.0662275  33.3860496
  56.4936639 141.1136112  33.3102973  55.6279231 142.2221714  33.8701795
  57.5879223 145.9942398  24.6238780  57.1498653 145.2778257  24.1644417
  58.3289664 146.2218513  24.0623871  54.3780389 140.6839335  31.1450875
  53.5648255 140.9833505  31.5516067  54.8739383 140.2895024  31.8625358
  59.9754601 141.1481159  39.9765769  60.3303989 141.3752633  40.8360235
  60.6226732 141.4799536  39.3543025  65.7052338 144.2699595  30.6815098
  65.5670236 144.4601191  29.7536287  65.3488557 145.0318978  31.1383149
  53.8694464 138.2557690  36.7612110  54.5093843 138.1146450  36.0635074
  53.0371995 137.9692204  36.3850712  65.7321717 146.3376122  35.6926370
  66.1658224 146.2451411  36.5409424  66.4453298 146.3133623  35.0546386
  50.9537531 141.7003203  28.9506855  50.0235119 141.6387658  29.1676818
  51.0495003 141.1779155  28.1543497  50.8723080 138.2258015  31.5385097
  51.1329898 139.1403349  31.4294258  51.6940253 137.7582458  31.6881710
  52.3448006 139.6395773  38.7083922  53.0171059 139.4313135  38.0596571
  51.5177792 139.4417859  38.2689154  66.5937267 146.3799823  38.2259255
  66.7873157 147.2845633  38.4718530  66.4937885 145.9207242  39.0597840
  58.2473578 136.2657713  40.7249582  57.6001493 136.9647663  40.6314059
  59.0174593 136.6993857  41.0925831  61.6552376 146.5306566  43.8000136
  61.5037882 146.3017117  42.8830219  61.6457055 147.4877167  43.8131481
  58.4237712 144.1038478  38.7846402  59.3529772 144.2549638  38.6115370
  58.0028742 144.1922499  37.9295049  52.7475503 142.9138376  39.4686359
  52.6095301 142.1818614  40.0697898  53.6580427 142.8247276  39.1870547
  61.7090451 144.8526780  24.2170837  61.0919621 144.1273608  24.1203890
  61.2406939 145.6136140  23.8737912  55.3757804 142.6258335  38.9570038
  56.0857422 141.9851527  38.9156657  55.3327112 142.8771230  39.8796219
  54.0886738 139.6123553  40.7765678  53.5524095 139.1614291  41.4287274
  53.5003446 139.7469462  40.0336142  53.4988997 139.0712204  23.3392142
  52.6218463 138.9501005  22.9754388  53.9746750 138.2798282  23.0871030
  63.3661990 147.5265272  40.1090597  62.4788768 147.1891194  40.2316996
  63.9360541 146.7948303  40.3459363  49.8225859 138.7479560  37.8618672
  49.7384048 138.1405230  37.1269082  49.0008565 139.2388579  37.8628169
  59.9949573 137.2333124  33.2288867  60.4918272 136.4803086  32.9089938
  59.2236554 137.2697441  32.6632077  67.8479330 142.9373490  34.8707159
  67.8369206 143.8198205  34.5001092  66.9796710 142.5845040  34.6761696
  61.0779353 145.9904811  30.8027291  60.1435632 146.1106274  30.6331995
  61.2556022 145.0877278  30.5387301  56.5784542 139.3750507  32.9560552
  56.2082329 138.8221547  33.6441458  57.0743634 138.7708640  32.4035552
  64.4651905 141.8322130  31.3377325  64.9312357 142.6650122  31.2637628
  64.9159405 141.3667112  32.0422583  62.5328136 148.1765952  28.3363477
  62.8087980 148.0622546  29.2457351  61.6632635 147.7783437  28.2975650
  62.4368568 134.2002717  35.3768226  61.5231647 134.4306944  35.5450433
  62.8661669 134.2841162  36.2282259  62.2075026 142.3892609  37.8768120
  61.5546476 142.6368517  37.2220573  62.5855406 141.5756748  37.5430598
  58.2562599 143.1312420  44.3634157  57.5803236 143.0306550  45.0336533
  59.0790233 142.9751634  44.8270155  44.5959113 141.9389957  35.7051116
  44.6343212 141.4053548  36.4988234  44.0899406 141.4125163  35.0862093
  51.9749875 136.7854498  39.2013658  52.0391202 137.6469329  38.7891056
  51.9116995 136.1728499  38.4686017  51.4502148 138.8577630  42.8486692
  52.0774187 138.4754708  43.4624217  50.5930067 138.6391832  43.2142385
  48.2267690 140.6654059  28.7805047  48.5221132 139.7564738  28.7272101
  47.3255726 140.6441799  28.4586050  51.7561937 138.7410056  34.7632596
  51.0348523 139.3546024  34.6240069  52.5455193 139.2767821  34.6849242
  54.5588251 136.0764482  41.0373248  55.0822653 136.3226779  41.7999557
  54.3400584 136.9084517  40.6176385  49.9555532 138.3468157  28.9044372
  49.6268238 137.4665536  28.7219478  50.3094903 138.2915826  29.7920762
  53.0697355 138.6341127  29.2719850  53.4093428 139.1627048  28.5498458
  53.5169476 138.9721533  30.0478417  55.7640796 137.0178178  38.7222918
  55.4237616 136.2185991  39.1243598  55.0579802 137.3179888  38.1499751
  56.4157268 134.1027490  37.1750241  57.2383337 133.6287968  37.0529131
  56.6595331 134.8817974  37.6748927  55.0565502 137.1315748  27.4713143
  55.7773865 137.5097001  26.9676860  54.4330806 137.8504625  27.5748121
  59.1996625 137.8360897  28.4071475  59.4160240 138.7185535  28.1060303
  58.7190692 137.4447111  27.6777117  53.9395847 140.7946611  34.9842220
  53.7940427 141.1086914  35.8766501  53.4621050 141.4131511  34.4313118
  55.7992230 137.7849159  35.0323109  55.7853798 136.8890252  34.6955407
  56.5164658 137.7919822  35.6661395  57.6518360 138.2186499  37.0776237
  57.3936138 139.1403569  37.0760567  57.1203401 137.8216933  37.7676701
  55.2029125 136.6663539  30.3010679  55.3245037 135.7380185  30.5001567
  54.9131168 136.6802225  29.3888995  58.0720316 134.3518449  33.4377399
  58.0942013 134.4157782  32.4829379  58.4888375 133.5122958  33.6317905
  68.4503940 144.0873709  31.4756622  68.8935086 143.3381034  31.0775745
  67.5730450 144.0783845  31.0930354  49.2007531 142.4621851  40.8160038
  48.4589267 142.6104487  41.4024668  48.8800275 142.7230117  39.9526787
  65.4831145 148.0903756  28.4850551  66.0082469 148.4291029  27.7599871
  65.3953497 147.1550771  28.3013686  54.6870205 138.1795536  44.5100612
  54.7358360 139.0557659  44.1278382  55.2292719 137.6372929  43.9372255
  65.1725051 148.7236660  43.7901749  64.3820594 148.7060798  43.2506249
  64.9358405 149.2624953  44.5450786  65.2922926 145.5729126  41.1034478
  65.3420931 145.4079133  42.0450000  65.1836849 144.7056385  40.7132358
  62.5826688 141.5560054  42.4193784  63.4836551 141.4166519  42.1277782
  62.6574663 141.7214509  43.3591962  56.9169493 138.9326909  41.2646971
  56.0472803 139.2260475  40.9929559  57.1528974 139.5167354  41.9854234
  66.7941123 147.9926067  41.3476499  66.5025931 148.3556048  42.1839960
  66.1813254 147.2793076  41.1689831  67.9936805 145.5578947  33.8679069
  68.8283696 145.9968751  34.0316630  68.1295934 145.0817600  33.0487315
  65.0428311 143.1158682  39.8156557  65.5182432 143.3086328  39.0075409
  64.1193876 143.1717868  39.5699941  51.9311817 144.2782849  29.3987635
  51.6857859 143.3745179  29.5967846  52.1007732 144.2800000  28.4567113
  59.6208527 135.1506526  38.7812391  60.1390471 135.8867553  38.4558880
  59.2663660 135.4570519  39.6159150  51.2007465 140.0111207  26.8973797
  50.5076710 140.0855562  26.2413833  50.9559217 139.2471550  27.4195314
  59.8721121 131.5706808  34.3013288  60.1522875 130.9029997  34.9273714
  60.6571728 131.7635904  33.7887952  63.7429980 139.9924442  38.0484863
  64.6947403 140.0922540  38.0697087  63.5733430 139.2002711  38.5582947
  61.7644359 137.0780025  38.2344264  61.1694291 137.3585038  37.5390752
  61.4794056 137.5673926  39.0061005  66.2218058 143.2130562  37.1627162
  66.1894378 142.2746563  37.3486846  66.8318681 143.2914599  36.4292987
  58.0601388 142.0826615  23.2054366  59.0060493 141.9532823  23.2742785
  57.6815633 141.3441277  23.6823795  66.3712546 140.0041605  37.2085446
  65.8551595 139.2200062  37.0215374  67.2552495 139.6760322  37.3731965
  64.0323273 133.7482621  33.1681258  63.8348094 133.4397709  34.0524590
  64.6422979 134.4744260  33.2979188  72.0394607 144.2746569  36.3033199
  72.7697996 144.0131857  36.8640903  71.4301553 143.5375291  36.3435267
  70.1209905 142.4154431  36.9007650  69.3943068 142.2810396  36.2924142
  69.7057191 142.7231260  37.7064368  57.9440081 146.1344361  44.6655023
  58.8643090 146.3122960  44.8595070  57.9089664 145.1900406  44.5134723
  56.2444306 140.0076591  23.1409252  55.3375761 139.7109704  23.2171965
  56.5220287 139.7106409  22.2743538  47.1622246 141.3282955  33.5908298
  46.8425030 140.4748263  33.2982672  46.6155674 141.5431533  34.3466265
  57.8606371 134.5513481  29.2953493  57.0507100 134.2060566  29.6708739
  58.5490788 134.2421025  29.8841105  59.7896920 133.6291528  30.9177790
  60.3427958 134.0486981  31.5767813  60.0267006 132.7027276  30.9600746
  55.8130019 139.6178601  46.6980554  55.7126746 140.5672958  46.6292645
  55.5951561 139.2896840  45.8256624  55.0143090 136.8663526  23.2821231
  55.8762254 137.1918425  23.5417048  55.1993434 136.0795022  22.7694297
  63.1675727 135.7392053  30.4256454  62.5874396 136.3976857  30.0434506
  62.9011659 134.9169397  30.0143871  61.6179293 135.1397111  32.6277774
  62.1179071 135.2513645  31.8192093  62.2614901 134.8358163  33.2678583
  55.6761289 143.0475740  45.5145615  55.1928371 143.8476100  45.7209504
  55.7622228 143.0583685  44.5613059  61.9500605 137.8992143  29.4812802
  61.0626460 138.1841794  29.2632997  62.3654594 137.7385907  28.6340079
  65.3015141 137.9238664  33.1967141  66.0775531 138.4135117  33.4691758
  64.5763275 138.3496718  33.6539011  67.7387699 138.6366283  34.2541082
  68.3332190 138.3962019  33.5434390  67.8114283 137.9173414  34.8814618
  61.9241628 143.4146679  29.6963092  61.8676830 143.8715231  28.8570725
  62.4769971 142.6537364  29.5185935  65.7346434 139.2036411  30.5213212
  65.4783369 138.8033047  31.3521420  65.1099302 139.9180205  30.3963351
  70.0458772 141.9432484  33.0284503  69.4858330 142.0125674  33.8016065
  69.4402276 141.7673469  32.3083999  63.0030516 148.1019347  25.6259282
  63.8376119 147.6700546  25.4436757  62.8414858 147.9301361  26.5536177
  62.6576408 144.6051460  26.9915622  62.6025212 144.4395732  26.0504066
  62.0322463 145.3127493  27.1477811  47.4468923 139.8419525  40.8177044
  48.0927786 139.3318479  41.3064269  47.2386074 140.5788206  41.3920469
  55.9672533 134.1059569  26.5700940  55.9551203 135.0501409  26.7269211
  56.8595955 133.9229715  26.2760401  59.7824653 130.7002346  30.8246877
  59.0157048 130.1460833  30.9703559  60.1935358 130.7724215  31.6861028
  51.7866414 136.9887142  44.9152058  52.6497875 136.6323947  45.1255383
  51.2131824 136.6501037  45.6027462  74.1089907 149.9937259  38.1595254
  73.7773231 150.8632670  37.9356469  73.5135520 149.6773543  38.8389284
  71.2073038 147.8406841  37.7766568  70.8637308 148.7308482  37.7005678
  71.5752001 147.6508498  36.9136153  70.2869579 150.2111496  35.7415801
  69.7834374 150.1741631  34.9283606  70.5800186 151.1204238  35.8012458
  66.4397452 149.3993682  30.8473419  65.7861864 149.0842699  30.2230034
  66.3977926 148.7769423  31.5733242  73.0060704 147.1000400  32.8784305
  73.3119581 146.2397763  32.5910220  73.7313309 147.6918020  32.6783299
  73.2762322 149.5294635  35.3768226  72.3625402 149.7598862  35.5450433
  73.7055424 149.6133079  36.2282259  67.2551022 149.4319408  37.1750241
  68.0777092 148.9579886  37.0529131  67.4989086 150.2109891  37.6748927
  68.9114070 149.6810367  33.4377399  68.9335767 149.7449700  32.4829379
  69.3282129 148.8414876  33.6317905  70.4602282 150.4798443  38.7812391
  70.9784226 151.2159470  38.4558880  70.1057415 150.7862437  39.6159150
  70.7114876 146.8998726  34.3013288  70.9916630 146.2321915  34.9273714
  71.4965483 147.0927821  33.7887952  74.8717027 149.0774539  33.1681258
  74.6741849 148.7689627  34.0524590  75.4816733 149.8036177  33.2979188
  68.7000126 149.8805399  29.2953493  67.8900854 149.5352484  29.6708739
  69.3884543 149.5712942  29.8841105  70.6290674 148.9583445  30.9177790
  71.1821713 149.3778899  31.5767813  70.8660760 148.0319194  30.9600746
  74.0069481 151.0683971  30.4256454  73.4268150 151.7268775  30.0434506
  73.7405414 150.2461315  30.0143871  72.4573048 150.4689028  32.6277774
  72.9572826 150.5805563  31.8192093  73.1008655 150.1650081  33.2678583
  78.5781454 153.9658201  34.2541082  79.1725945 153.7253937  33.5434390
  78.6508038 153.2465332  34.8814618  70.6218407 146.0294264  30.8246877
  69.8550803 145.4752750  30.9703559  71.0329112 146.1016133  31.6861028
   4.4486526  49.9710462  30.1013323   4.0050380  49.1846840  29.7834227
   5.1103739  50.1589612  29.4357214   6.5467764  50.2513262  28.1294724
   6.5286239  51.0722143  27.6374993   7.4687684  50.1267337  28.3544865
   3.0040818  47.7657391  28.9718233   3.5369155  47.0045679  28.7417541
   2.4754899  47.4731043  29.7142387   7.4583605  46.8909100  30.5245442
   7.3069111  46.6619652  29.6075526   7.4488284  47.8479701  30.5376787
   9.1675811  49.9228222  28.6021924   9.1088357  49.2387443  27.9352507
   9.5695330  50.6647212  28.1502550   9.1693218  47.8867806  26.8335904
   8.2819997  47.5493728  26.9562303   9.7391770  47.1550838  27.0704669
   5.1593055  52.4456093  25.9555306   5.8721028  53.0803558  25.8831207
   4.6683084  52.5419959  25.1395308   4.0593828  43.4914955  31.0879464
   3.3834465  43.3909084  31.7581839   4.8821462  43.3354168  31.5515461
   2.8016611  54.7981882  25.3237080   3.3534919  54.9613504  26.0886165
   3.1422804  55.3886320  24.6517105   7.6527485  49.6243140  31.1785734
   8.1967389  50.2373098  30.6840689   7.0714330  50.1822718  31.6952747
   2.9482422  52.3640364  27.3385734   3.2569549  52.1189511  28.2108434
   3.7457904  52.5687002  26.8504605  10.9756279  49.0839194  30.5147056
  10.1851823  49.0663333  29.9751555  10.7389634  49.6227487  31.2696092
  11.0954155  45.9331660  27.8279784  11.1452159  45.7681668  28.7695307
  10.9868078  45.0658919  27.4377665  12.5972351  48.3528602  28.0721806
  12.3057160  48.7158582  28.9085267  11.9844483  47.6395610  27.8935138
   3.7471310  46.4946895  31.3900330   4.6674319  46.6725494  31.5840377
   3.7120893  45.5502941  31.2380029   5.7753544  47.2702907  33.0414491
   6.6444703  47.4443559  32.6801126   5.2960295  48.0897323  32.9190220
  17.4346019  58.9791532  22.4459766  18.0724429  58.8598280  21.7423106
  17.3166862  59.9272376  22.5047718  14.2435726  58.9318961  22.3821290
  13.9054237  58.8160025  21.4941825  15.1125494  58.5310126  22.3622296
  14.7255509  60.0853812  28.3407496  14.7144150  59.6906611  27.4687999
  14.8876148  59.3519885  28.9341267   7.6486973  62.2805629  21.2102402
   8.4408265  61.9396453  20.7948701   7.8883624  62.3900604  22.1304555
  11.4462770  62.8690924  27.2886680  11.1552636  63.7736555  27.1733346
  12.0819754  62.9107452  28.0030749  12.3718977  60.2467773  23.8788039
  12.9682549  60.0223795  23.1645002  12.4293948  59.5052518  24.4813487
  16.9887288  56.7042986  19.5212974  17.7750377  56.2862409  19.1703391
  17.2525992  57.6089078  19.6894622  22.3895715  56.6418220  20.4245952
  23.1220887  56.0717436  20.6583782  21.6335071  56.2539820  20.8652458
  14.0071835  59.0645461  17.6209295  13.6430042  58.5376082  18.3322216
  14.8638951  58.6743930  17.4475780  19.9121135  50.3539794  24.8840561
  19.5804460  51.2235205  24.6601776  19.3166749  50.0376078  25.5634591
  16.4052655  62.5552340  24.2836473  16.1053378  63.4577378  24.1752281
  16.0603714  62.2884523  25.1357626   9.8565136  59.0066136  20.3173178
   8.9315633  58.8742351  20.5250870  10.1049550  59.7860356  20.8143120
  19.8049799  55.0734880  21.9633911  18.8966676  55.0050288  21.6692672
  19.7537395  55.5506825  22.7915736   7.2173947  58.6499410  21.1516967
   7.3466329  58.9033889  22.0656379   6.5371399  59.2427118  20.8321622
  11.3873435  69.3196660  17.2507441  11.3097464  70.2704485  17.3295922
  10.7835078  68.9742532  17.9082367  13.8790665  56.4924525  29.9068808
  13.1023999  57.0518446  29.8971673  14.5181228  56.9781308  30.4283678
  21.6711445  53.2751318  23.7411785  21.0285825  53.5683851  23.0951579
  21.1666374  53.1604239  24.5464981  12.1337037  59.3009979  29.4686775
  12.8751721  59.8395023  29.1921599  11.4274022  59.9276267  29.6258327
  17.6092376  61.4439119  28.0658937  18.0175733  61.0021530  27.3213569
  16.8869638  60.8691747  28.3193129  13.9623447  56.3811726  25.4392493
  14.8084642  56.8051140  25.5827142  13.9022084  55.7245350  26.1331057
  17.9321191  62.0040310  21.8211225  17.3030054  62.1686024  21.1187293
  17.5446853  62.4181919  22.5922189  21.8110423  62.9394748  19.1755589
  21.1261461  63.3193649  18.6252622  21.8954272  63.5490074  19.9087537
  17.1122892  54.0416094  27.0973667  16.8683824  54.7958155  26.5607943
  17.3882822  54.4201442  27.9320914  19.0661355  60.5854707  25.7750933
  19.2778250  61.2286467  25.0985314  19.0191103  59.7517023  25.3072863
  16.6687584  53.1972527  22.6787505  15.8072063  53.4953781  22.9704242
  16.6950018  53.4142926  21.7468537  13.4849153  61.7414718  19.0861311
  13.9487499  62.0202421  18.2965933  13.2205951  60.8398162  18.9034401
  10.3773234  61.2886199  22.0241074  10.9474591  61.7173468  21.3858558
  10.9681346  61.0068784  22.7225259  10.8698401  56.4549627  30.2702085
  10.2397061  57.1365908  30.5037482  10.7634488  56.3432709  29.3255223
  20.1807183  63.4626662  23.9473290  21.0024626  63.0606849  23.6655972
  20.1769585  63.3594896  24.8989406  13.9463786  63.0110705  26.1034001
  14.0108219  63.4731113  26.9392172  13.2374710  62.3808070  26.2316310
   4.4481076  56.3751913  23.6283000   4.6989114  57.2598923  23.8940576
   4.9840624  56.1956515  22.8558092  28.2713176  59.8065411  20.2958262
  27.5176884  59.2372809  20.1402266  28.4060717  59.7728075  21.2428896
  13.6611804  64.6778813  15.9712981  13.5257478  65.5230349  16.3997829
  14.2021616  64.8798091  15.2078915  10.1479143  50.7570393  32.6327336
   9.7546089  50.2036591  33.3074980  10.9645284  51.0680971  33.0233854
   8.9236086  65.3120007  18.6263659   9.1002714  66.2337972  18.4384643
   9.7192919  64.9978426  19.0558039  13.0647104  52.1728272  30.2247593
  13.8056818  52.7735425  30.1452055  13.2965027  51.4305910  29.6665635
   8.2088442  57.3584639  28.5025822   8.0941957  56.4569896  28.8032921
   7.3532960  57.6048336  28.1510639  15.2880280  65.3002379  30.1013323
  14.8444134  64.5138758  29.7834227  15.9497494  65.4881530  29.4357214
  10.0467401  66.8298181  24.6274001  10.5974826  66.7015244  23.8550995
   9.2078877  67.1293070  24.2768894  17.3861518  65.5805179  28.1294724
  17.3679993  66.4014060  27.6374993  18.3081438  65.4559255  28.3544865
  13.8434572  63.0949309  28.9718233  14.3762909  62.3337597  28.7417541
  13.3148653  62.8022961  29.7142387  17.0104267  48.2009375  24.5011874
  16.6668537  49.0911016  24.4250985  17.3783230  48.0111032  23.6381459
  16.0900808  50.5714030  22.4661108  15.5865603  50.5344165  21.6528913
  16.3831414  51.4806773  22.5257764  21.9488824  60.9450341  14.9437483
  21.1718267  60.6061500  14.4992645  22.6280305  60.9502964  14.2692448
  15.2087285  62.2235301  16.4837045  14.6808647  61.4888061  16.1710282
  14.7074788  63.0009978  16.2377013  20.1880131  60.4184322  21.6004091
  19.5303805  61.1083583  21.6884220  20.9920530  60.8080754  21.9438077
  18.9985590  58.7728694  19.6508033  19.5117472  59.4058686  20.1529742
  19.6486814  58.1729890  19.2851393  16.2607964  68.7513019  12.4068704
  15.5869663  69.0544716  13.0153662  16.6473786  69.5542099  12.0574161
  15.4766421  56.2478150  21.8966373  14.5588982  56.4693097  21.7388061
  15.8926564  56.3224461  21.0378081  19.7647386  63.7534696  17.7787175
  19.3109713  62.9125606  17.8352366  19.1341353  64.3896094  18.1161955
  18.7080306  54.6826682  19.0087843  17.9703062  54.1704068  19.3398085
  18.9607079  54.2427064  18.1971120  18.2080325  65.5911193  18.7136993
  18.5003300  66.1516250  17.9949359  18.7178946  65.8839754  19.4690153
  13.0813013  57.7556727  20.1105803  13.1361622  56.8030563  20.0348280
  12.2704215  57.9116166  20.5947102  13.1713950  66.3691544  19.8030447
  13.1290129  66.5952390  18.8738979  14.0876649  66.1354918  19.9516248
  16.6179584  56.8375611  26.7011076  16.9728972  57.0647084  27.5605542
  17.2651715  57.1693988  26.0788331  22.3477321  59.9594047  17.4060405
  22.2095220  60.1495643  16.4781594  21.9913540  60.7213430  17.8628456
  10.5119447  53.9452142  23.4857417  11.1518827  53.8040901  22.7880380
   9.6796978  53.6586656  23.1096019  22.3746701  62.0270574  22.4171676
  22.8083207  61.9345863  23.2654730  23.0878281  62.0028075  21.7791692
  11.2879751  63.2454573  19.5992409  12.0820350  62.7504893  19.3974984
  10.5771444  62.7172436  19.2360115  16.1074596  65.6272668  23.9504777
  16.1611618  66.1963605  24.7182493  15.2389377  65.7974553  23.5858814
   8.9872989  55.3290224  25.4329228   9.6596042  55.1207587  24.7841877
   8.1602776  55.1312310  24.9934461  23.2362250  62.0694275  24.9504562
  23.4298140  62.9740085  25.1963837  23.1362869  61.6101694  25.7843147
  14.8898561  51.9552165  27.4494889  14.2426476  52.6542115  27.3559366
  15.6599576  52.3888309  27.8171137  18.2977359  62.2201018  30.5245442
  18.1462865  61.9911569  29.6075526  18.2882038  63.1771619  30.5376787
  15.0662695  59.7932930  25.5091709  15.9954755  59.9444090  25.3360676
  14.6453725  59.8816951  24.6540355  13.8651027  63.8183595  23.2790246
  13.7262113  63.4502379  24.1516185  13.0765623  64.3331234  23.1074204
  14.4599179  68.9192691  14.6215783  14.6350935  68.4480734  15.4361406
  13.7731967  69.5458457  14.8497044  15.4156242  63.1965197  20.6679084
  15.0806075  63.1565967  21.5636734  14.9160188  62.5309913  20.1949494
   9.3900486  58.6032827  26.1931665   9.2520284  57.8713066  26.7943204
  10.3005410  58.5141728  25.9115853  12.0182787  58.3152787  25.6815345
  12.7282406  57.6745979  25.6401963  11.9752095  58.5665682  26.6041526
  20.0069566  65.2520140  28.6021924  19.9482112  64.5679360  27.9352507
  20.4089084  65.9939130  28.1502550  10.7311721  55.3018005  27.5010985
  10.1949078  54.8508743  28.1532581  10.1428429  55.4363913  26.7581449
   9.0260264  72.0682054  21.3955643   9.2656863  72.7000578  22.0734662
   8.1829461  71.7170094  21.6821002  20.0086973  63.2159724  26.8335904
  19.1213752  62.8785646  26.9562303  20.5785524  62.4842755  27.0704669
   6.4650842  54.4374012  24.5863979   6.3809031  53.8299682  23.8514389
   5.6433549  54.9283031  24.5873475  13.5388126  67.8761176  23.7997147
  13.4658298  68.6816148  24.3116452  13.0965519  68.0753142  22.9745169
  13.3277906  67.1132946  17.3099969  12.5445428  67.6554627  17.4038193
  14.0270651  67.6306926  17.7094210  24.4904313  58.6267941  21.5952466
  24.4794190  59.5092657  21.2246399  23.6221693  58.2739492  21.4007003
  15.9986810  67.7748010  25.9555306  16.7114782  68.4095475  25.8831207
  15.5076838  67.8711876  25.1395308  17.7204337  61.6799263  17.5272597
  16.7860615  61.8000726  17.3577302  17.8981005  60.7771730  17.2632607
  21.1076888  57.5216582  18.0622632  21.5737340  58.3544574  17.9882934
  21.5584389  57.0561564  18.7667890  11.0498723  65.5242454  26.7760877
  11.7508183  66.1578937  26.9290271  10.5793838  65.8657185  26.0156516
  19.1753119  63.8660404  15.0608784  19.4512963  63.7516998  15.9702658
  18.3057618  63.4677889  15.0220957  19.0793551  49.8897169  22.1013533
  18.1656631  50.1201396  22.2695740  19.5086652  49.9735613  22.9527565
  18.8500009  58.0787061  24.6013427  18.1971460  58.3262969  23.9465880
  19.2280389  57.2651200  24.2675904  15.8107183  68.1146755  18.7041597
  15.9929578  67.2968410  19.1669350  16.6340169  68.3314447  18.2666487
  16.1449349  67.0414940  15.9656646  16.6737115  66.5307394  15.3526808
  16.4077568  66.7257470  16.8302179  14.8987582  58.8206872  31.0879464
  14.2228219  58.7201002  31.7581839  15.7215216  58.6646086  31.5515461
   6.6466441  65.0578809  23.7091979   7.2319878  64.3122497  23.8419884
   6.4491280  65.3682766  24.5928643   9.5005097  68.0930056  18.7254422
   8.8315472  68.5776184  18.2418462   9.3617966  68.3399277  19.6397800
  13.6410365  70.1273800  25.3237080  14.1928673  70.2905421  26.0886165
  13.9816559  70.7178238  24.6517105   8.6174858  52.4748950  25.9258965
   8.6816185  53.3363781  25.5136362   8.5541979  51.8622951  25.1931323
   8.0927131  54.5472082  29.5731999   8.7199170  54.1649160  30.1869523
   7.2355050  54.3286284  29.9387692  18.4921240  64.9535057  31.1785734
  19.0361144  65.5665016  30.6840689  17.9108084  65.5114636  31.6952747
  16.7778753  68.0755775  22.3100762  16.6529892  67.2745515  21.8011708
  17.4357844  68.5701969  21.8214732  18.8413661  65.8764795  23.9380312
  17.8943996  65.7570147  23.8658639  19.1896434  64.9887293  24.0206574
  11.2013234  51.7658934  27.7618554  11.7247636  52.0121231  28.5244864
  10.9825568  52.5978969  27.3421692  15.8460094  65.6717512  20.1384665
  15.6985057  64.7434219  20.3192235  16.6713588  65.6937602  19.6541740
  19.4494216  66.4946070  21.2249537  20.3740764  66.2888932  21.0873988
  19.2809519  66.2462472  22.1338879  12.4065779  52.7072629  25.4468225
  12.0662600  51.9080443  25.8488905  11.7004786  53.0074340  24.8745058
  13.0582251  49.7921942  23.8995548  13.8808320  49.3182420  23.7774438
  13.3020315  50.5712426  24.3994234  10.5820830  56.4841063  21.7087526
  10.4365411  56.7981366  22.6011808  10.1046034  57.1025963  21.1558425
  14.2943344  53.9080951  23.8021543  14.0361121  54.8298021  23.8005874
  13.7628384  53.5111385  24.4922007  19.2389532  67.0131738  16.5811629
  19.4126410  66.4478160  15.8285481  19.7318424  67.8132633  16.3991119
   5.0566492  59.0246407  24.6475188   4.5119960  59.8006215  24.7795462
   5.9345842  59.3717211  24.4894309  25.0928923  59.7768161  18.2001928
  25.5360069  59.0275486  17.8021052  24.2155434  59.7678297  17.8175660
  20.2264705  66.3298502  13.6808527  20.9215609  66.9505195  13.8995842
  20.5687855  65.4793853  13.9560905   5.8432514  58.1516303  27.5405344
   5.1014250  58.2998939  28.1269975   5.5225258  58.4124569  26.6772094
  22.1256128  63.7798208  15.2095858  22.6507452  64.1185481  14.4845178
  22.0378480  62.8445223  15.0258992  13.7876177  67.6932281  27.3385734
  14.0963303  67.4481428  28.2108434  14.5851659  67.8978920  26.8504605
  13.8096789  69.8470191  19.5691111  13.3701779  69.3546570  20.2623968
  14.5604906  69.3043159  19.3283186   6.2889128  66.0381732  19.5715739
   7.1147148  65.7385504  19.1914383   5.9383180  65.2689354  20.0205528
  11.2570661  65.3908200  21.6413413  10.6350670  64.7278905  21.3415641
  11.9275528  65.4169332  20.9587060   4.4897733  63.9568058  20.5304673
   3.6529641  63.5290233  20.3488674   4.4621378  64.1500502  21.4675464
  11.3295188  53.8689988  31.2345919  11.3783344  54.7452111  30.8523688
  11.8717702  53.3267381  30.6617562  21.8150034  64.4131111  30.5147056
  21.0245578  64.3955250  29.9751555  21.5783389  64.9519405  31.2696092
  21.9347909  61.2623578  27.8279784  21.9845914  61.0973585  28.7695307
  21.8261832  60.3950837  27.4377665  19.2251671  57.2454506  29.1439091
  20.1261534  57.1060971  28.8523089  19.2999646  57.4108961  30.0837268
  13.5594477  54.6221361  27.9892277  12.6897786  54.9154927  27.7174866
  13.7953957  55.2061806  28.7099541  23.4366106  63.6820519  28.0721806
  23.1450914  64.0450500  28.9085267  22.8238237  62.9687528  27.8935138
  24.6361788  61.2473399  20.5924376  25.4708680  61.6863203  20.7561936
  24.7720917  60.7712052  19.7732622  21.6853294  58.8053134  26.5401864
  22.1607416  58.9980780  25.7320715  20.7618859  58.8612320  26.2945247
  16.2633511  50.8400978  25.5057698  16.7815454  51.5762004  25.1804186
  15.9088643  51.1464971  26.3404457  20.3854963  55.6818894  24.7730169
  21.3372386  55.7816992  24.7942393  20.2158413  54.8897163  25.2828254
  18.4069343  52.7674477  24.9589570  17.8119275  53.0479490  24.2636059
  18.1219039  53.2568378  25.7306311  17.5376833  66.7197404  13.7192203
  18.4707506  66.6542966  13.9225078  17.4500046  67.5553671  13.2606736
  22.8643041  58.9025014  23.8872469  22.8319361  57.9641014  24.0732153
  23.4743665  58.9809050  23.1538294  23.0137529  55.6936057  23.9330752
  22.4976578  54.9094514  23.7460681  23.8977478  55.3654774  24.0977272
  28.6819591  59.9641021  23.0278506  29.4122979  59.7026309  23.5886209
  28.0726536  59.2269743  23.0680574  26.7634888  58.1048883  23.6252957
  26.0368051  57.9704848  23.0169449  26.3482175  58.4125712  24.4309675
  14.5865064  61.8238813  31.3900330  15.5068074  62.0017412  31.5840377
  14.5514647  60.8794858  31.2380029   7.5827137  59.7339847  24.0323111
   7.8013147  60.6656955  24.0511145   7.9952911  59.3747822  24.8177915
  12.4555002  55.3073053  33.4225860  12.3551729  56.2567410  33.3537951
  12.2376544  54.9791292  32.5501930   3.6735489  60.6380318  22.2846726
   2.9798961  60.2234271  21.7716681   4.4208480  60.6800854  21.6880145
  12.3186272  58.7370192  32.2390922  11.8353354  59.5370552  32.4454811
  12.4047211  58.7478137  31.2858366   8.2459610  62.6274727  24.2759356
   9.2002863  62.5958669  24.2089287   8.0472133  62.1665351  25.0909582
   8.8358992  61.1975843  26.8430153   9.6551881  61.6919922  26.8664991
   9.1095799  60.2807811  26.8147721  21.9440124  53.6133116  19.9212448
  22.7200514  54.1029569  20.1937065  21.2188258  54.0391170  20.3784318
  24.3812683  54.3260735  20.9786389  24.9757174  54.0856471  20.2679697
  24.4539266  53.6067866  21.6059925   6.6009838  68.1694346  21.2929553
   6.4664306  67.4094747  20.7267552   6.1841901  68.8935246  20.8258342
  18.5666612  59.1041131  16.4208399  18.5101813  59.5609683  15.5816031
  19.1194954  58.3431816  16.2431242  22.3771418  54.8930863  17.2458518
  22.1208352  54.4927499  18.0766726  21.7524286  55.6074657  17.1208658
  26.6883756  57.6326936  19.7529810  26.1283313  57.7020126  20.5261372
  26.0827259  57.4567921  19.0329306   9.7578964  69.0663663  21.5047996
   9.6411348  70.0109096  21.4026686   8.9371411  68.7637225  21.8933795
  19.6455499  63.7913799  12.3504589  20.4801103  63.3594997  12.1682064
  19.4839842  63.6195813  13.2781483   4.0893906  55.5313977  27.5422350
   4.7352770  55.0212931  28.0309576   3.8811057  56.2682658  28.1165776
  16.6147298  62.5994824  33.0414491  17.4838458  62.7735476  32.6801126
  16.1354050  63.4189241  32.9190220  10.7833478  69.7191925  24.7203925
  11.6860725  69.7515535  25.0370420  10.5570849  68.7892376  24.7350260
  12.5387080  68.4722912  21.3814003  11.5882711  68.4724773  21.2678375
  12.8419567  67.7255646  20.8650038   8.4291397  52.6781594  31.6397365
   9.2922859  52.3218399  31.8500689   7.8556808  52.3395489  32.3272769
  28.2739774  74.3083450  22.4459766  28.9118184  74.1890197  21.7423106
  28.1560617  75.2564294  22.5047718  25.0829480  74.2610878  22.3821290
  24.7447992  74.1451943  21.4941825  25.9519248  73.8602043  22.3622296
  20.9416296  76.1146355  18.3718181  20.3781161  76.0236292  17.6034469
  20.8268691  75.2946259  18.8520674  25.5649263  75.4145730  28.3407496
  25.5537904  75.0198528  27.4687999  25.7269903  74.6811803  28.9341267
  18.4880728  77.6097546  21.2102402  19.2802020  77.2688371  20.7948701
  18.7277378  77.7192521  22.1304555  26.5215855  79.7817322  13.6832646
  25.8703834  80.3671403  13.2966660  27.3160217  80.3123517  13.7427684
  20.4471482  76.8706459  14.0819780  21.2202358  76.3235447  13.9432656
  20.7996881  77.7350709  14.2934242  22.2856524  78.1982842  27.2886680
  21.9946390  79.1028473  27.1733346  22.9213509  78.2399369  28.0030749
  23.2112731  75.5759690  23.8788039  23.8076303  75.3515713  23.1645002
  23.2687703  74.8344436  24.4813487  22.7837760  73.0299126  11.7138230
  23.0363280  72.5080647  10.9521693  21.8462319  72.8665271  11.8164914
  27.8281042  72.0334904  19.5212974  28.6144132  71.6154327  19.1703391
  28.0919747  72.9380996  19.6894622  27.9991120  77.4707754  14.2201630
  27.3636953  77.5442381  14.9322535  27.6688526  78.0601353  13.5420710
  33.2289470  71.9710137  20.4245952  33.9614642  71.4009354  20.6583782
  32.4728825  71.5831738  20.8652458  22.5034048  74.9327232  13.9162605
  22.3870306  74.2572135  14.5843690  22.6136308  74.4459606  13.0994758
  24.8465589  74.3937379  17.6209295  24.4823797  73.8668000  18.3322216
  25.7032705  74.0035848  17.4475780  30.7514890  65.6831711  24.8840561
  30.4198215  66.5527122  24.6601776  30.1560503  65.3667995  25.5634591
  24.4871076  69.4227278  12.6170643  24.6545479  70.2907515  12.9841114
  24.2968245  69.5854560  11.6931932  27.2446409  77.8844257  24.2836473
  26.9447133  78.7869296  24.1752281  26.8997469  77.6176440  25.1357626
  20.6958891  74.3358054  20.3173178  19.7709387  74.2034268  20.5250870
  20.9443304  75.1152273  20.8143120  30.6443553  70.4026797  21.9633911
  29.7360431  70.3342206  21.6692672  30.5931149  70.8798742  22.7915736
  24.4660297  71.8784936  13.6017310  24.3459922  72.3241987  14.4402790
  23.7712886  72.2270254  13.0430848  18.0567702  73.9791328  21.1516967
  18.1860083  74.2325807  22.0656379  17.3765153  74.5719036  20.8321622
  22.2267189  84.6488578  17.2507441  22.1491219  85.5996403  17.3295922
  21.6228833  84.3034450  17.9082367  24.7184419  71.8216443  29.9068808
  23.9417753  72.3810363  29.8971673  25.3574982  72.3073226  30.4283678
  32.5105200  68.6043236  23.7411785  31.8679580  68.8975769  23.0951579
  32.0060128  68.4896156  24.5464981  30.1645363  72.3506409  14.4297644
  31.0763219  72.5833796  14.2545342  29.6555010  72.9343453  13.8672723
  22.9730791  74.6301896  29.4686775  23.7145476  75.1686940  29.1921599
  22.2667777  75.2568185  29.6258327  28.4486131  76.7731037  28.0658937
  28.8569487  76.3313447  27.3213569  27.7263392  76.1983664  28.3193129
  24.8017201  71.7103644  25.4392493  25.6478396  72.1343057  25.5827142
  24.7415839  71.0537268  26.1331057  28.7714946  77.3332227  21.8211225
  28.1423808  77.4977942  21.1187293  28.3840608  77.7473837  22.5922189
  32.6504178  78.2686665  19.1755589  31.9655216  78.6485567  18.6252622
  32.7348027  78.8781992  19.9087537  27.9516646  69.3708012  27.0973667
  27.7077578  70.1250073  26.5607943  28.2276577  69.7493360  27.9320914
  29.9055109  75.9146624  25.7750933  30.1172004  76.5578384  25.0985314
  29.8584857  75.0808941  25.3072863  27.5081338  68.5264445  22.6787505
  26.6465817  68.8245699  22.9704242  27.5343773  68.7434844  21.7468537
  24.3242907  77.0706636  19.0861311  24.7881253  77.3494339  18.2965933
  24.0599706  76.1690080  18.9034401  21.2166989  76.6178117  22.0241074
  21.7868346  77.0465386  21.3858558  21.8075100  76.3360702  22.7225259
  23.2611794  73.1929788  15.8950876  23.9635837  73.6450832  16.3624802
  22.9292422  72.5513607  16.5230769  21.7092155  71.7841545  30.2702085
  21.0790816  72.4657825  30.5037482  21.6028243  71.6724626  29.3255223
  17.0037128  71.4513341  21.1968009  16.2136181  71.7070869  20.7208120
  17.4948375  72.2661678  21.3020050  31.0200937  78.7918580  23.9473290
  31.8418381  78.3898767  23.6655972  31.0163340  78.6886814  24.8989406
  18.9551873  71.8157920  18.1551486  18.1583036  71.9276614  18.6734982
  18.7277465  72.1544572  17.2892376  24.7857541  78.3402623  26.1034001
  24.8501973  78.8023030  26.9392172  24.0768464  77.7099988  26.2316310
  15.2874830  71.7043831  23.6283000  15.5382869  72.5890841  23.8940576
  15.8234379  71.5248433  22.8558092  39.1106930  75.1357328  20.2958262
  38.3570639  74.5664726  20.1402266  39.2454471  75.1019993  21.2428896
  24.5005558  80.0070731  15.9712981  24.3651233  80.8522266  16.3997829
  25.0415371  80.2090008  15.2078915  20.9872898  66.0862310  32.6327336
  20.5939843  65.5328509  33.3074980  21.8039038  66.3972889  33.0233854
  17.9534956  77.5246169  16.5440906  18.4659476  78.3189419  16.6946471
  18.6057668  76.8272459  16.4774507  19.7629840  80.6411925  18.6263659
  19.9396469  81.5629890  18.4384643  20.5586674  80.3270344  19.0558039
  23.9040859  67.5020190  30.2247593  24.6450572  68.1027343  30.1452055
  24.1358782  66.7597827  29.6665635  19.0482197  72.6876557  28.5025822
  18.9335712  71.7861814  28.8032921  18.1926715  72.9340254  28.1510639
  26.1274035  80.6294297  30.1013323  25.6837889  79.8430676  29.7834227
  26.7891248  80.8173448  29.4357214  20.8861156  82.1590099  24.6274001
  21.4368581  82.0307162  23.8550995  20.0472632  82.4584988  24.2768894
  28.2255273  80.9097097  28.1294724  28.2073748  81.7305978  27.6374993
  29.1475193  80.7851172  28.3544865  24.6828327  78.4241227  28.9718233
  25.2156664  77.6629515  28.7417541  24.1542408  78.1314878  29.7142387
  27.8498022  63.5301292  24.5011874  27.5062291  64.4202934  24.4250985
  28.2176984  63.3402950  23.6381459  15.9183872  75.8534823  17.3200477
  16.7559094  76.2631831  17.1034184  16.0962140  74.9134265  17.2900670
  27.8148304  73.5209904  13.0084309  27.2994928  74.2914508  13.2472697
  27.5425613  72.8475040  13.6317371  25.3995415  68.3659604  18.0669548
  24.5437012  67.9766455  17.8875187  25.8122367  68.4451565  17.2069333
  26.9294562  65.9005948  22.4661108  26.4259358  65.8636083  21.6528913
  27.2225169  66.8098690  22.5257764  23.1737448  65.9844677  21.4727289
  24.0390445  65.7887486  21.1133179  23.2414957  65.7555029  22.3996646
  32.7882579  76.2742258  14.9437483  32.0112021  75.9353418  14.4992645
  33.4674060  76.2794881  14.2692448  27.6034608  71.3936996  14.8344091
  27.2984743  71.7083145  15.6854234  28.5565050  71.4718416  14.8771424
  26.0481039  77.5527219  16.4837045  25.5202401  76.8179979  16.1710282
  25.5468542  78.3301895  16.2377013  31.0273885  75.7476239  21.6004091
  30.3697560  76.4375501  21.6884220  31.8314285  76.1372671  21.9438077
  20.7799767  68.2146885  18.8443656  21.3543519  67.9922067  18.1116849
  21.3670750  68.2835580  19.5972257  29.8379344  74.1020612  19.6508033
  30.3511226  74.7350604  20.1529742  30.4880568  73.5021808  19.2851393
  21.1069354  70.2451346  12.8639541  20.2706666  70.5826033  13.1848816
  20.9674124  70.1100326  11.9266678  23.0822435  65.0888134  17.5718726
  22.4286847  64.7737151  16.9475340  23.0402909  64.4663875  18.2978549
  24.1933640  75.3707429   9.4872018  23.2860701  75.1396683   9.6863167
  24.6904672  74.5745048   9.6745999  27.1001719  84.0804936  12.4068704
  26.4263417  84.3836633  13.0153662  27.4867541  84.8834017  12.0574161
  26.3160175  71.5770068  21.8966373  25.3982737  71.7985015  21.7388061
  26.7320319  71.6516378  21.0378081  27.0995223  72.9761483  17.0269053
  27.8467042  73.4882881  16.7176176  27.3686812  72.6545536  17.8873447
  25.3721873  75.4720024  14.0096008  24.4633092  75.1879057  14.1068477
  25.4016957  75.8919103  13.1499315  30.6041141  79.0826614  17.7787175
  30.1503468  78.2417523  17.8352366  29.9735107  79.7188012  18.1161955
  29.5474060  70.0118600  19.0087843  28.8096817  69.4995986  19.3398085
  29.8000834  69.5718981  18.1971120  29.0474080  80.9203110  18.7136993
  29.3397054  81.4808167  17.9949359  29.5572700  81.2131671  19.4690153
  29.6485687  62.7894852  19.6029612  29.9544564  61.9292215  19.3155527
  30.3738292  63.3812472  19.4028606  15.9410043  73.1925538  17.9911210
  15.7434443  72.5994899  17.2662277  15.3856707  72.8877748  18.7087149
  23.9206767  73.0848645  20.1105803  23.9755377  72.1322481  20.0348280
  23.1097969  73.2408084  20.5947102  25.0697961  77.0128768  11.3484086
  24.6317391  76.2964627  10.8889724  25.8108402  77.2404883  10.7869178
  21.8599127  71.7025704  17.8696182  21.0466993  72.0019875  18.2761374
  22.3558121  71.3081393  18.5870664  24.0107705  81.6983461  19.8030447
  23.9683884  81.9244308  18.8738979  24.9270404  81.4646836  19.9516248
  27.4573339  72.1667529  26.7011076  27.8122726  72.3939002  27.5605542
  28.1045470  72.4985906  26.0788331  33.1871076  75.2885965  17.4060405
  33.0488974  75.4787561  16.4781594  32.8307294  76.0505348  17.8628456
  21.3513202  69.2744060  23.4857417  21.9912581  69.1332819  22.7880380
  20.5190732  68.9878573  23.1096019  33.2140455  77.3562492  22.4171676
  33.6476962  77.2637781  23.2654730  33.9272036  77.3319992  21.7791692
  22.1273506  78.5746490  19.5992409  22.9214104  78.0796811  19.3974984
  21.4165198  78.0464354  19.2360115  26.9468350  80.9564586  23.9504777
  27.0005372  81.5255522  24.7182493  26.0783132  81.1266471  23.5858814
  18.4356269  72.7189572  15.6752162  17.5053857  72.6574028  15.8922124
  18.5313741  72.1965525  14.8788803  18.3541818  69.2444385  18.2630404
  18.6148636  70.1589718  18.1539564  19.1758991  68.7768828  18.4127017
  19.8266744  70.6582142  25.4329228  20.4989797  70.4499504  24.7841877
  18.9996530  70.4604228  24.9934461  34.0756005  77.3986192  24.9504562
  34.2691895  78.3032003  25.1963837  33.9756623  76.9393612  25.7843147
  25.7292316  67.2844083  27.4494889  25.0820231  67.9834033  27.3559366
  26.4993331  67.7180227  27.8171137  29.1371114  77.5492935  30.5245442
  28.9856620  77.3203487  29.6075526  29.1275793  78.5063537  30.5376787
  25.9056450  75.1224848  25.5091709  26.8348510  75.2736008  25.3360676
  25.4847480  75.2108869  24.6540355  24.7044782  79.1475512  23.2790246
  24.5655867  78.7794297  24.1516185  23.9159378  79.6623152  23.1074204
  25.2992934  84.2484609  14.6215783  25.4744689  83.7772652  15.4361406
  24.6125722  84.8750375  14.8497044  26.2549997  78.5257115  20.6679084
  25.9199829  78.4857885  21.5636734  25.7553943  77.8601831  20.1949494
  20.2294241  73.9324745  26.1931665  20.0914039  73.2004984  26.7943204
  21.1399164  73.8433645  25.9115853  29.1909189  75.8713149  10.9416144
  28.5738359  75.1459978  10.8449197  28.7225677  76.6322510  10.5983218
  22.8576541  73.6444704  25.6815345  23.5676160  73.0037897  25.6401963
  22.8145850  73.8957599  26.6041526  30.8463320  80.5812058  28.6021924
  30.7875866  79.8971278  27.9352507  31.2482839  81.3231048  28.1502550
  21.5705475  70.6309922  27.5010985  21.0342832  70.1800661  28.1532581
  20.9822184  70.7655831  26.7581449  19.8654019  87.3973972  21.3955643
  20.1050617  88.0292496  22.0734662  19.0223215  87.0462012  21.6821002
  20.9807734  70.0898574  10.0637448  20.1037201  69.9687375   9.6999695
  21.4565487  69.2984652   9.8116337  30.8480727  78.5451642  26.8335904
  29.9607506  78.2077564  26.9562303  31.4179278  77.8134673  27.0704669
  12.5009875  74.8775733  20.1578955  13.1880914  74.5637463  19.5699971
  12.3458003  75.7817098  19.8846207  17.3044597  69.7665930  24.5863979
  17.2202785  69.1591600  23.8514389  16.4827303  70.2574948  24.5873475
  24.3781881  83.2053094  23.7997147  24.3052052  84.0108066  24.3116452
  23.9359274  83.4045060  22.9745169  24.1671660  82.4424864  17.3099969
  23.3839182  82.9846544  17.4038193  24.8664406  82.9598844  17.7094210
  27.4768311  68.2519494  19.9534174  27.9737010  67.4989456  19.6335244
  26.7055292  68.2883810  19.3877383  35.3298068  73.9559859  21.5952466
  35.3187944  74.8384575  21.2246399  34.4615447  73.6031410  21.4007003
  26.8380564  83.1039928  25.9555306  27.5508537  83.7387393  25.8831207
  26.3470593  83.2003794  25.1395308  28.5598091  77.0091181  17.5272597
  27.6254370  77.1292643  17.3577302  28.7374760  76.1063648  17.2632607
  24.0603279  70.3936877  19.6805859  23.6901067  69.8407917  20.3686764
  24.5562372  69.7895010  19.1280859  31.9470643  72.8508500  18.0622632
  32.4131095  73.6836492  17.9882934  32.3978143  72.3853482  18.7667890
  21.8892478  80.8534372  26.7760877  22.5901937  81.4870855  26.9290271
  21.4187593  81.1949103  26.0156516  30.0146874  79.1952321  15.0608784
  30.2906718  79.0808916  15.9702658  29.1451372  78.7969806  15.0220957
  29.9187305  65.2189087  22.1013533  29.0050385  65.4493314  22.2695740
  30.3480407  65.3027531  22.9527565  29.6893764  73.4078979  24.6013427
  29.0365214  73.6554886  23.9465880  30.0674144  72.5943117  24.2675904
  26.6500938  83.4438672  18.7041597  26.8323332  82.6260328  19.1669350
  27.4733924  83.6606364  18.2666487  26.9843103  82.3706857  15.9656646
  27.5130870  81.8599312  15.3526808  27.2471323  82.0549388  16.8302179
  25.7381337  74.1498790  31.0879464  25.0621974  74.0492919  31.7581839
  26.5608971  73.9938004  31.5515461  17.4860196  80.3870727  23.7091979
  18.0713633  79.6414415  23.8419884  17.2885034  80.6974683  24.5928643
  20.3398851  83.4221974  18.7254422  19.6709226  83.9068102  18.2418462
  20.2011721  83.6691194  19.6397800  12.0777851  72.9576327  22.4296422
  12.1161950  72.4239918  23.2233541  11.5718144  72.4311532  21.8107400
  24.4804120  85.4565718  25.3237080  25.0322428  85.6197339  26.0886165
  24.8210313  86.0470155  24.6517105  19.4568613  67.8040867  25.9258965
  19.5209939  68.6655698  25.5136362  19.3935733  67.1914869  25.1931323
  18.9320886  69.8764000  29.5731999  19.5592924  69.4941077  30.1869523
  18.0748804  69.6578202  29.9387692  29.3314994  80.2826975  31.1785734
  29.8754898  80.8956933  30.6840689  28.7501839  80.8406553  31.6952747
  15.7086428  71.6840429  15.5050354  16.0039869  70.7751107  15.4517408
  14.8074464  71.6628168  15.1831356  27.6172507  83.4047693  22.3100762
  27.4923646  82.6037433  21.8011708  28.2751598  83.8993886  21.8214732
  19.2380675  69.7596426  21.4877902  18.5167261  70.3732393  21.3485376
  20.0273931  70.2954190  21.4094548  29.6807415  81.2056713  23.9380312
  28.7337751  81.0862064  23.8658639  30.0290189  80.3179211  24.0206574
  22.0406989  67.0950852  27.7618554  22.5641391  67.3413149  28.5244864
  21.8219322  67.9270887  27.3421692  17.4374270  69.3654527  15.6289679
  17.1086976  68.4851906  15.4464785  17.7913641  69.3102195  16.5166068
  26.6853849  81.0009429  20.1384665  26.5378811  80.0726137  20.3192235
  27.5107342  81.0229520  19.6541740  20.5516093  69.6527496  15.9965157
  20.8912166  70.1813418  15.2743765  20.9988213  69.9907903  16.7723723
  30.2887971  81.8237988  21.2249537  31.2134518  81.6180849  21.0873988
  30.1203274  81.5754389  22.1338879  23.2459534  68.0364547  25.4468225
  22.9056354  67.2372360  25.8488905  22.5398540  68.3366258  24.8745058
  23.8976006  65.1213860  23.8995548  24.7202075  64.6474338  23.7774438
  24.1414069  65.9004343  24.3994234  22.5384240  68.1502118  14.1958449
  23.2592603  68.5283371  13.6922166  21.9149544  68.8690995  14.2993427
  26.6815363  68.8547267  15.1316782  26.8978977  69.7371905  14.8305610
  26.2009430  68.4633480  14.4022424  21.4214584  71.8132980  21.7087526
  21.2759165  72.1273283  22.6011808  20.9439788  72.4317881  21.1558425
  23.2810967  68.8035528  21.7568416  23.2672536  67.9076622  21.4200714
  23.9983395  68.8106192  22.3906702  25.1337098  69.2372868  23.8021543
  24.8754876  70.1589939  23.8005874  24.6022138  68.8403303  24.4922007
  30.0783287  82.3423656  16.5811629  30.2520164  81.7770078  15.8285481
  30.5712178  83.1424550  16.3991119  15.8960247  74.3538325  24.6475188
  15.3513715  75.1298133  24.7795462  16.7739596  74.7009129  24.4894309
  22.6847863  67.6849908  17.0255986  22.8063774  66.7566555  17.2246874
  22.3949906  67.6988594  16.1134301  25.5539054  65.3704819  20.1622706
  25.5760750  65.4344152  19.2074685  25.9707113  64.5309328  20.3563212
  35.9322678  75.1060078  18.2001928  36.3753824  74.3567404  17.8021052
  35.0549188  75.0970215  17.8175660  31.0658459  81.6590420  13.6808527
  31.7609364  82.2797113  13.8995842  31.4081609  80.8085771  13.9560905
  16.6826268  73.4808221  27.5405344  15.9408004  73.6290856  28.1269975
  16.3619013  73.7416486  26.6772094  32.9649882  79.1090125  15.2095858
  33.4901206  79.4477398  14.4845178  32.8772235  78.1737141  15.0258992
  24.6269931  83.0224199  27.3385734  24.9357058  82.7773346  28.2108434
  25.4245413  83.2270838  26.8504605  24.6490543  85.1762109  19.5691111
  24.2095533  84.6838487  20.2623968  25.3998660  84.6335076  19.3283186
  17.1282882  81.3673650  19.5715739  17.9540902  81.0677421  19.1914383
  16.7776934  80.5981272  20.0205528  22.0964415  80.7200118  21.6413413
  21.4744425  80.0570823  21.3415641  22.7669282  80.7461250  20.9587060
  15.3291487  79.2859976  20.5304673  14.4923395  78.8582150  20.3488674
  15.3015133  79.4792419  21.4675464  22.1688943  69.1981906  31.2345919
  22.2177098  70.0744029  30.8523688  22.7111457  68.6559299  30.6617562
  32.6543788  79.7423029  30.5147056  31.8639332  79.7247168  29.9751555
  32.4177143  80.2811323  31.2696092  32.7741663  76.5915495  27.8279784
  32.8239668  76.4265503  28.7695307  32.6655587  75.7242755  27.4377665
  21.6577922  79.2704041  15.1171873  21.8066043  79.9539506  14.4638546
  22.4644366  79.2509131  15.6321329  30.0645426  72.5746424  29.1439091
  30.9655289  72.4352888  28.8523089  30.1393400  72.7400878  30.0837268
  24.3988231  69.9513278  27.9892277  23.5291541  70.2446844  27.7174866
  24.6347712  70.5353723  28.7099541  34.2759860  79.0112437  28.0721806
  33.9844669  79.3742418  28.9085267  33.6631992  78.2979445  27.8935138
  35.4755543  76.5765317  20.5924376  36.3102434  77.0155121  20.7561936
  35.6114671  76.1003970  19.7732622  32.5247049  74.1345052  26.5401864
  33.0001170  74.3272698  25.7320715  31.6012614  74.1904237  26.2945247
  19.4130555  75.2969219  16.1232942  19.1676597  74.3931549  16.3213152
  19.5826470  75.2986369  15.1812420  27.1027265  66.1692895  25.5057698
  27.6209209  66.9053922  25.1804186  26.7482398  66.4756888  26.3404457
  18.6826203  71.0297576  13.6219104  17.9895448  71.1041931  12.9659140
  18.4377955  70.2657920  14.1440620  27.3539859  62.5893178  21.0258594
  27.6341613  61.9216367  21.6519021  28.1390466  62.7822273  20.5133258
  25.1573328  81.7652172  12.5883621  24.5847295  82.3842359  12.1354092
  25.7306121  82.3151533  13.1223543  31.2248718  71.0110812  24.7730169
  32.1766140  71.1108909  24.7942393  31.0552168  70.2189080  25.2828254
  29.2463097  68.0966395  24.9589570  28.6513029  68.3771408  24.2636059
  28.9612794  68.5860296  25.7306311  28.3770587  82.0489322  13.7192203
  29.3101261  81.9834883  13.9225078  28.2893800  82.8845589  13.2606736
  31.0058604  81.3655192  10.6796150  30.9272236  81.0315056  11.5731908
  31.8268271  81.8576960  10.6787623  33.7036795  74.2316931  23.8872469
  33.6713115  73.2932932  24.0732153  34.3137419  74.3100968  23.1538294
  25.5420126  73.1012984   9.9299673  26.4879231  72.9719192   9.9988091
  25.1634371  72.3627646  10.4069101  33.8531284  71.0227975  23.9330752
  33.3370332  70.2386431  23.7460681  34.7371232  70.6946691  24.0977272
  31.5142011  64.7668990  19.8926565  31.3166832  64.4584079  20.7769897
  32.1241716  65.4930629  20.0224495  39.5213345  75.2932938  23.0278506
  40.2516734  75.0318226  23.5886209  38.9120291  74.5561660  23.0680574
  37.6028642  73.4340801  23.6252957  36.8761806  73.2996766  23.0169449
  37.1875929  73.7417629  24.4309675  25.4258819  77.1530730  31.3900330
  26.3461828  77.3309330  31.5840377  25.3908402  76.2086776  31.2380029
  23.7263043  71.0262961   9.8654558  22.8194499  70.7296073   9.9417272
  24.0039024  70.7292779   8.9988845  14.6440984  72.3469324  20.3153605
  14.3243768  71.4934632  20.0227979  14.0974412  72.5617902  21.0711572
  18.4220891  75.0631765  24.0323111  18.6406901  75.9948873  24.0511145
  18.8346665  74.7039740  24.8177915  25.3425109  65.5699850  16.0198800
  24.5325837  65.2246935  16.3954046  26.0309526  65.2607394  16.6086411
  27.2715657  64.6477897  17.6423096  27.8246696  65.0673351  18.3013119
  27.5085744  63.7213645  17.6846052  23.2948757  70.6364971  33.4225860
  23.1945484  71.5859328  33.3537951  23.0770299  70.3083210  32.5501930
  22.4961828  67.8849896  10.0066538  23.3580992  68.2104794  10.2662355
  22.6812172  67.0981392   9.4939603  14.5129244  75.9672236  22.2846726
  13.8192715  75.5526188  21.7716681  15.2602235  76.0092772  21.6880145
  30.6494464  66.7578422  17.1501761  30.0693134  67.4163226  16.7679813
  30.3830397  65.9355767  16.7389178  29.0998031  66.1583480  19.3523081
  29.5997809  66.2700015  18.5437400  29.7433639  65.8544533  19.9923889
  23.1580027  74.0662110  32.2390922  22.6747108  74.8662470  32.4454811
  23.2440966  74.0770055  31.2858366  16.4265986  75.8990489  20.1612741
  16.4036674  75.9978177  19.2094624  16.7366623  76.7455640  20.4829907
  19.0853364  77.9566644  24.2759356  20.0396618  77.9250587  24.2089287
  18.8865888  77.4957268  25.0909582  19.6752746  76.5267761  26.8430153
  20.4945635  77.0211839  26.8664991  19.9489554  75.6099729  26.8147721
  29.4319342  68.9178513  16.2058109  28.5445198  69.2028163  15.9878304
  29.8473332  68.7572276  15.3585386  32.7833879  68.9425034  19.9212448
  33.5594269  69.4321486  20.1937065  32.0582013  69.3683088  20.3784318
  35.2206437  69.6552653  20.9786389  35.8150928  69.4148389  20.2679697
  35.2933021  68.9359784  21.6059925  17.4403593  83.4986264  21.2929553
  17.3058061  82.7386665  20.7267552  17.0235655  84.2227164  20.8258342
  28.5762556  78.6823187  10.3006129  29.2798406  78.8873190  10.9163784
  27.8525205  79.2499949  10.5655212  29.4060366  74.4333049  16.4208399
  29.3495568  74.8901600  15.5816031  29.9588709  73.6723733  16.2431242
  33.2165172  70.2222781  17.2458518  32.9602106  69.8219416  18.0766726
  32.5918040  70.9366575  17.1208658  37.5277510  72.9618854  19.7529810
  36.9677068  73.0312043  20.5261372  36.9221013  72.7859838  19.0329306
  20.5972719  84.3955581  21.5047996  20.4805103  85.3401013  21.4026686
  19.7765165  84.0929143  21.8933795  30.4849253  79.1205717  12.3504589
  31.3194857  78.6886915  12.1682064  30.3233596  78.9487730  13.2781483
  30.1395146  75.6237830  13.7160928  30.0843949  75.4582101  12.7749372
  29.5141201  76.3313863  13.8723118  14.9287661  70.8605894  27.5422350
  15.5746524  70.3504848  28.0309576  14.7204812  71.5974576  28.1165776
  27.4541053  77.9286742  33.0414491  28.3232212  78.1027394  32.6801126
  26.9747804  78.7481159  32.9190220  23.4491271  65.1245939  13.2946247
  23.4369941  66.0687779  13.4514517  24.3414693  64.9416084  13.0005708
  21.6227233  85.0483843  24.7203925  22.5254480  85.0807453  25.0370420
  21.3964603  84.1184294  24.7350260  23.3780835  83.8014829  21.3814003
  22.4276466  83.8016691  21.2678375  23.6813321  83.0547564  20.8650038
  27.2643390  61.7188716  17.5492183  26.4975786  61.1647202  17.6948866
  27.6754095  61.7910584  18.4106335  19.2685152  68.0073511  31.6397365
  20.1316613  67.6510316  31.8500689  18.6950562  67.6687406  32.3272769
  39.1133528  89.6375368  22.4459766  39.7511938  89.5182115  21.7423106
  38.9954371  90.5856212  22.5047718  35.9223235  89.5902796  22.3821290
  35.5841746  89.4743861  21.4941825  36.7913003  89.1893961  22.3622296
  31.7810050  91.4438272  18.3718181  31.2174916  91.3528209  17.6034469
  31.6662445  90.6238177  18.8520674  36.4043018  90.7437648  28.3407496
  36.3931658  90.3490446  27.4687999  36.5663657  90.0103720  28.9341267
  29.3274482  92.9389464  21.2102402  30.1195774  92.5980289  20.7948701
  29.5671133  93.0484439  22.1304555  37.3609609  95.1109240  13.6832646
  36.7097589  95.6963320  13.2966660  38.1553972  95.6415435  13.7427684
  31.2865236  92.1998377  14.0819780  32.0596112  91.6527364  13.9432656
  31.6390635  93.0642626  14.2934242  33.1250279  93.5274759  27.2886680
  32.8340145  94.4320390  27.1733346  33.7607263  93.5691287  28.0030749
  34.0506486  90.9051608  23.8788039  34.6470058  90.6807630  23.1645002
  34.1081457  90.1636353  24.4813487  33.6231514  88.3591043  11.7138230
  33.8757035  87.8372565  10.9521693  32.6856073  88.1957189  11.8164914
  38.6674797  87.3626822  19.5212974  39.4537886  86.9446245  19.1703391
  38.9313501  88.2672914  19.6894622  38.8384874  92.7999672  14.2201630
  38.2030707  92.8734298  14.9322535  38.5082281  93.3893271  13.5420710
  44.0683224  87.3002055  20.4245952  44.8008396  86.7301272  20.6583782
  43.3122580  86.9123655  20.8652458  33.3427803  90.2619149  13.9162605
  33.2264061  89.5864053  14.5843690  33.4530063  89.7751523  13.0994758
  35.6859344  89.7229296  17.6209295  35.3217551  89.1959917  18.3322216
  36.5426460  89.3327765  17.4475780  41.5908644  81.0123629  24.8840561
  41.2591969  81.8819040  24.6601776  40.9954258  80.6959913  25.5634591
  35.3264831  84.7519196  12.6170643  35.4939233  85.6199432  12.9841114
  35.1362000  84.9146478  11.6931932  38.0840164  93.2136175  24.2836473
  37.7840887  94.1161214  24.1752281  37.7391223  92.9468358  25.1357626
  31.5352645  89.6649972  20.3173178  30.6103142  89.5326186  20.5250870
  31.7837059  90.4444191  20.8143120  41.4837308  85.7318715  21.9633911
  40.5754185  85.6634124  21.6692672  41.4324904  86.2090660  22.7915736
  35.3054052  87.2076854  13.6017310  35.1853677  87.6533904  14.4402790
  34.6106640  87.5562171  13.0430848  28.8961456  89.3083245  21.1516967
  29.0253838  89.5617724  22.0656379  28.2158908  89.9010953  20.8321622
  33.0660944  99.9780495  17.2507441  32.9884973 100.9288320  17.3295922
  32.4622587  99.6326368  17.9082367  35.5578174  87.1508361  29.9068808
  34.7811508  87.7102281  29.8971673  36.1968737  87.6365144  30.4283678
  43.3498954  83.9335154  23.7411785  42.7073334  84.2267687  23.0951579
  42.8453883  83.8188074  24.5464981  41.0039118  87.6798327  14.4297644
  41.9156974  87.9125713  14.2545342  40.4948765  88.2635371  13.8672723
  33.8124546  89.9593814  29.4686775  34.5539230  90.4978858  29.1921599
  33.1061531  90.5860103  29.6258327  39.2879885  92.1022955  28.0658937
  39.6963241  91.6605365  27.3213569  38.5657147  91.5275582  28.3193129
  35.6410956  87.0395561  25.4392493  36.4872151  87.4634975  25.5827142
  35.5809593  86.3829186  26.1331057  39.6108700  92.6624145  21.8211225
  38.9817563  92.8269859  21.1187293  39.2234362  93.0765755  22.5922189
  43.4897932  93.5978583  19.1755589  42.8048970  93.9777484  18.6252622
  43.5741781  94.2073910  19.9087537  38.7910401  84.6999930  27.0973667
  38.5471333  85.4541990  26.5607943  39.0670331  85.0785277  27.9320914
  40.7448864  91.2438542  25.7750933  40.9565759  91.8870302  25.0985314
  40.6978612  90.4100859  25.3072863  38.3475093  83.8556363  22.6787505
  37.4859572  84.1537616  22.9704242  38.3737527  84.0726762  21.7468537
  35.1636662  92.3998553  19.0861311  35.6275008  92.6786256  18.2965933
  34.8993460  91.4981998  18.9034401  32.0560743  91.9470035  22.0241074
  32.6262100  92.3757303  21.3858558  32.6468855  91.6652620  22.7225259
  34.1005548  88.5221706  15.8950876  34.8029591  88.9742749  16.3624802
  33.7686177  87.8805524  16.5230769  32.5485910  87.1133462  30.2702085
  31.9184570  87.7949743  30.5037482  32.4421997  87.0016544  29.3255223
  27.8430882  86.7805258  21.1968009  27.0529936  87.0362787  20.7208120
  28.3342129  87.5953596  21.3020050  41.8594692  94.1210497  23.9473290
  42.6812135  93.7190685  23.6655972  41.8557094  94.0178732  24.8989406
  29.7945627  87.1449838  18.1551486  28.9976791  87.2568532  18.6734982
  29.5671220  87.4836490  17.2892376  35.6251295  93.6694541  26.1034001
  35.6895728  94.1314948  26.9392172  34.9162219  93.0391906  26.2316310
  26.1268585  87.0335749  23.6283000  26.3776623  87.9182759  23.8940576
  26.6628133  86.8540350  22.8558092  49.9500685  90.4649246  20.2958262
  49.1964393  89.8956644  20.1402266  50.0848226  90.4311910  21.2428896
  35.3399313  95.3362648  15.9712981  35.2044987  96.1814184  16.3997829
  35.8809125  95.5381926  15.2078915  31.8266652  81.4154228  32.6327336
  31.4333598  80.8620427  33.3074980  32.6432793  81.7264807  33.0233854
  28.7928710  92.8538086  16.5440906  29.3053231  93.6481337  16.6946471
  29.4451423  92.1564377  16.4774507  30.6023595  95.9703843  18.6263659
  30.7790223  96.8921807  18.4384643  31.3980428  95.6562262  19.0558039
  34.7434613  82.8312107  30.2247593  35.4844327  83.4319260  30.1452055
  34.9752536  82.0889745  29.6665635  29.8875951  88.0168474  28.5025822
  29.7729466  87.1153732  28.8032921  29.0320469  88.2632171  28.1510639
  36.9667789  95.9586215  30.1013323  36.5231643  95.1722593  29.7834227
  37.6285003  96.1465365  29.4357214  31.7254910  97.4882016  24.6274001
  32.2762335  97.3599080  23.8550995  30.8866386  97.7876905  24.2768894
  39.0649027  96.2389015  28.1294724  39.0467502  97.0597896  27.6374993
  39.9868947  96.1143090  28.3544865  35.5222081  93.7533144  28.9718233
  36.0550418  92.9921432  28.7417541  34.9936162  93.4606796  29.7142387
  38.6891776  78.8593210  24.5011874  38.3456046  79.7494852  24.4250985
  39.0570739  78.6694868  23.6381459  26.7577627  91.1826741  17.3200477
  27.5952849  91.5923749  17.1034184  26.9355895  90.2426183  17.2900670
  38.6542059  88.8501821  13.0084309  38.1388682  89.6206426  13.2472697
  38.3819367  88.1766957  13.6317371  36.2389170  83.6951522  18.0669548
  35.3830766  83.3058372  17.8875187  36.6516122  83.7743483  17.2069333
  37.7688317  81.2297865  22.4661108  37.2653112  81.1928000  21.6528913
  38.0618923  82.1390608  22.5257764  34.0131202  81.3136595  21.4727289
  34.8784199  81.1179404  21.1133179  34.0808711  81.0846947  22.3996646
  43.6276333  91.6034176  14.9437483  42.8505776  91.2645335  14.4992645
  44.3067814  91.6086799  14.2692448  38.4428362  86.7228913  14.8344091
  38.1378498  87.0375063  15.6854234  39.3958804  86.8010333  14.8771424
  36.8874794  92.8819137  16.4837045  36.3596156  92.1471896  16.1710282
  36.3862297  93.6593813  16.2377013  41.8667640  91.0768157  21.6004091
  41.2091314  91.7667419  21.6884220  42.6708039  91.4664589  21.9438077
  31.6193522  83.5438803  18.8443656  32.1937273  83.3213984  18.1116849
  32.2064504  83.6127497  19.5972257  40.6773099  89.4312530  19.6508033
  41.1904981  90.0642522  20.1529742  41.3274323  88.8313725  19.2851393
  31.9463109  85.5743264  12.8639541  31.1100421  85.9117951  13.1848816
  31.8067878  85.4392244  11.9266678  33.9216189  80.4180052  17.5718726
  33.2680602  80.1029069  16.9475340  33.8796663  79.7955792  18.2978549
  35.0327394  90.6999347   9.4872018  34.1254456  90.4688600   9.6863167
  35.5298426  89.9036966   9.6745999  37.9395473  99.4096854  12.4068704
  37.2657172  99.7128551  13.0153662  38.3261295 100.2125934  12.0574161
  37.1553930  86.9061985  21.8966373  36.2376491  87.1276932  21.7388061
  37.5714073  86.9808296  21.0378081  37.9388977  88.3053401  17.0269053
  38.6860796  88.8174798  16.7176176  38.2080567  87.9837454  17.8873447
  36.2115628  90.8011942  14.0096008  35.3026847  90.5170975  14.1068477
  36.2410711  91.2211020  13.1499315  41.4434895  94.4118531  17.7787175
  40.9897222  93.5709441  17.8352366  40.8128862  95.0479930  18.1161955
  40.3867815  85.3410517  19.0087843  39.6490571  84.8287904  19.3398085
  40.6394588  84.9010899  18.1971120  39.8867834  96.2495028  18.7136993
  40.1790809  96.8100085  17.9949359  40.3966455  96.5423589  19.4690153
  40.4879442  78.1186769  19.6029612  40.7938319  77.2584133  19.3155527
  41.2132047  78.7104390  19.4028606  26.7803798  88.5217456  17.9911210
  26.5828198  87.9286817  17.2662277  26.2250462  88.2169666  18.7087149
  34.7600522  88.4140562  20.1105803  34.8149131  87.4614399  20.0348280
  33.9491724  88.5700001  20.5947102  35.9091715  92.3420685  11.3484086
  35.4711145  91.6256544  10.8889724  36.6502156  92.5696800  10.7869178
  32.6992882  87.0317622  17.8696182  31.8860747  87.3311793  18.2761374
  33.1951876  86.6373311  18.5870664  34.8501459  97.0275379  19.8030447
  34.8077638  97.2536225  18.8738979  35.7664158  96.7938754  19.9516248
  38.2967093  87.4959447  26.7011076  38.6516481  87.7230920  27.5605542
  38.9439224  87.8277823  26.0788331  44.0264830  90.6177882  17.4060405
  43.8882729  90.8079478  16.4781594  43.6701049  91.3797265  17.8628456
  32.1906956  84.6035978  23.4857417  32.8306336  84.4624737  22.7880380
  31.3584487  84.3170491  23.1096019  44.0534210  92.6854409  22.4171676
  44.4870716  92.5929699  23.2654730  44.7665790  92.6611910  21.7791692
  32.9667260  93.9038408  19.5992409  33.7607859  93.4088728  19.3974984
  32.2558953  93.3756271  19.2360115  37.7862105  96.2856504  23.9504777
  37.8399127  96.8547440  24.7182493  36.9176886  96.4558389  23.5858814
  29.2750024  88.0481490  15.6752162  28.3447612  87.9865945  15.8922124
  29.3707496  87.5257443  14.8788803  29.1935573  84.5736303  18.2630404
  29.4542390  85.4881636  18.1539564  30.0152745  84.1060745  18.4127017
  30.6660498  85.9874060  25.4329228  31.3383551  85.7791422  24.7841877
  29.8390285  85.7896146  24.9934461  44.9149759  92.7278110  24.9504562
  45.1085649  93.6323921  25.1963837  44.8150377  92.2685529  25.7843147
  36.5686070  82.6136001  27.4494889  35.9213985  83.3125950  27.3559366
  37.3387085  83.0472145  27.8171137  39.9764868  92.8784853  30.5245442
  39.8250374  92.6495405  29.6075526  39.9669547  93.8355454  30.5376787
  36.7450204  90.4516766  25.5091709  37.6742264  90.6027925  25.3360676
  36.3241234  90.5400786  24.6540355  35.5438536  94.4767430  23.2790246
  35.4049622  94.1086214  24.1516185  34.7553132  94.9915069  23.1074204
  36.1386688  99.5776527  14.6215783  36.3138444  99.1064570  15.4361406
  35.4519476 100.2042293  14.8497044  37.0943751  93.8549033  20.6679084
  36.7593584  93.8149803  21.5636734  36.5947697  93.1893749  20.1949494
  31.0687995  89.2616663  26.1931665  30.9307793  88.5296902  26.7943204
  31.9792919  89.1725563  25.9115853  40.0302943  91.2005067  10.9416144
  39.4132114  90.4751895  10.8449197  39.5619431  91.9614427  10.5983218
  33.6970296  88.9736622  25.6815345  34.4069915  88.3329814  25.6401963
  33.6539604  89.2249517  26.6041526  41.6857075  95.9103975  28.6021924
  41.6269621  95.2263196  27.9352507  42.0876593  96.6522965  28.1502550
  32.4099230  85.9601840  27.5010985  31.8736587  85.5092578  28.1532581
  31.8215938  86.0947749  26.7581449  30.7047773 102.7265889  21.3955643
  30.9444372 103.3584413  22.0734662  29.8616970 102.3753929  21.6821002
  31.8201489  85.4190491  10.0637448  30.9430955  85.2979292   9.6999695
  32.2959242  84.6276570   9.8116337  41.6874482  93.8743559  26.8335904
  40.8001261  93.5369481  26.9562303  42.2573033  93.1426591  27.0704669
  23.3403629  90.2067651  20.1578955  24.0274669  89.8929381  19.5699971
  23.1851758  91.1109016  19.8846207  28.1438351  85.0957848  24.5863979
  28.0596540  84.4883517  23.8514389  27.3221058  85.5866866  24.5873475
  35.2175635  98.5345012  23.7997147  35.1445807  99.3399983  24.3116452
  34.7753028  98.7336978  22.9745169  35.0065415  97.7716782  17.3099969
  34.2232937  98.3138462  17.4038193  35.7058160  98.2890761  17.7094210
  38.3162065  83.5811411  19.9534174  38.8130765  82.8281374  19.6335244
  37.5449047  83.6175728  19.3877383  46.1691822  89.2851777  21.5952466
  46.1581699  90.1676492  21.2246399  45.3009202  88.9323328  21.4007003
  37.6774319  98.4331846  25.9555306  38.3902291  99.0679311  25.8831207
  37.1864347  98.5295712  25.1395308  39.3991846  92.3383098  17.5272597
  38.4648124  92.4584561  17.3577302  39.5768514  91.4355565  17.2632607
  34.8997034  85.7228794  19.6805859  34.5294821  85.1699835  20.3686764
  35.3956126  85.1186928  19.1280859  42.7864397  88.1800418  18.0622632
  43.2524849  89.0128409  17.9882934  43.2371898  87.7145399  18.7667890
  32.7286232  96.1826289  26.7760877  33.4295692  96.8162772  26.9290271
  32.2581347  96.5241021  26.0156516  40.8540628  94.5244239  15.0608784
  41.1300472  94.4100834  15.9702658  39.9845127  94.1261724  15.0220957
  40.7581060  80.5481005  22.1013533  39.8444140  80.7785232  22.2695740
  41.1874161  80.6319449  22.9527565  40.5287518  88.7370897  24.6013427
  39.8758969  88.9846804  23.9465880  40.9067898  87.9235035  24.2675904
  37.4894692  98.7730590  18.7041597  37.6717087  97.9552246  19.1669350
  38.3127678  98.9898282  18.2666487  37.8236858  97.6998775  15.9656646
  38.3524624  97.1891230  15.3526808  38.0865077  97.3841305  16.8302179
  36.5775091  89.4790708  31.0879464  35.9015728  89.3784837  31.7581839
  37.4002725  89.3229921  31.5515461  28.3253950  95.7162644  23.7091979
  28.9107387  94.9706332  23.8419884  28.1278789  96.0266601  24.5928643
  31.1792606  98.7513892  18.7254422  30.5102981  99.2360019  18.2418462
  31.0405475  98.9983112  19.6397800  22.9171605  88.2868244  22.4296422
  22.9555705  87.7531835  23.2233541  22.4111898  87.7603450  21.8107400
  35.3197874 100.7857635  25.3237080  35.8716182 100.9489257  26.0886165
  35.6604068 101.3762073  24.6517105  30.2962367  83.1332785  25.9258965
  30.3603694  83.9947616  25.5136362  30.2329488  82.5206787  25.1931323
  29.7714640  85.2055918  29.5731999  30.3986679  84.8232995  30.1869523
  28.9142559  84.9870119  29.9387692  40.1708749  95.6118893  31.1785734
  40.7148653  96.2248851  30.6840689  39.5895593  96.1698471  31.6952747
  26.5480183  87.0132347  15.5050354  26.8433624  86.1043025  15.4517408
  25.6468219  86.9920086  15.1831356  38.4566262  98.7339611  22.3100762
  38.3317401  97.9329351  21.8011708  39.1145353  99.2285804  21.8214732
  30.0774430  85.0888343  21.4877902  29.3561016  85.7024311  21.3485376
  30.8667686  85.6246108  21.4094548  40.5201170  96.5348631  23.9380312
  39.5731505  96.4153982  23.8658639  40.8683943  95.6471129  24.0206574
  32.8800743  82.4242770  27.7618554  33.4035145  82.6705066  28.5244864
  32.6613077  83.2562805  27.3421692  28.2768024  84.6946444  15.6289679
  27.9480730  83.8143823  15.4464785  28.6307395  84.6394113  16.5166068
  37.5247603  96.3301347  20.1384665  37.3772566  95.4018054  20.3192235
  38.3501097  96.3521438  19.6541740  31.3909847  84.9819414  15.9965157
  31.7305920  85.5105335  15.2743765  31.8381968  85.3199820  16.7723723
  41.1281725  97.1529906  21.2249537  42.0528273  96.9472767  21.0873988
  40.9597028  96.9046307  22.1338879  34.0853288  83.3656465  25.4468225
  33.7450109  82.5664278  25.8488905  33.3792295  83.6658176  24.8745058
  34.7369760  80.4505777  23.8995548  35.5595829  79.9766255  23.7774438
  34.9807824  81.2296261  24.3994234  33.3777995  83.4794036  14.1958449
  34.0986357  83.8575288  13.6922166  32.7543299  84.1982913  14.2993427
  37.5209118  84.1839185  15.1316782  37.7372732  85.0663823  14.8305610
  37.0403185  83.7925398  14.4022424  32.2608339  87.1424898  21.7087526
  32.1152920  87.4565201  22.6011808  31.7833543  87.7609798  21.1558425
  34.1204722  84.1327446  21.7568416  34.1066291  83.2368539  21.4200714
  34.8377150  84.1398110  22.3906702  35.9730852  84.5664786  23.8021543
  35.7148630  85.4881857  23.8005874  35.4415893  84.1695221  24.4922007
  40.9177041  97.6715573  16.5811629  41.0913919  97.1061996  15.8285481
  41.4105932  98.4716468  16.3991119  26.7354001  89.6830242  24.6475188
  26.1907469  90.4590050  24.7795462  27.6133351  90.0301047  24.4894309
  33.5241618  83.0141826  17.0255986  33.6457529  82.0858472  17.2246874
  33.2343660  83.0280512  16.1134301  36.3932808  80.6996737  20.1622706
  36.4154505  80.7636070  19.2074685  36.8100867  79.8601245  20.3563212
  46.7716432  90.4351996  18.2001928  47.2147578  89.6859321  17.8021052
  45.8942943  90.4262133  17.8175660  41.9052214  96.9882338  13.6808527
  42.6003118  97.6089030  13.8995842  42.2475364  96.1377689  13.9560905
  27.5220023  88.8100139  27.5405344  26.7801759  88.9582774  28.1269975
  27.2012767  89.0708404  26.6772094  43.8043637  94.4382043  15.2095858
  44.3294961  94.7769316  14.4845178  43.7165989  93.5029058  15.0258992
  35.4663686  98.3516117  27.3385734  35.7750812  98.1065264  28.2108434
  36.2639168  98.5562755  26.8504605  35.4884298 100.5054026  19.5691111
  35.0489288 100.0130405  20.2623968  36.2392415  99.9626994  19.3283186
  27.9676637  96.6965567  19.5715739  28.7934657  96.3969339  19.1914383
  27.6170689  95.9273190  20.0205528  32.9358170  96.0492036  21.6413413
  32.3138179  95.3862741  21.3415641  33.6063037  96.0753167  20.9587060
  26.1685242  94.6151894  20.5304673  25.3317150  94.1874068  20.3488674
  26.1408887  94.8084337  21.4675464  33.0082697  84.5273824  31.2345919
  33.0570853  85.4035946  30.8523688  33.5505211  83.9851217  30.6617562
  43.4937543  95.0714947  30.5147056  42.7033087  95.0539086  29.9751555
  43.2570898  95.6103240  31.2696092  43.6135418  91.9207413  27.8279784
  43.6633423  91.7557421  28.7695307  43.5049341  91.0534672  27.4377665
  32.4971677  94.5995959  15.1171873  32.6459797  95.2831423  14.4638546
  33.3038120  94.5801049  15.6321329  40.9039180  87.9038341  29.1439091
  41.8049043  87.7644806  28.8523089  40.9787155  88.0692796  30.0837268
  35.2381986  85.2805196  27.9892277  34.3685295  85.5738762  27.7174866
  35.4741466  85.8645641  28.7099541  45.1153615  94.3404355  28.0721806
  44.8238423  94.7034335  28.9085267  44.5025746  93.6271363  27.8935138
  46.3149297  91.9057234  20.5924376  47.1496189  92.3447039  20.7561936
  46.4508426  91.4295888  19.7732622  43.3640803  89.4636969  26.5401864
  43.8394925  89.6564616  25.7320715  42.4406368  89.5196155  26.2945247
  30.2524310  90.6261136  16.1232942  30.0070352  89.7223466  16.3213152
  30.4220224  90.6278287  15.1812420  37.9421020  81.4984813  25.5057698
  38.4602963  82.2345840  25.1804186  37.5876152  81.8048806  26.3404457
  29.5219957  86.3589494  13.6219104  28.8289202  86.4333849  12.9659140
  29.2771709  85.5949838  14.1440620  38.1933614  77.9185095  21.0258594
  38.4735367  77.2508284  21.6519021  38.9784221  78.1114191  20.5133258
  35.9967082  97.0944089  12.5883621  35.4241049  97.7134276  12.1354092
  36.5699876  97.6443451  13.1223543  42.0642472  86.3402729  24.7730169
  43.0159895  86.4400827  24.7942393  41.8945922  85.5480998  25.2828254
  40.0856852  83.4258313  24.9589570  39.4906784  83.7063325  24.2636059
  39.8006548  83.9152214  25.7306311  39.2164342  97.3781239  13.7192203
  40.1495015  97.3126801  13.9225078  39.1287555  98.2137506  13.2606736
  41.8452359  96.6947110  10.6796150  41.7665990  96.3606973  11.5731908
  42.6662025  97.1868878  10.6787623  44.5430550  89.5608849  23.8872469
  44.5106870  88.6224850  24.0732153  45.1531173  89.6392886  23.1538294
  36.3813881  88.4304902   9.9299673  37.3272985  88.3011110   9.9988091
  36.0028126  87.6919564  10.4069101  44.6925038  86.3519893  23.9330752
  44.1764087  85.5678349  23.7460681  45.5764987  86.0238609  24.0977272
  42.3535765  80.0960908  19.8926565  42.1560586  79.7875996  20.7769897
  42.9635471  80.8222547  20.0224495  50.3607100  90.6224856  23.0278506
  51.0910488  90.3610144  23.5886209  49.7514045  89.8853578  23.0680574
  48.4422397  88.7632718  23.6252957  47.7155560  88.6288683  23.0169449
  48.0269684  89.0709547  24.4309675  36.2652573  92.4822648  31.3900330
  37.1855583  92.6601247  31.5840377  36.2302156  91.5378694  31.2380029
  34.5656798  86.3554878   9.8654558  33.6588253  86.0587991   9.9417272
  34.8432779  86.0584697   8.9988845  25.4834738  87.6761242  20.3153605
  25.1637523  86.8226550  20.0227979  24.9368166  87.8909820  21.0711572
  29.2614646  90.3923683  24.0323111  29.4800656  91.3240791  24.0511145
  29.6740420  90.0331657  24.8177915  36.1818864  80.8991768  16.0198800
  35.3719592  80.5538853  16.3954046  36.8703281  80.5899312  16.6086411
  38.1109412  79.9769815  17.6423096  38.6640450  80.3965268  18.3013119
  38.3479498  79.0505563  17.6846052  34.1342511  85.9656889  33.4225860
  34.0339238  86.9151246  33.3537951  33.9164053  85.6375127  32.5501930
  33.3355582  83.2141814  10.0066538  34.1974746  83.5396712  10.2662355
  33.5205927  82.4273310   9.4939603  25.3522998  91.2964153  22.2846726
  24.6586470  90.8818106  21.7716681  26.0995989  91.3384690  21.6880145
  41.4888219  82.0870340  17.1501761  40.9086888  82.7455144  16.7679813
  41.2224152  81.2647685  16.7389178  39.9391785  81.4875398  19.3523081
  40.4391564  81.5991932  18.5437400  40.5827393  81.1836451  19.9923889
  33.9973781  89.3954027  32.2390922  33.5140863  90.1954388  32.4454811
  34.0834720  89.4061972  31.2858366  27.2659741  91.2282407  20.1612741
  27.2430429  91.3270094  19.2094624  27.5760377  92.0747558  20.4829907
  29.9247119  93.2858562  24.2759356  30.8790372  93.2542504  24.2089287
  29.7259642  92.8249186  25.0909582  30.5146501  91.8559678  26.8430153
  31.3339390  92.3503757  26.8664991  30.7883308  90.9391646  26.8147721
  40.2713097  84.2470430  16.2058109  39.3838952  84.5320081  15.9878304
  40.6867086  84.0864194  15.3585386  43.6227633  84.2716951  19.9212448
  44.3988023  84.7613404  20.1937065  42.8975767  84.6975006  20.3784318
  46.0600192  84.9844571  20.9786389  46.6544683  84.7440307  20.2679697
  46.1326775  84.2651701  21.6059925  28.2797347  98.8278182  21.2929553
  28.1451815  98.0678583  20.7267552  27.8629410  99.5519081  20.8258342
  39.4156310  94.0115105  10.3006129  40.1192161  94.2165108  10.9163784
  38.6918959  94.5791867  10.5655212  40.2454121  89.7624966  16.4208399
  40.1889322  90.2193518  15.5816031  40.7982463  89.0015651  16.2431242
  44.0558927  85.5514698  17.2458518  43.7995861  85.1511334  18.0766726
  43.4311795  86.2658492  17.1208658  48.3671264  88.2910772  19.7529810
  47.8070822  88.3603961  20.5261372  47.7614768  88.1151756  19.0329306
  31.4366473  99.7247499  21.5047996  31.3198857 100.6692931  21.4026686
  30.6158920  99.4221060  21.8933795  41.3243008  94.4497634  12.3504589
  42.1588612  94.0178833  12.1682064  41.1627351  94.2779648  13.2781483
  40.9788900  90.9529748  13.7160928  40.9237704  90.7874019  12.7749372
  40.3534955  91.6605781  13.8723118  25.7681415  86.1897812  27.5422350
  26.4140279  85.6796766  28.0309576  25.5598566  86.9266494  28.1165776
  38.2934807  93.2578660  33.0414491  39.1625967  93.4319312  32.6801126
  37.8141559  94.0773076  32.9190220  34.2885025  80.4537857  13.2946247
  34.2763695  81.3979697  13.4514517  35.1808447  80.2708002  13.0005708
  32.4620987 100.3775761  24.7203925  33.3648234 100.4099371  25.0370420
  32.2358357  99.4476211  24.7350260  34.2174589  99.1306747  21.3814003
  33.2670220  99.1308609  21.2678375  34.5207076  98.3839482  20.8650038
  38.1037145  77.0480633  17.5492183  37.3369541  76.4939120  17.6948866
  38.5147850  77.1202502  18.4106335  30.1078906  83.3365429  31.6397365
  30.9710368  82.9802234  31.8500689  29.5344317  82.9979324  32.3272769
  49.9527283 104.9667285  22.4459766  50.5905693 104.8474033  21.7423106
  49.8348126 105.9148129  22.5047718  46.7616989 104.9194714  22.3821290
  46.4235501 104.8035778  21.4941825  47.6306757 104.5185879  22.3622296
  42.6203805 106.7730190  18.3718181  42.0568670 106.6820127  17.6034469
  42.5056200 105.9530094  18.8520674  47.2436772 106.0729565  28.3407496
  47.2325413 105.6782364  27.4687999  47.4057412 105.3395638  28.9341267
  40.1668237 108.2681382  21.2102402  40.9589529 107.9272206  20.7948701
  40.4064887 108.3776357  22.1304555  48.2003364 110.4401158  13.6832646
  47.5491343 111.0255238  13.2966660  48.9947726 110.9707353  13.7427684
  42.1258991 107.5290295  14.0819780  42.8989867 106.9819282  13.9432656
  42.4784390 108.3934544  14.2934242  43.9644033 108.8566677  27.2886680
  43.6733899 109.7612308  27.1733346  44.6001018 108.8983205  28.0030749
  44.8900240 106.2343526  23.8788039  45.4863812 106.0099548  23.1645002
  44.9475212 105.4928271  24.4813487  44.4625269 103.6882961  11.7138230
  44.7150789 103.1664482  10.9521693  43.5249828 103.5249106  11.8164914
  49.5068551 102.6918739  19.5212974  50.2931641 102.2738162  19.1703391
  49.7707256 103.5964832  19.6894622  49.6778629 108.1291590  14.2201630
  49.0424462 108.2026216  14.9322535  49.3476035 108.7185188  13.5420710
  54.9076979 102.6293973  20.4245952  55.6402150 102.0593189  20.6583782
  54.1516334 102.2415573  20.8652458  44.1821557 105.5911067  13.9162605
  44.0657815 104.9155970  14.5843690  44.2923817 105.1043441  13.0994758
  46.5253098 105.0521214  17.6209295  46.1611306 104.5251835  18.3322216
  47.3820214 104.6619683  17.4475780  52.4302399  96.3415547  24.8840561
  52.0985724  97.2110958  24.6601776  51.8348012  96.0251831  25.5634591
  46.1658585 100.0811114  12.6170643  46.3332988 100.9491350  12.9841114
  45.9755754 100.2438395  11.6931932  48.9233918 108.5428093  24.2836473
  48.6234642 109.4453131  24.1752281  48.5784978 108.2760276  25.1357626
  42.3746400 104.9941889  20.3173178  41.4496896 104.8618104  20.5250870
  42.6230813 105.7736109  20.8143120  52.3231062 101.0610633  21.9633911
  51.4147940 100.9926041  21.6692672  52.2718658 101.5382578  22.7915736
  46.1447806 102.5368771  13.6017310  46.0247431 102.9825822  14.4402790
  45.4500395 102.8854089  13.0430848  39.7355211 104.6375163  21.1516967
  39.8647592 104.8909642  22.0656379  39.0552662 105.2302871  20.8321622
  43.9054698 115.3072413  17.2507441  43.8278728 116.2580238  17.3295922
  43.3016342 114.9618285  17.9082367  46.3971928 102.4800278  29.9068808
  45.6205262 103.0394199  29.8971673  47.0362491 102.9657061  30.4283678
  54.1892709  99.2627071  23.7411785  53.5467089  99.5559604  23.0951579
  53.6847637  99.1479992  24.5464981  51.8432872 103.0090244  14.4297644
  52.7550728 103.2417631  14.2545342  51.3342519 103.5927289  13.8672723
  44.6518300 105.2885732  29.4686775  45.3932985 105.8270776  29.1921599
  43.9455286 105.9152021  29.6258327  50.1273640 107.4314872  28.0658937
  50.5356996 106.9897283  27.3213569  49.4050901 106.8567500  28.3193129
  46.4804710 102.3687479  25.4392493  47.3265905 102.7926893  25.5827142
  46.4203348 101.7121103  26.1331057  50.4502455 107.9916063  21.8211225
  49.8211317 108.1561777  21.1187293  50.0628117 108.4057672  22.5922189
  54.3291686 108.9270501  19.1755589  53.6442725 109.3069402  18.6252622
  54.4135536 109.5365827  19.9087537  49.6304155 100.0291847  27.0973667
  49.3865087 100.7833908  26.5607943  49.9064086 100.4077195  27.9320914
  51.5842618 106.5730460  25.7750933  51.7959513 107.2162220  25.0985314
  51.5372366 105.7392776  25.3072863  49.1868847  99.1848280  22.6787505
  48.3253326  99.4829534  22.9704242  49.2131282  99.4018679  21.7468537
  46.0030416 107.7290471  19.0861311  46.4668762 108.0078174  18.2965933
  45.7387215 106.8273916  18.9034401  42.8954498 107.2761952  22.0241074
  43.4655855 107.7049221  21.3858558  43.4862609 106.9944537  22.7225259
  44.9399303 103.8513623  15.8950876  45.6423346 104.3034667  16.3624802
  44.6079931 103.2097442  16.5230769  43.3879664 102.4425380  30.2702085
  42.7578325 103.1241661  30.5037482  43.2815752 102.3308462  29.3255223
  38.6824636 102.1097176  21.1968009  37.8923690 102.3654705  20.7208120
  39.1735884 102.9245514  21.3020050  52.6988446 109.4502415  23.9473290
  53.5205890 109.0482602  23.6655972  52.6950849 109.3470649  24.8989406
  40.6339382 102.4741755  18.1551486  39.8370545 102.5860449  18.6734982
  40.4064974 102.8128407  17.2892376  46.4645049 108.9986458  26.1034001
  46.5289482 109.4606866  26.9392172  45.7555973 108.3683823  26.2316310
  36.9662339 102.3627666  23.6283000  37.2170378 103.2474676  23.8940576
  37.5021888 102.1832268  22.8558092  60.7894439 105.7941164  20.2958262
  60.0358147 105.2248562  20.1402266  60.9241980 105.7603828  21.2428896
  46.1793067 110.6654566  15.9712981  46.0438742 111.5106102  16.3997829
  46.7202880 110.8673844  15.2078915  42.6660407  96.7446146  32.6327336
  42.2727352  96.1912344  33.3074980  43.4826547  97.0556724  33.0233854
  39.6322465 108.1830004  16.5440906  40.1446985 108.9773254  16.6946471
  40.2845177 107.4856294  16.4774507  41.4417349 111.2995760  18.6263659
  41.6183978 112.2213725  18.4384643  42.2374183 110.9854179  19.0558039
  45.5828368  98.1604025  30.2247593  46.3238081  98.7611178  30.1452055
  45.8146291  97.4181663  29.6665635  40.7269706 103.3460392  28.5025822
  40.6123221 102.4445649  28.8032921  39.8714224 103.5924089  28.1510639
  47.8061544 111.2878132  30.1013323  47.3625398 110.5014511  29.7834227
  48.4678757 111.4757283  29.4357214  42.5648665 112.8173934  24.6274001
  43.1156090 112.6890997  23.8550995  41.7260141 113.1168823  24.2768894
  49.9042782 111.5680932  28.1294724  49.8861257 112.3889813  27.6374993
  50.8262702 111.4435008  28.3544865  46.3615836 109.0825062  28.9718233
  46.8944173 108.3213350  28.7417541  45.8329917 108.7898714  29.7142387
  49.5285531  94.1885128  24.5011874  49.1849800  95.0786769  24.4250985
  49.8964493  93.9986785  23.6381459  37.5971381 106.5118658  17.3200477
  38.4346603 106.9215667  17.1034184  37.7749649 105.5718100  17.2900670
  49.4935813 104.1793739  13.0084309  48.9782437 104.9498344  13.2472697
  49.2213122 103.5058875  13.6317371  47.0782924  99.0243440  18.0669548
  46.2224521  98.6350290  17.8875187  47.4909876  99.1035401  17.2069333
  48.6082071  96.5589783  22.4661108  48.1046867  96.5219918  21.6528913
  48.9012678  97.4682526  22.5257764  44.8524957  96.6428513  21.4727289
  45.7177954  96.4471321  21.1133179  44.9202466  96.4138864  22.3996646
  54.4670088 106.9326094  14.9437483  53.6899530 106.5937253  14.4992645
  55.1461569 106.9378717  14.2692448  49.2822117 102.0520831  14.8344091
  48.9772252 102.3666980  15.6854234  50.2352559 102.1302251  14.8771424
  47.7268548 108.2111054  16.4837045  47.1989910 107.4763814  16.1710282
  47.2256051 108.9885731  16.2377013  52.7061394 106.4060075  21.6004091
  52.0485069 107.0959336  21.6884220  53.5101794 106.7956507  21.9438077
  42.4587276  98.8730721  18.8443656  43.0331028  98.6505902  18.1116849
  43.0458259  98.9419415  19.5972257  51.5166853 104.7604448  19.6508033
  52.0298735 105.3934439  20.1529742  52.1668077 104.1605643  19.2851393
  42.7856863 100.9035182  12.8639541  41.9494175 101.2409868  13.1848816
  42.6461633 100.7684161  11.9266678  44.7609944  95.7471970  17.5718726
  44.1074356  95.4320987  16.9475340  44.7190418  95.1247710  18.2978549
  45.8721149 106.0291265   9.4872018  44.9648210 105.7980518   9.6863167
  46.3692181 105.2328884   9.6745999  48.7789228 114.7388772  12.4068704
  48.1050926 115.0420469  13.0153662  49.1655049 115.5417852  12.0574161
  47.9947684 102.2353903  21.8966373  47.0770246 102.4568850  21.7388061
  48.4107828 102.3100214  21.0378081  48.7782732 103.6345319  17.0269053
  49.5254551 104.1466716  16.7176176  49.0474321 103.3129371  17.8873447
  47.0509382 106.1303859  14.0096008  46.1420601 105.8462892  14.1068477
  47.0804466 106.5502938  13.1499315  52.2828649 109.7410449  17.7787175
  51.8290977 108.9001359  17.8352366  51.6522616 110.3771847  18.1161955
  51.2261569 100.6702435  19.0087843  50.4884326 100.1579821  19.3398085
  51.4788343 100.2302817  18.1971120  50.7261589 111.5786946  18.7136993
  51.0184563 112.1392003  17.9949359  51.2360209 111.8715507  19.4690153
  51.3273196  93.4478687  19.6029612  51.6332073  92.5876050  19.3155527
  52.0525801  94.0396307  19.4028606  37.6197552 103.8509374  17.9911210
  37.4221952 103.2578734  17.2662277  37.0644216 103.5461584  18.7087149
  45.5994276 103.7432480  20.1105803  45.6542886 102.7906316  20.0348280
  44.7885478 103.8991919  20.5947102  46.7485470 107.6712603  11.3484086
  46.3104900 106.9548462  10.8889724  47.4895911 107.8988718  10.7869178
  43.5386636 102.3609540  17.8696182  42.7254502 102.6603710  18.2761374
  44.0345630 101.9665229  18.5870664  45.6895214 112.3567297  19.8030447
  45.6471393 112.5828143  18.8738979  46.6057913 112.1230671  19.9516248
  49.1360848 102.8251364  26.7011076  49.4910235 103.0522837  27.5605542
  49.7832979 103.1569741  26.0788331  54.8658585 105.9469800  17.4060405
  54.7276483 106.1371396  16.4781594  54.5094803 106.7089183  17.8628456
  43.0300711  99.9327895  23.4857417  43.6700090  99.7916654  22.7880380
  42.1978241  99.6462409  23.1096019  54.8927964 108.0146327  22.4171676
  55.3264471 107.9221616  23.2654730  55.6059545 107.9903828  21.7791692
  43.8061015 109.2330326  19.5992409  44.6001613 108.7380646  19.3974984
  43.0952707 108.7048189  19.2360115  48.6255859 111.6148421  23.9504777
  48.6792881 112.1839358  24.7182493  47.7570641 111.7850306  23.5858814
  40.1143778 103.3773407  15.6752162  39.1841366 103.3157863  15.8922124
  40.2101250 102.8549360  14.8788803  40.0329327  99.9028220  18.2630404
  40.2936145 100.8173554  18.1539564  40.8546500  99.4352663  18.4127017
  41.5054253 101.3165977  25.4329228  42.1777306 101.1083340  24.7841877
  40.6784039 101.1188063  24.9934461  55.7543514 108.0570028  24.9504562
  55.9479404 108.9615838  25.1963837  55.6544132 107.5977447  25.7843147
  47.4079825  97.9427918  27.4494889  46.7607740  98.6417868  27.3559366
  48.1780840  98.3764062  27.8171137  50.8158622 108.2076771  30.5245442
  50.6644129 107.9787322  29.6075526  50.8063302 109.1647372  30.5376787
  47.5843959 105.7808683  25.5091709  48.5136019 105.9319843  25.3360676
  47.1634989 105.8692704  24.6540355  46.3832291 109.8059348  23.2790246
  46.2443376 109.4378132  24.1516185  45.5946887 110.3206987  23.1074204
  46.9780443 114.9068444  14.6215783  47.1532198 114.4356487  15.4361406
  46.2913231 115.5334210  14.8497044  47.9337506 109.1840950  20.6679084
  47.5987338 109.1441720  21.5636734  47.4341452 108.5185666  20.1949494
  41.9081750 104.5908580  26.1931665  41.7701548 103.8588819  26.7943204
  42.8186673 104.5017481  25.9115853  50.8696697 106.5296985  10.9416144
  50.2525868 105.8043813  10.8449197  50.4013186 107.2906345  10.5983218
  44.5364050 104.3028540  25.6815345  45.2463669 103.6621732  25.6401963
  44.4933359 104.5541435  26.6041526  52.5250829 111.2395893  28.6021924
  52.4663375 110.5555113  27.9352507  52.9270348 111.9814883  28.1502550
  43.2492984 101.2893758  27.5010985  42.7130341 100.8384496  28.1532581
  42.6609693 101.4239667  26.7581449  41.5441528 118.0557807  21.3955643
  41.7838126 118.6876331  22.0734662  40.7010724 117.7045847  21.6821002
  42.6595243 100.7482409  10.0637448  41.7824710 100.6271210   9.6999695
  43.1352996  99.9568487   9.8116337  52.5268236 109.2035477  26.8335904
  51.6395015 108.8661399  26.9562303  53.0966787 108.4718508  27.0704669
  34.1797384 105.5359569  20.1578955  34.8668423 105.2221299  19.5699971
  34.0245512 106.4400933  19.8846207  38.9832106 100.4249765  24.5863979
  38.8990294  99.8175435  23.8514389  38.1614812 100.9158784  24.5873475
  46.0569390 113.8636929  23.7997147  45.9839561 114.6691901  24.3116452
  45.6146783 114.0628895  22.9745169  45.8459169 113.1008699  17.3099969
  45.0626691 113.6430380  17.4038193  46.5451915 113.6182679  17.7094210
  49.1555820  98.9103329  19.9534174  49.6524519  98.1573291  19.6335244
  48.3842801  98.9467646  19.3877383  57.0085577 104.6143694  21.5952466
  56.9975453 105.4968410  21.2246399  56.1402956 104.2615245  21.4007003
  48.5168073 113.7623763  25.9555306  49.2296046 114.3971228  25.8831207
  48.0258102 113.8587629  25.1395308  50.2385600 107.6675016  17.5272597
  49.3041879 107.7876479  17.3577302  50.4162269 106.7647483  17.2632607
  45.7390788 101.0520712  19.6805859  45.3688576 100.4991752  20.3686764
  46.2349881 100.4478845  19.1280859  53.6258152 103.5092335  18.0622632
  54.0918604 104.3420327  17.9882934  54.0765652 103.0437317  18.7667890
  43.5679987 111.5118207  26.7760877  44.2689446 112.1454690  26.9290271
  43.0975102 111.8532938  26.0156516  51.6934383 109.8536157  15.0608784
  51.9694227 109.7392751  15.9702658  50.8238881 109.4553642  15.0220957
  51.5974814  95.8772922  22.1013533  50.6837894  96.1077149  22.2695740
  52.0267916  95.9611366  22.9527565  51.3681273 104.0662814  24.6013427
  50.7152723 104.3138722  23.9465880  51.7461653 103.2526953  24.2675904
  48.3288447 114.1022508  18.7041597  48.5110841 113.2844163  19.1669350
  49.1521433 114.3190200  18.2666487  48.6630612 113.0290693  15.9656646
  49.1918379 112.5183147  15.3526808  48.9258832 112.7133223  16.8302179
  47.4168846 104.8082625  31.0879464  46.7409483 104.7076755  31.7581839
  48.2396480 104.6521839  31.5515461  39.1647705 111.0454562  23.7091979
  39.7501142 110.2998250  23.8419884  38.9672543 111.3558519  24.5928643
  42.0186360 114.0805809  18.7254422  41.3496735 114.5651937  18.2418462
  41.8799230 114.3275030  19.6397800  33.7565360 103.6160162  22.4296422
  33.7949459 103.0823753  23.2233541  33.2505652 103.0895368  21.8107400
  46.1591629 116.1149553  25.3237080  46.7109937 116.2781174  26.0886165
  46.4997822 116.7053991  24.6517105  41.1356122  98.4624703  25.9258965
  41.1997448  99.3239534  25.5136362  41.0723242  97.8498704  25.1931323
  40.6108394 100.5347835  29.5731999  41.2380433 100.1524913  30.1869523
  39.7536313 100.3162037  29.9387692  51.0102503 110.9410810  31.1785734
  51.5542407 111.5540769  30.6840689  50.4289348 111.4990389  31.6952747
  37.3873937 102.3424264  15.5050354  37.6827378 101.4334943  15.4517408
  36.4861973 102.3212004  15.1831356  49.2960016 114.0631528  22.3100762
  49.1711155 113.2621268  21.8011708  49.9539107 114.5577722  21.8214732
  40.9168184 100.4180261  21.4877902  40.1954770 101.0316229  21.3485376
  41.7061440 100.9538026  21.4094548  51.3594924 111.8640548  23.9380312
  50.4125260 111.7445900  23.8658639  51.7077698 110.9763047  24.0206574
  43.7194498  97.7534687  27.7618554  44.2428900  97.9996984  28.5244864
  43.5006831  98.5854722  27.3421692  39.1161779 100.0238362  15.6289679
  38.7874485  99.1435741  15.4464785  39.4701150  99.9686031  16.5166068
  48.3641358 111.6593265  20.1384665  48.2166320 110.7309972  20.3192235
  49.1894851 111.6813355  19.6541740  42.2303602 100.3111332  15.9965157
  42.5699674 100.8397253  15.2743765  42.6775722 100.6491738  16.7723723
  51.9675480 112.4821823  21.2249537  52.8922027 112.2764685  21.0873988
  51.7990783 112.2338225  22.1338879  44.9247043  98.6948383  25.4468225
  44.5843863  97.8956196  25.8488905  44.2186049  98.9950093  24.8745058
  45.5763515  95.7797695  23.8995548  46.3989584  95.3058173  23.7774438
  45.8201578  96.5588179  24.3994234  44.2171749  98.8085953  14.1958449
  44.9380112  99.1867206  13.6922166  43.5937053  99.5274830  14.2993427
  48.3602872  99.5131102  15.1316782  48.5766486 100.3955740  14.8305610
  47.8796939  99.1217316  14.4022424  43.1002093 102.4716816  21.7087526
  42.9546674 102.7857119  22.6011808  42.6227297 103.0901716  21.1558425
  44.9598476  99.4619364  21.7568416  44.9460045  98.5660457  21.4200714
  45.6770904  99.4690027  22.3906702  46.8124607  99.8956704  23.8021543
  46.5542385 100.8173774  23.8005874  46.2809647  99.4987138  24.4922007
  51.7570796 113.0007491  16.5811629  51.9307673 112.4353913  15.8285481
  52.2499687 113.8008386  16.3991119  37.5747756 105.0122160  24.6475188
  37.0301224 105.7881968  24.7795462  38.4527105 105.3592964  24.4894309
  44.3635372  98.3433744  17.0255986  44.4851283  97.4150390  17.2246874
  44.0737415  98.3572430  16.1134301  47.2326563  96.0288654  20.1622706
  47.2548259  96.0927987  19.2074685  47.6494622  95.1893163  20.3563212
  57.6110187 105.7643914  18.2001928  58.0541333 105.0151239  17.8021052
  56.7336697 105.7554050  17.8175660  52.7445968 112.3174255  13.6808527
  53.4396873 112.9380948  13.8995842  53.0869118 111.4669607  13.9560905
  38.3613777 104.1392056  27.5405344  37.6195513 104.2874692  28.1269975
  38.0406522 104.4000322  26.6772094  54.6437391 109.7673961  15.2095858
  55.1688715 110.1061234  14.4845178  54.5559744 108.8320976  15.0258992
  46.3057440 113.6808034  27.3385734  46.6144567 113.4357181  28.2108434
  47.1032922 113.8854673  26.8504605  46.3278052 115.8345944  19.5691111
  45.8883042 115.3422323  20.2623968  47.0786169 115.2918912  19.3283186
  38.8070391 112.0257485  19.5715739  39.6328411 111.7261257  19.1914383
  38.4564443 111.2565107  20.0205528  43.7751924 111.3783953  21.6413413
  43.1531934 110.7154658  21.3415641  44.4456791 111.4045085  20.9587060
  37.0078996 109.9443811  20.5304673  36.1710904 109.5165986  20.3488674
  36.9802642 110.1376255  21.4675464  43.8476452  99.8565741  31.2345919
  43.8964607 100.7327864  30.8523688  44.3898966  99.3143134  30.6617562
  54.3331297 110.4006864  30.5147056  53.5426841 110.3831003  29.9751555
  54.0964652 110.9395158  31.2696092  54.4529172 107.2499331  27.8279784
  54.5027177 107.0849338  28.7695307  54.3443096 106.3826590  27.4377665
  43.3365431 109.9287877  15.1171873  43.4853552 110.6123341  14.4638546
  44.1431875 109.9092967  15.6321329  51.7432935 103.2330259  29.1439091
  52.6442798 103.0936724  28.8523089  51.8180909 103.3984714  30.0837268
  46.0775740 100.6097114  27.9892277  45.2079050 100.9030680  27.7174866
  46.3135221 101.1937559  28.7099541  55.9547369 109.6696272  28.0721806
  55.6632178 110.0326253  28.9085267  55.3419501 108.9563281  27.8935138
  57.1543052 107.2349152  20.5924376  57.9889943 107.6738956  20.7561936
  57.2902180 106.7587805  19.7732622  54.2034558 104.7928887  26.5401864
  54.6788679 104.9856533  25.7320715  53.2800123 104.8488073  26.2945247
  41.0918064 105.9553054  16.1232942  40.8464106 105.0515384  16.3213152
  41.2613979 105.9570205  15.1812420  48.7814774  96.8276731  25.5057698
  49.2996718  97.5637757  25.1804186  48.4269907  97.1340724  26.3404457
  40.3613712 101.6881412  13.6219104  39.6682957 101.7625767  12.9659140
  40.1165464 100.9241755  14.1440620  49.0327368  93.2477013  21.0258594
  49.3129122  92.5800202  21.6519021  49.8177975  93.4406109  20.5133258
  46.8360837 112.4236007  12.5883621  46.2634804 113.0426194  12.1354092
  47.4093630 112.9735369  13.1223543  52.9036227 101.6694647  24.7730169
  53.8553649 101.7692745  24.7942393  52.7339677 100.8772916  25.2828254
  50.9250606  98.7550230  24.9589570  50.3300538  99.0355243  24.2636059
  50.6400303  99.2444131  25.7306311  50.0558096 112.7073157  13.7192203
  50.9888770 112.6418719  13.9225078  49.9681309 113.5429424  13.2606736
  52.6846113 112.0239027  10.6796150  52.6059745 111.6898891  11.5731908
  53.5055780 112.5160795  10.6787623  55.3824304 104.8900767  23.8872469
  55.3500624 103.9516767  24.0732153  55.9924928 104.9684803  23.1538294
  47.2207635 103.7596820   9.9299673  48.1666740 103.6303028   9.9988091
  46.8421880 103.0211482  10.4069101  55.5318793 101.6811810  23.9330752
  55.0157841 100.8970267  23.7460681  56.4158741 101.3530527  24.0977272
  53.1929520  95.4252826  19.8926565  52.9954341  95.1167914  20.7769897
  53.8029225  96.1514465  20.0224495  61.2000854 105.9516774  23.0278506
  61.9304243 105.6902062  23.5886209  60.5907800 105.2145496  23.0680574
  59.2816151 104.0924636  23.6252957  58.5549315 103.9580601  23.0169449
  58.8663438 104.4001465  24.4309675  47.1046328 107.8114566  31.3900330
  48.0249337 107.9893165  31.5840377  47.0695911 106.8670611  31.2380029
  45.4050552 101.6846796   9.8654558  44.4982008 101.3879909   9.9417272
  45.6826533 101.3876614   8.9988845  36.3228493 103.0053160  20.3153605
  36.0031277 102.1518468  20.0227979  35.7761921 103.2201738  21.0711572
  40.1008400 105.7215601  24.0323111  40.3194410 106.6532708  24.0511145
  40.5134174 105.3623575  24.8177915  47.0212618  96.2283686  16.0198800
  46.2113346  95.8830771  16.3954046  47.7097035  95.9191230  16.6086411
  48.9503166  95.3061733  17.6423096  49.5034205  95.7257186  18.3013119
  49.1873253  94.3797481  17.6846052  44.9736266 101.2948806  33.4225860
  44.8732992 102.2443163  33.3537951  44.7557808 100.9667045  32.5501930
  44.1749337  98.5433731  10.0066538  45.0368501  98.8688630  10.2662355
  44.3599681  97.7565227   9.4939603  36.1916753 106.6256071  22.2846726
  35.4980224 106.2110024  21.7716681  36.9389744 106.6676608  21.6880145
  52.3281973  97.4162258  17.1501761  51.7480642  98.0747062  16.7679813
  52.0617906  96.5939602  16.7389178  50.7785540  96.8167316  19.3523081
  51.2785318  96.9283850  18.5437400  51.4221148  96.5128368  19.9923889
  44.8367536 104.7245945  32.2390922  44.3534617 105.5246305  32.4454811
  44.9228475 104.7353890  31.2858366  38.1053495 106.5574325  20.1612741
  38.0824183 106.6562012  19.2094624  38.4154132 107.4039476  20.4829907
  40.7640873 108.6150480  24.2759356  41.7184127 108.5834422  24.2089287
  40.5653397 108.1541104  25.0909582  41.3540255 107.1851596  26.8430153
  42.1733144 107.6795675  26.8664991  41.6277063 106.2683564  26.8147721
  51.1106851  99.5762348  16.2058109  50.2232706  99.8611999  15.9878304
  51.5260841  99.4156112  15.3585386  54.4621388  99.6008869  19.9212448
  55.2381778 100.0905322  20.1937065  53.7369522 100.0266923  20.3784318
  56.8993946 100.3136488  20.9786389  57.4938437 100.0732224  20.2679697
  56.9720530  99.5943619  21.6059925  39.1191102 114.1570099  21.2929553
  38.9845570 113.3970500  20.7267552  38.7023164 114.8810999  20.8258342
  50.2550065 109.3407023  10.3006129  50.9585915 109.5457025  10.9163784
  49.5312714 109.9083785  10.5655212  51.0847875 105.0916884  16.4208399
  51.0283077 105.5485436  15.5816031  51.6376218 104.3307569  16.2431242
  54.8952681 100.8806616  17.2458518  54.6389615 100.4803252  18.0766726
  54.2705549 101.5950410  17.1208658  59.2065019 103.6202689  19.7529810
  58.6464577 103.6895879  20.5261372  58.6008522 103.4443674  19.0329306
  42.2760228 115.0539416  21.5047996  42.1592612 115.9984849  21.4026686
  41.4552674 114.7512978  21.8933795  52.1636762 109.7789552  12.3504589
  52.9982366 109.3470751  12.1682064  52.0021105 109.6071566  13.2781483
  51.8182655 106.2821665  13.7160928  51.7631458 106.1165937  12.7749372
  51.1928710 106.9897698  13.8723118  36.6075169 101.5189730  27.5422350
  37.2534033 101.0088684  28.0309576  36.3992321 102.2558411  28.1165776
  49.1328562 108.5870577  33.0414491  50.0019721 108.7611230  32.6801126
  48.6535313 109.4064994  32.9190220  45.1278780  95.7829774  13.2946247
  45.1157450  96.7271614  13.4514517  46.0202202  95.5999920  13.0005708
  43.3014742 115.7067678  24.7203925  44.2041989 115.7391288  25.0370420
  43.0752112 114.7768129  24.7350260  45.0568344 114.4598665  21.3814003
  44.1063975 114.4600526  21.2678375  45.3600830 113.7131399  20.8650038
  48.9430899  92.3772551  17.5492183  48.1763295  91.8231038  17.6948866
  49.3541604  92.4494420  18.4106335  40.9472660  98.6657347  31.6397365
  41.8104122  98.3094152  31.8500689  40.3738071  98.3271242  32.3272769
  60.7921037 120.2959203  22.4459766  61.4299447 120.1765951  21.7423106
  60.6741880 121.2440047  22.5047718  57.6010744 120.2486631  22.3821290
  57.2629255 120.1327696  21.4941825  58.4700512 119.8477796  22.3622296
  53.4597559 122.1022108  18.3718181  52.8962425 122.0112045  17.6034469
  53.3449954 121.2822012  18.8520674  58.0830527 121.4021483  28.3407496
  58.0719167 121.0074281  27.4687999  58.2451166 120.6687556  28.9341267
  51.0061991 123.5973299  21.2102402  51.7983283 123.2564124  20.7948701
  51.2458641 123.7068274  22.1304555  59.0397118 125.7693075  13.6832646
  58.3885098 126.3547156  13.2966660  59.8341481 126.2999270  13.7427684
  52.9652745 122.8582213  14.0819780  53.7383621 122.3111200  13.9432656
  53.3178144 123.7226462  14.2934242  54.8037788 124.1858595  27.2886680
  54.5127654 125.0904226  27.1733346  55.4394772 124.2275122  28.0030749
  55.7293995 121.5635443  23.8788039  56.3257567 121.3391466  23.1645002
  55.7868966 120.8220189  24.4813487  55.3019023 119.0174879  11.7138230
  55.5544544 118.4956400  10.9521693  54.3643582 118.8541024  11.8164914
  60.3462306 118.0210657  19.5212974  61.1325395 117.6030080  19.1703391
  60.6101010 118.9256749  19.6894622  60.5172383 123.4583507  14.2201630
  59.8818216 123.5318134  14.9322535  60.1869790 124.0477106  13.5420710
  65.7470733 117.9585890  20.4245952  66.4795905 117.3885107  20.6583782
  64.9910089 117.5707491  20.8652458  55.0215312 120.9202985  13.9162605
  54.9051570 120.2447888  14.5843690  55.1317572 120.4335359  13.0994758
  57.3646853 120.3813132  17.6209295  57.0005060 119.8543753  18.3322216
  58.2213969 119.9911601  17.4475780  63.2696153 111.6707464  24.8840561
  62.9379478 112.5402875  24.6601776  62.6741767 111.3543748  25.5634591
  57.0052340 115.4103031  12.6170643  57.1726742 116.2783268  12.9841114
  56.8149509 115.5730313  11.6931932  59.7627673 123.8720010  24.2836473
  59.4628396 124.7745049  24.1752281  59.4178732 123.6052194  25.1357626
  53.2140154 120.3233807  20.3173178  52.2890651 120.1910021  20.5250870
  53.4624568 121.1028026  20.8143120  63.1624817 116.3902550  21.9633911
  62.2541694 116.3217959  21.6692672  63.1112413 116.8674495  22.7915736
  56.9841561 117.8660689  13.6017310  56.8641186 118.3117740  14.4402790
  56.2894149 118.2146007  13.0430848  50.5748965 119.9667081  21.1516967
  50.7041347 120.2201560  22.0656379  49.8946417 120.5594789  20.8321622
  54.7448453 130.6364331  17.2507441  54.6672482 131.5872156  17.3295922
  54.1410096 130.2910203  17.9082367  57.2365682 117.8092196  29.9068808
  56.4599017 118.3686116  29.8971673  57.8756246 118.2948979  30.4283678
  65.0286463 114.5918989  23.7411785  64.3860843 114.8851522  23.0951579
  64.5241392 114.4771909  24.5464981  62.6826627 118.3382162  14.4297644
  63.5944483 118.5709549  14.2545342  62.1736274 118.9219206  13.8672723
  55.4912055 120.6177649  29.4686775  56.2326739 121.1562693  29.1921599
  54.7849040 121.2443938  29.6258327  60.9667394 122.7606790  28.0658937
  61.3750750 122.3189200  27.3213569  60.2444656 122.1859417  28.3193129
  57.3198464 117.6979397  25.4392493  58.1659660 118.1218810  25.5827142
  57.2597102 117.0413021  26.1331057  61.2896209 123.3207981  21.8211225
  60.6605072 123.4853695  21.1187293  60.9021871 123.7349590  22.5922189
  65.1685441 124.2562418  19.1755589  64.4836479 124.6361320  18.6252622
  65.2529290 124.8657745  19.9087537  60.4697910 115.3583765  27.0973667
  60.2258842 116.1125826  26.5607943  60.7457840 115.7369113  27.9320914
  62.4236373 121.9022377  25.7750933  62.6353268 122.5454137  25.0985314
  62.3766121 121.0684694  25.3072863  60.0262602 114.5140198  22.6787505
  59.1647081 114.8121452  22.9704242  60.0525036 114.7310597  21.7468537
  56.8424171 123.0582389  19.0861311  57.3062516 123.3370092  18.2965933
  56.5780969 122.1565833  18.9034401  53.7348252 122.6053870  22.0241074
  54.3049609 123.0341139  21.3858558  54.3256364 122.3236455  22.7225259
  55.7793057 119.1805541  15.8950876  56.4817100 119.6326585  16.3624802
  55.4473686 118.5389360  16.5230769  54.2273419 117.7717298  30.2702085
  53.5972079 118.4533578  30.5037482  54.1209506 117.6600379  29.3255223
  49.5218391 117.4389094  21.1968009  48.7317445 117.6946622  20.7208120
  50.0129638 118.2537432  21.3020050  63.5382201 124.7794333  23.9473290
  64.3599644 124.3774520  23.6655972  63.5344603 124.6762567  24.8989406
  51.4733136 117.8033673  18.1551486  50.6764300 117.9152367  18.6734982
  51.2458729 118.1420325  17.2892376  57.3038804 124.3278376  26.1034001
  57.3683236 124.7898783  26.9392172  56.5949728 123.6975741  26.2316310
  47.8056094 117.6919584  23.6283000  48.0564132 118.5766594  23.8940576
  48.3415642 117.5124186  22.8558092  71.6288194 121.1233081  20.2958262
  70.8751902 120.5540479  20.1402266  71.7635735 121.0895746  21.2428896
  57.0186822 125.9946484  15.9712981  56.8832496 126.8398019  16.3997829
  57.5596634 126.1965761  15.2078915  53.5054161 112.0738063  32.6327336
  53.1121107 111.5204262  33.3074980  54.3220302 112.3848642  33.0233854
  50.4716219 123.5121922  16.5440906  50.9840740 124.3065172  16.6946471
  51.1238932 122.8148212  16.4774507  52.2811104 126.6287678  18.6263659
  52.4577732 127.5505643  18.4384643  53.0767937 126.3146097  19.0558039
  56.4222122 113.4895943  30.2247593  57.1631836 114.0903096  30.1452055
  56.6540045 112.7473580  29.6665635  51.5663460 118.6752310  28.5025822
  51.4516975 117.7737567  28.8032921  50.7107978 118.9216007  28.1510639
  58.6455298 126.6170050  30.1013323  58.2019152 125.8306429  29.7834227
  59.3072512 126.8049201  29.4357214  53.4042419 128.1465852  24.6274001
  53.9549844 128.0182915  23.8550995  52.5653895 128.4460741  24.2768894
  60.7436536 126.8972850  28.1294724  60.7255011 127.7181731  27.6374993
  61.6656456 126.7726925  28.3544865  57.2009590 124.4116980  28.9718233
  57.7337927 123.6505268  28.7417541  56.6723671 124.1190631  29.7142387
  60.3679285 109.5177045  24.5011874  60.0243555 110.4078687  24.4250985
  60.7358248 109.3278703  23.6381459  48.4365136 121.8410576  17.3200477
  49.2740358 122.2507584  17.1034184  48.6143404 120.9010018  17.2900670
  60.3329568 119.5085657  13.0084309  59.8176191 120.2790261  13.2472697
  60.0606876 118.8350793  13.6317371  57.9176679 114.3535357  18.0669548
  57.0618275 113.9642208  17.8875187  58.3303631 114.4327318  17.2069333
  59.4475826 111.8881701  22.4661108  58.9440621 111.8511836  21.6528913
  59.7406432 112.7974443  22.5257764  55.6918711 111.9720430  21.4727289
  56.5571708 111.7763239  21.1133179  55.7596220 111.7430782  22.3996646
  65.3063842 122.2618011  14.9437483  64.5293285 121.9229171  14.4992645
  65.9855323 122.2670634  14.2692448  60.1215871 117.3812749  14.8344091
  59.8166007 117.6958898  15.6854234  61.0746313 117.4594169  14.8771424
  58.5662303 123.5402972  16.4837045  58.0383665 122.8055732  16.1710282
  58.0649806 124.3177648  16.2377013  63.5455149 121.7351993  21.6004091
  62.8878823 122.4251254  21.6884220  64.3495548 122.1248424  21.9438077
  53.2981031 114.2022638  18.8443656  53.8724782 113.9797820  18.1116849
  53.8852013 114.2711333  19.5972257  62.3560608 120.0896365  19.6508033
  62.8692490 120.7226357  20.1529742  63.0061832 119.4897561  19.2851393
  53.6250618 116.2327099  12.8639541  52.7887930 116.5701786  13.1848816
  53.4855387 116.0976079  11.9266678  55.6003698 111.0763887  17.5718726
  54.9468111 110.7612904  16.9475340  55.5584172 110.4539628  18.2978549
  56.7114903 121.3583182   9.4872018  55.8041965 121.1272436   9.6863167
  57.2085935 120.5620802   9.6745999  59.6182982 130.0680689  12.4068704
  58.9444681 130.3712386  13.0153662  60.0048804 130.8709770  12.0574161
  58.8341439 117.5645821  21.8966373  57.9164000 117.7860768  21.7388061
  59.2501582 117.6392131  21.0378081  59.6176486 118.9637236  17.0269053
  60.3648305 119.4758634  16.7176176  59.8868076 118.6421289  17.8873447
  57.8903137 121.4595777  14.0096008  56.9814356 121.1754810  14.1068477
  57.9198220 121.8794856  13.1499315  63.1222404 125.0702367  17.7787175
  62.6684731 124.2293277  17.8352366  62.4916371 125.7063765  18.1161955
  62.0655324 115.9994353  19.0087843  61.3278080 115.4871739  19.3398085
  62.3182097 115.5594734  18.1971120  61.5655343 126.9078863  18.7136993
  61.8578318 127.4683920  17.9949359  62.0753964 127.2007424  19.4690153
  62.1666951 108.7770605  19.6029612  62.4725828 107.9167968  19.3155527
  62.8919556 109.3688225  19.4028606  48.4591307 119.1801291  17.9911210
  48.2615707 118.5870652  17.2662277  47.9037971 118.8753501  18.7087149
  56.4388031 119.0724398  20.1105803  56.4936640 118.1198234  20.0348280
  55.6279233 119.2283837  20.5947102  57.5879224 123.0004521  11.3484086
  57.1498654 122.2840380  10.8889724  58.3289665 123.2280636  10.7869178
  54.3780391 117.6901457  17.8696182  53.5648256 117.9895628  18.2761374
  54.8739385 117.2957146  18.5870664  56.5288968 127.6859214  19.8030447
  56.4865147 127.9120061  18.8738979  57.4451667 127.4522589  19.9516248
  59.9754602 118.1543282  26.7011076  60.3303990 118.3814755  27.5605542
  60.6226733 118.4861659  26.0788331  65.7052339 121.2761718  17.4060405
  65.5670238 121.4663314  16.4781594  65.3488558 122.0381101  17.8628456
  53.8694465 115.2619813  23.4857417  54.5093845 115.1208572  22.7880380
  53.0371996 114.9754326  23.1096019  65.7321719 123.3438245  22.4171676
  66.1658225 123.2513534  23.2654730  66.4453299 123.3195745  21.7791692
  54.6454769 124.5622243  19.5992409  55.4395368 124.0672564  19.3974984
  53.9346462 124.0340107  19.2360115  59.4649614 126.9440339  23.9504777
  59.5186636 127.5131275  24.7182493  58.5964395 127.1142224  23.5858814
  50.9537533 118.7065325  15.6752162  50.0235121 118.6449781  15.8922124
  51.0495005 118.1841278  14.8788803  50.8723082 115.2320138  18.2630404
  51.1329899 116.1465471  18.1539564  51.6940254 114.7644581  18.4127017
  52.3448007 116.6457895  25.4329228  53.0171060 116.4375257  24.7841877
  51.5177794 116.4479981  24.9934461  66.5937268 123.3861946  24.9504562
  66.7873158 124.2907756  25.1963837  66.4937886 122.9269365  25.7843147
  58.2473579 113.2719836  27.4494889  57.6001494 113.9709786  27.3559366
  59.0174594 113.7055980  27.8171137  61.6552377 123.5368688  30.5245442
  61.5037883 123.3079240  29.6075526  61.6457056 124.4939290  30.5376787
  58.4237713 121.1100601  25.5091709  59.3529773 121.2611761  25.3360676
  58.0028743 121.1984622  24.6540355  57.2226045 125.1351265  23.2790246
  57.0837131 124.7670050  24.1516185  56.4340641 125.6498905  23.1074204
  57.8174197 130.2360362  14.6215783  57.9925953 129.7648405  15.4361406
  57.1306985 130.8626128  14.8497044  58.7731260 124.5132868  20.6679084
  58.4381093 124.4733638  21.5636734  58.2735206 123.8477584  20.1949494
  52.7475504 119.9200498  26.1931665  52.6095302 119.1880737  26.7943204
  53.6580428 119.8309398  25.9115853  61.7090452 121.8588902  10.9416144
  61.0919623 121.1335731  10.8449197  61.2406940 122.6198263  10.5983218
  55.3757805 119.6320457  25.6815345  56.0857423 118.9913650  25.6401963
  55.3327113 119.8833352  26.6041526  63.3644584 126.5687811  28.6021924
  63.3057130 125.8847031  27.9352507  63.7664102 127.3106801  28.1502550
  54.0886739 116.6185675  27.5010985  53.5524096 116.1676414  28.1532581
  53.5003447 116.7531584  26.7581449  52.3835282 133.3849725  21.3955643
  52.6231881 134.0168249  22.0734662  51.5404479 133.0337765  21.6821002
  53.4988998 116.0774327  10.0637448  52.6218464 115.9563128   9.6999695
  53.9746751 115.2860405   9.8116337  63.3661991 124.5327395  26.8335904
  62.4788770 124.1953317  26.9562303  63.9360542 123.8010426  27.0704669
  45.0191138 120.8651486  20.1578955  45.7062178 120.5513217  19.5699971
  44.8639267 121.7692851  19.8846207  49.8225860 115.7541683  24.5863979
  49.7384049 115.1467353  23.8514389  49.0008567 116.2450701  24.5873475
  56.8963144 129.1928847  23.7997147  56.8233316 129.9983819  24.3116452
  56.4540537 129.3920813  22.9745169  56.6852924 128.4300617  17.3099969
  55.9020446 128.9722297  17.4038193  57.3845669 128.9474597  17.7094210
  59.9949574 114.2395247  19.9534174  60.4918274 113.4865209  19.6335244
  59.2236556 114.2759563  19.3877383  67.8479331 119.9435612  21.5952466
  67.8369208 120.8260328  21.2246399  66.9796711 119.5907163  21.4007003
  59.3561828 129.0915681  25.9555306  60.0689800 129.7263146  25.8831207
  58.8651856 129.1879547  25.1395308  61.0779355 122.9966934  17.5272597
  60.1435633 123.1168396  17.3577302  61.2556023 122.0939401  17.2632607
  56.5784543 116.3812630  19.6805859  56.2082330 115.8283670  20.3686764
  57.0743635 115.7770763  19.1280859  64.4651906 118.8384253  18.0622632
  64.9312358 119.6712245  17.9882934  64.9159407 118.3729235  18.7667890
  54.4073741 126.8410125  26.7760877  55.1083201 127.4746608  26.9290271
  53.9368856 127.1824856  26.0156516  62.5328137 125.1828074  15.0608784
  62.8087981 125.0684669  15.9702658  61.6632636 124.7845559  15.0220957
  62.4368569 111.2064840  22.1013533  61.5231649 111.4369067  22.2695740
  62.8661670 111.2903284  22.9527565  62.2075027 119.3954732  24.6013427
  61.5546478 119.6430639  23.9465880  62.5855407 118.5818870  24.2675904
  59.1682201 129.4314425  18.7041597  59.3504596 128.6136081  19.1669350
  59.9915187 129.6482117  18.2666487  59.5024367 128.3582610  15.9656646
  60.0312133 127.8475065  15.3526808  59.7652586 128.0425141  16.8302179
  58.2562600 120.1374543  31.0879464  57.5803237 120.0368672  31.7581839
  59.0790234 119.9813757  31.5515461  50.0041459 126.3746480  23.7091979
  50.5894896 125.6290168  23.8419884  49.8066298 126.6850436  24.5928643
  52.8580115 129.4097727  18.7254422  52.1890490 129.8943855  18.2418462
  52.7192984 129.6566947  19.6397800  44.5959114 118.9452080  22.4296422
  44.6343214 118.4115671  23.2233541  44.0899407 118.4187285  21.8107400
  56.9985383 131.4441471  25.3237080  57.5503691 131.6073092  26.0886165
  57.3391577 132.0345908  24.6517105  51.9749876 113.7916620  25.9258965
  52.0391203 114.6531451  25.5136362  51.9116997 113.1790622  25.1931323
  51.4502149 115.8639753  29.5731999  52.0774188 115.4816830  30.1869523
  50.5930068 115.6453955  29.9387692  61.8496258 126.2702728  31.1785734
  62.3936162 126.8832686  30.6840689  61.2683102 126.8282306  31.6952747
  48.2267692 117.6716182  15.5050354  48.5221133 116.7626860  15.4517408
  47.3255727 117.6503921  15.1831356  60.1353770 129.3923446  22.3100762
  60.0104910 128.5913186  21.8011708  60.7932862 129.8869639  21.8214732
  51.7561939 115.7472179  21.4877902  51.0348524 116.3608146  21.3485376
  52.5455194 116.2829943  21.4094548  62.1988679 127.1932466  23.9380312
  61.2519014 127.0737817  23.8658639  62.5471452 126.3054964  24.0206574
  54.5588252 113.0826605  27.7618554  55.0822654 113.3288902  28.5244864
  54.3400586 113.9146640  27.3421692  49.9555533 115.3530280  15.6289679
  49.6268239 114.4727659  15.4464785  50.3094904 115.2977948  16.5166068
  59.2035112 126.9885182  20.1384665  59.0560075 126.0601890  20.3192235
  60.0288606 127.0105273  19.6541740  53.0697356 115.6403249  15.9965157
  53.4093429 116.1689171  15.2743765  53.5169477 115.9783656  16.7723723
  62.8069234 127.8113741  21.2249537  63.7315781 127.6056602  21.0873988
  62.6384537 127.5630142  22.1338879  55.7640797 114.0240300  25.4468225
  55.4237618 113.2248113  25.8488905  55.0579804 114.3242011  24.8745058
  56.4157269 111.1089613  23.8995548  57.2383338 110.6350091  23.7774438
  56.6595333 111.8880096  24.3994234  55.0565504 114.1377871  14.1958449
  55.7773866 114.5159124  13.6922166  54.4330808 114.8566748  14.2993427
  59.1996626 114.8423020  15.1316782  59.4160241 115.7247658  14.8305610
  58.7190694 114.4509233  14.4022424  53.9395848 117.8008733  21.7087526
  53.7940429 118.1149036  22.6011808  53.4621052 118.4193634  21.1558425
  55.7992231 114.7911281  21.7568416  55.7853800 113.8952375  21.4200714
  56.5164659 114.7981945  22.3906702  57.6518361 115.2248621  23.8021543
  57.3936139 116.1465692  23.8005874  57.1203402 114.8279056  24.4922007
  62.5964550 128.3299409  16.5811629  62.7701428 127.7645831  15.8285481
  63.0893441 129.1300303  16.3991119  48.4141510 120.3414078  24.6475188
  47.8694978 121.1173886  24.7795462  49.2920860 120.6884882  24.4894309
  55.2029127 113.6725662  17.0255986  55.3245038 112.7442308  17.2246874
  54.9131169 113.6864347  16.1134301  58.0720317 111.3580572  20.1622706
  58.0942014 111.4219905  19.2074685  58.4888376 110.5185081  20.3563212
  68.4503941 121.0935832  18.2001928  68.8935087 120.3443157  17.8021052
  67.5730452 121.0845968  17.8175660  63.5839723 127.6466173  13.6808527
  64.2790627 128.2672866  13.8995842  63.9262873 126.7961524  13.9560905
  49.2007532 119.4683974  27.5405344  48.4589268 119.6166609  28.1269975
  48.8800276 119.7292240  26.6772094  65.4831146 125.0965878  15.2095858
  66.0082470 125.4353151  14.4845178  65.3953498 124.1612894  15.0258992
  57.1451195 129.0099952  27.3385734  57.4538321 128.7649099  28.2108434
  57.9426677 129.2146591  26.8504605  57.1671807 131.1637862  19.5691111
  56.7276797 130.6714240  20.2623968  57.9179924 130.6210829  19.3283186
  49.6464146 127.3549403  19.5715739  50.4722165 127.0553174  19.1914383
  49.2958198 126.5857025  20.0205528  54.6145679 126.7075871  21.6413413
  53.9925688 126.0446576  21.3415641  55.2850546 126.7337003  20.9587060
  47.8472751 125.2735729  20.5304673  47.0104659 124.8457903  20.3488674
  47.8196396 125.4668172  21.4675464  54.6870206 115.1857659  31.2345919
  54.7358362 116.0619782  30.8523688  55.2292720 114.6435052  30.6617562
  65.1725052 125.7298782  30.5147056  64.3820596 125.7122921  29.9751555
  64.9358406 126.2687076  31.2696092  65.2922927 122.5791249  27.8279784
  65.3420932 122.4141256  28.7695307  65.1836850 121.7118508  27.4377665
  54.1759186 125.2579794  15.1171873  54.3247306 125.9415259  14.4638546
  54.9825629 125.2384884  15.6321329  62.5826689 118.5622177  29.1439091
  63.4836552 118.4228641  28.8523089  62.6574664 118.7276631  30.0837268
  56.9169495 115.9389031  27.9892277  56.0472804 116.2322597  27.7174866
  57.1528975 116.5229476  28.7099541  66.7941124 124.9988190  28.0721806
  66.5025932 125.3618171  28.9085267  66.1813255 124.2855198  27.8935138
  67.9936806 122.5641070  20.5924376  68.8283697 123.0030874  20.7561936
  68.1295935 122.0879723  19.7732622  65.0428312 120.1220805  26.5401864
  65.5182434 120.3148451  25.7320715  64.1193877 120.1779990  26.2945247
  51.9311819 121.2844972  16.1232942  51.6857861 120.3807302  16.3213152
  52.1007733 121.2862122  15.1812420  59.6208529 112.1568648  25.5057698
  60.1390472 112.8929675  25.1804186  59.2663661 112.4632642  26.3404457
  51.2007466 117.0173329  13.6219104  50.5076711 117.0917684  12.9659140
  50.9559218 116.2533673  14.1440620  59.8721123 108.5768931  21.0258594
  60.1522876 107.9092120  21.6519021  60.6571730 108.7698026  20.5133258
  57.6754591 127.7527925  12.5883621  57.1028558 128.3718112  12.1354092
  58.2487385 128.3027286  13.1223543  63.7429981 116.9986565  24.7730169
  64.6947404 117.0984662  24.7942393  63.5733431 116.2064833  25.2828254
  61.7644360 114.0842148  24.9589570  61.1694293 114.3647161  24.2636059
  61.4794057 114.5736049  25.7306311  60.8951851 128.0365075  13.7192203
  61.8282524 127.9710636  13.9225078  60.8075064 128.8721342  13.2606736
  66.2218059 120.2192684  23.8872469  66.1894379 119.2808685  24.0732153
  66.8318682 120.2976721  23.1538294  58.0601390 119.0888737   9.9299673
  59.0060494 118.9594946   9.9988091  57.6815635 118.3503399  10.4069101
  66.3712547 117.0103728  23.9330752  65.8551596 116.2262184  23.7460681
  67.2552496 116.6822444  24.0977272  64.0323274 110.7544743  19.8926565
  63.8348095 110.4459832  20.7769897  64.6422980 111.4806382  20.0224495
  72.0394609 121.2808691  23.0278506  72.7697997 121.0193979  23.5886209
  71.4301554 120.5437413  23.0680574  70.1209906 119.4216554  23.6252957
  69.3943069 119.2872519  23.0169449  69.7057193 119.7293382  24.4309675
  57.9440082 123.1406484  31.3900330  58.8643092 123.3185083  31.5840377
  57.9089665 122.1962529  31.2380029  56.2444307 117.0138714   9.8654558
  55.3375762 116.7171826   9.9417272  56.5220288 116.7168532   8.9988845
  47.1622247 118.3345077  20.3153605  46.8425032 117.4810385  20.0227979
  46.6155675 118.5493655  21.0711572  50.9402155 121.0507518  24.0323111
  51.1588165 121.9824626  24.0511145  51.3527929 120.6915493  24.8177915
  57.8606373 111.5575603  16.0198800  57.0507101 111.2122688  16.3954046
  58.5490789 111.2483147  16.6086411  59.7896921 110.6353650  17.6423096
  60.3427959 111.0549104  18.3013119  60.0267007 109.7089398  17.6846052
  55.8130020 116.6240724  33.4225860  55.7126747 117.5735081  33.3537951
  55.5951562 116.2958963  32.5501930  55.0143091 113.8725649  10.0066538
  55.8762255 114.1980547  10.2662355  55.1993436 113.0857145   9.4939603
  47.0310507 121.9547989  22.2846726  46.3373979 121.5401941  21.7716681
  47.7783498 121.9968525  21.6880145  63.1675728 112.7454175  17.1501761
  62.5874397 113.4038979  16.7679813  62.9011661 111.9231520  16.7389178
  61.6179294 112.1459233  19.3523081  62.1179073 112.2575768  18.5437400
  62.2614902 111.8420286  19.9923889  55.6761290 120.0537863  32.2390922
  55.1928372 120.8538223  32.4454811  55.7622229 120.0645808  31.2858366
  48.9447250 121.8866242  20.1612741  48.9217938 121.9853930  19.2094624
  49.2547886 122.7331393  20.4829907  51.6034628 123.9442397  24.2759356
  52.5577881 123.9126340  24.2089287  51.4047151 123.4833021  25.0909582
  52.1934010 122.5143514  26.8430153  53.0126899 123.0087592  26.8664991
  52.4670817 121.5975482  26.8147721  61.9500606 114.9054266  16.2058109
  61.0626461 115.1903916  15.9878304  62.3654595 114.7448029  15.3585386
  65.3015142 114.9300787  19.9212448  66.0775532 115.4197239  20.1937065
  64.5763276 115.3558841  20.3784318  67.7387701 115.6428406  20.9786389
  68.3332192 115.4024142  20.2679697  67.8114284 114.9235537  21.6059925
  49.9584856 129.4862017  21.2929553  49.8239324 128.7262418  20.7267552
  49.5416919 130.2102917  20.8258342  61.0943819 124.6698941  10.3006129
  61.7979670 124.8748943  10.9163784  60.3706468 125.2375702  10.5655212
  61.9241630 120.4208802  16.4208399  61.8676831 120.8777353  15.5816031
  62.4769972 119.6599486  16.2431242  65.7346436 116.2098534  17.2458518
  65.4783370 115.8095169  18.0766726  65.1099304 116.9242328  17.1208658
  70.0458773 118.9494607  19.7529810  69.4858331 119.0187796  20.5261372
  69.4402277 118.7735592  19.0329306  53.1153982 130.3831334  21.5047996
  52.9986366 131.3276766  21.4026686  52.2946429 130.0804896  21.8933795
  63.0030517 125.1081470  12.3504589  63.8376121 124.6762668  12.1682064
  62.8414860 124.9363483  13.2781483  62.6576409 121.6113583  13.7160928
  62.6025213 121.4457854  12.7749372  62.0322464 122.3189616  13.8723118
  47.4468924 116.8481647  27.5422350  48.0927788 116.3380601  28.0309576
  47.2386075 117.5850329  28.1165776  59.9722316 123.9162495  33.0414491
  60.8413476 124.0903147  32.6801126  59.4929068 124.7356912  32.9190220
  55.9672534 111.1121692  13.2946247  55.9551204 112.0563532  13.4514517
  56.8595956 110.9291837  13.0005708  54.1408496 131.0359596  24.7203925
  55.0435743 131.0683206  25.0370420  53.9145866 130.1060047  24.7350260
  55.8962098 129.7890582  21.3814003  54.9457729 129.7892444  21.2678375
  56.1994585 129.0423317  20.8650038  59.7824654 107.7064469  17.5492183
  59.0157050 107.1522955  17.6948866  60.1935359 107.7786337  18.4106335
  51.7866415 113.9949264  31.6397365  52.6497877 113.6386069  31.8500689
  51.2131826 113.6563159  32.3272769  71.6314792 135.6251121  22.4459766
  72.2693202 135.5057868  21.7423106  71.5135635 136.5731965  22.5047718
  68.4404498 135.5778549  22.3821290  68.1023010 135.4619614  21.4941825
  69.3094266 135.1769714  22.3622296  64.2991314 137.4314025  18.3718181
  63.7356179 137.3403962  17.6034469  64.1843709 136.6113930  18.8520674
  68.9224281 136.7313401  28.3407496  68.9112922 136.3366199  27.4687999
  69.0844921 135.9979473  28.9341267  61.8455746 138.9265217  21.2102402
  62.6377038 138.5856042  20.7948701  62.0852396 139.0360192  22.1304555
  65.6431542 139.5150512  27.2886680  65.3521408 140.4196143  27.1733346
  66.2788527 139.5567040  28.0030749  66.5687749 136.8927361  23.8788039
  67.1651321 136.6683383  23.1645002  66.6262721 136.1512106  24.4813487
  71.1856060 133.3502575  19.5212974  71.9719150 132.9321998  19.1703391
  71.4494765 134.2548667  19.6894622  76.5864488 133.2877808  20.4245952
  77.3189659 132.7177025  20.6583782  75.8303843 132.8999408  20.8652458
  68.2040607 135.7105049  17.6209295  67.8398814 135.1835670  18.3322216
  69.0607723 135.3203518  17.4475780  74.1089908 126.9999382  24.8840561
  73.7773233 127.8694793  24.6601776  73.5135521 126.6835666  25.5634591
  70.6021427 139.2011928  24.2836473  70.3022151 140.1036967  24.1752281
  70.2572487 138.9344111  25.1357626  64.0533909 135.6525725  20.3173178
  63.1284405 135.5201939  20.5250870  64.3018322 136.4319944  20.8143120
  74.0018571 131.7194468  21.9633911  73.0935449 131.6509877  21.6692672
  73.9506167 132.1966413  22.7915736  61.4142720 135.2958998  21.1516967
  61.5435101 135.5493477  22.0656379  60.7340171 135.8886706  20.8321622
  68.0759437 133.1384114  29.9068808  67.2992771 133.6978034  29.8971673
  68.7150000 133.6240897  30.4283678  75.8680218 129.9210907  23.7411785
  75.2254598 130.2143440  23.0951579  75.3635146 129.8063827  24.5464981
  66.3305809 135.9469567  29.4686775  67.0720494 136.4854611  29.1921599
  65.6242795 136.5735856  29.6258327  71.8061149 138.0898708  28.0658937
  72.2144505 137.6481118  27.3213569  71.0838410 137.5151335  28.3193129
  68.1592219 133.0271314  25.4392493  69.0053414 133.4510728  25.5827142
  68.0990857 132.3704939  26.1331057  72.1289964 138.6499898  21.8211225
  71.4998826 138.8145612  21.1187293  71.7415626 139.0641508  22.5922189
  71.3091664 130.6875683  27.0973667  71.0652596 131.4417743  26.5607943
  71.5851595 131.0661030  27.9320914  73.2630127 137.2314295  25.7750933
  73.4747022 137.8746055  25.0985314  73.2159875 136.3976612  25.3072863
  70.8656356 129.8432116  22.6787505  70.0040835 130.1413369  22.9704242
  70.8918791 130.0602515  21.7468537  64.5742007 137.9345788  22.0241074
  65.1443364 138.3633056  21.3858558  65.1650118 137.6528373  22.7225259
  66.6186812 134.5097459  15.8950876  67.3210855 134.9618502  16.3624802
  66.2867440 133.8681278  16.5230769  65.0667173 133.1009215  30.2702085
  64.4365834 133.7825496  30.5037482  64.9603261 132.9892297  29.3255223
  60.3612145 132.7681011  21.1968009  59.5711199 133.0238540  20.7208120
  60.8523393 133.5829349  21.3020050  74.3775955 140.1086251  23.9473290
  75.1993399 139.7066438  23.6655972  74.3738358 140.0054485  24.8989406
  62.3126891 133.1325591  18.1551486  61.5158054 133.2444285  18.6734982
  62.0852483 133.4712243  17.2892376  68.1432558 139.6570294  26.1034001
  68.2076991 140.1190701  26.9392172  67.4343482 139.0267659  26.2316310
  58.6449848 133.0211502  23.6283000  58.8957887 133.9058512  23.8940576
  59.1809397 132.8416103  22.8558092  64.3447916 127.4029981  32.6327336
  63.9514861 126.8496180  33.3074980  65.1614056 127.7140560  33.0233854
  61.3109974 138.8413839  16.5440906  61.8234494 139.6357090  16.6946471
  61.9632686 138.1440130  16.4774507  67.2615877 128.8187860  30.2247593
  68.0025590 129.4195013  30.1452055  67.4933800 128.0765498  29.6665635
  62.4057215 134.0044227  28.5025822  62.2910730 133.1029485  28.8032921
  61.5501733 134.2507924  28.1510639  69.4849053 141.9461968  30.1013323
  69.0412907 141.1598346  29.7834227  70.1466266 142.1341118  29.4357214
  64.2436174 143.4757769  24.6274001  64.7943599 143.3474833  23.8550995
  63.4047650 143.7752658  24.2768894  71.5830291 142.2264768  28.1294724
  71.5648766 143.0473649  27.6374993  72.5050211 142.1018843  28.3544865
  68.0403345 139.7408897  28.9718233  68.5731682 138.9797185  28.7417541
  67.5117426 139.4482549  29.7142387  71.2073040 124.8468963  24.5011874
  70.8637309 125.7370605  24.4250985  71.5752002 124.6570621  23.6381459
  59.2758890 137.1702494  17.3200477  60.1134112 137.5799502  17.1034184
  59.4537158 136.2301936  17.2900670  68.7570433 129.6827275  18.0669548
  67.9012030 129.2934125  17.8875187  69.1697385 129.7619236  17.2069333
  70.2869580 127.2173618  22.4661108  69.7834376 127.1803753  21.6528913
  70.5800187 128.1266361  22.5257764  66.5312466 127.3012348  21.4727289
  67.3965463 127.1055157  21.1133179  66.5989975 127.0722700  22.3996646
  74.3848903 137.0643910  21.6004091  73.7272578 137.7543172  21.6884220
  75.1889303 137.4540342  21.9438077  64.1374785 129.5314556  18.8443656
  64.7118537 129.3089737  18.1116849  64.7245767 129.6003250  19.5972257
  73.1954362 135.4188283  19.6508033  73.7086244 136.0518275  20.1529742
  73.8455586 134.8189478  19.2851393  66.4397453 126.4055805  17.5718726
  65.7861865 126.0904822  16.9475340  66.3977927 125.7831545  18.2978549
  69.6735193 132.8937738  21.8966373  68.7557754 133.1152685  21.7388061
  70.0895337 132.9684049  21.0378081  72.9049078 131.3286270  19.0087843
  72.1671835 130.8163657  19.3398085  73.1575852 130.8886652  18.1971120
  73.0060705 124.1062522  19.6029612  73.3119582 123.2459886  19.3155527
  73.7313310 124.6980143  19.4028606  59.2985061 134.5093209  17.9911210
  59.1009461 133.9162570  17.2662277  58.7431725 134.2045419  18.7087149
  67.2781785 134.4016315  20.1105803  67.3330395 133.4490152  20.0348280
  66.4672987 134.5575755  20.5947102  65.2174145 133.0193375  17.8696182
  64.4042011 133.3187546  18.2761374  65.7133139 132.6249064  18.5870664
  70.8148357 133.4835200  26.7011076  71.1697744 133.7106673  27.5605542
  71.4620488 133.8153576  26.0788331  64.7088220 130.5911731  23.4857417
  65.3487599 130.4500490  22.7880380  63.8765750 130.3046244  23.1096019
  65.4848524 139.8914161  19.5992409  66.2789122 139.3964481  19.3974984
  64.7740216 139.3632024  19.2360115  70.3043368 142.2732257  23.9504777
  70.3580390 142.8423193  24.7182493  69.4358150 142.4434142  23.5858814
  61.7931287 134.0357243  15.6752162  60.8628875 133.9741698  15.8922124
  61.8888759 133.5133196  14.8788803  61.7116836 130.5612056  18.2630404
  61.9723653 131.4757389  18.1539564  62.5334009 130.0936498  18.4127017
  63.1841762 131.9749813  25.4329228  63.8564815 131.7667175  24.7841877
  62.3571548 131.7771899  24.9934461  77.4331023 138.7153863  24.9504562
  77.6266913 139.6199674  25.1963837  77.3331641 138.2561282  25.7843147
  69.0867334 128.6011754  27.4494889  68.4395249 129.3001703  27.3559366
  69.8568349 129.0347898  27.8171137  72.4946131 138.8660606  30.5245442
  72.3431638 138.6371158  29.6075526  72.4850811 139.8231207  30.5376787
  69.2631468 136.4392519  25.5091709  70.1923528 136.5903678  25.3360676
  68.8422498 136.5276539  24.6540355  68.0619800 140.4643183  23.2790246
  67.9230885 140.0961967  24.1516185  67.2734396 140.9790823  23.1074204
  69.6125015 139.8424786  20.6679084  69.2774847 139.8025556  21.5636734
  69.1128961 139.1769502  20.1949494  63.5869259 135.2492416  26.1931665
  63.4489057 134.5172655  26.7943204  64.4974182 135.1601316  25.9115853
  66.2151559 134.9612375  25.6815345  66.9251178 134.3205567  25.6401963
  66.1720868 135.2125270  26.6041526  74.2038338 141.8979728  28.6021924
  74.1450884 141.2138949  27.9352507  74.6057857 142.6398718  28.1502550
  64.9280493 131.9477593  27.5010985  64.3917850 131.4968331  28.1532581
  64.3397202 132.0823502  26.7581449  74.2055745 139.8619312  26.8335904
  73.3182524 139.5245234  26.9562303  74.7754296 139.1302344  27.0704669
  55.8584893 136.1943404  20.1578955  56.5455932 135.8805134  19.5699971
  55.7033021 137.0984769  19.8846207  60.6619615 131.0833601  24.5863979
  60.5777803 130.4759270  23.8514389  59.8402321 131.5742619  24.5873475
  67.7356899 144.5220765  23.7997147  67.6627070 145.3275736  24.3116452
  67.2934292 144.7212731  22.9745169  70.8343329 129.5687164  19.9534174
  71.3312028 128.8157127  19.6335244  70.0630310 129.6051481  19.3877383
  70.1955582 144.4207599  25.9555306  70.9083555 145.0555064  25.8831207
  69.7045611 144.5171465  25.1395308  67.4178297 131.7104547  19.6805859
  67.0476085 131.1575588  20.3686764  67.9137390 131.1062681  19.1280859
  65.2467496 142.1702042  26.7760877  65.9476955 142.8038525  26.9290271
  64.7762611 142.5116774  26.0156516  73.2762323 126.5356758  22.1013533
  72.3625403 126.7660985  22.2695740  73.7055425 126.6195202  22.9527565
  73.0468782 134.7246650  24.6013427  72.3940232 134.9722557  23.9465880
  73.4249162 133.9110788  24.2675904  69.0956355 135.4666461  31.0879464
  68.4196992 135.3660590  31.7581839  69.9183989 135.3105675  31.5515461
  60.8435214 141.7038397  23.7091979  61.4288651 140.9582085  23.8419884
  60.6460052 142.0142354  24.5928643  55.4352869 134.2743998  22.4296422
  55.4736968 133.7407588  23.2233541  54.9293161 133.7479203  21.8107400
  67.8379138 146.7733388  25.3237080  68.3897446 146.9365010  26.0886165
  68.1785331 147.3637826  24.6517105  62.8143631 129.1208538  25.9258965
  62.8784957 129.9823369  25.5136362  62.7510751 128.5082540  25.1931323
  62.2895903 131.1931671  29.5731999  62.9167942 130.8108748  30.1869523
  61.4323822 130.9745873  29.9387692  72.6890012 141.5994646  31.1785734
  73.2329916 142.2124604  30.6840689  72.1076857 142.1574224  31.6952747
  59.0661446 133.0008100  15.5050354  59.3614887 132.0918778  15.4517408
  58.1649482 132.9795839  15.1831356  62.5955693 131.0764096  21.4877902
  61.8742279 131.6900064  21.3485376  63.3848949 131.6121861  21.4094548
  73.0382433 142.5224384  23.9380312  72.0912769 142.4029735  23.8658639
  73.3865206 141.6346882  24.0206574  65.3982007 128.4118523  27.7618554
  65.9216409 128.6580819  28.5244864  65.1794340 129.2438558  27.3421692
  60.7949288 130.6822197  15.6289679  60.4661994 129.8019576  15.4464785
  61.1488658 130.6269866  16.5166068  63.9091111 130.9695167  15.9965157
  64.2487183 131.4981088  15.2743765  64.3563231 131.3075573  16.7723723
  66.6034552 129.3532218  25.4468225  66.2631372 128.5540031  25.8488905
  65.8973558 129.6533929  24.8745058  67.2551024 126.4381530  23.8995548
  68.0777093 125.9642008  23.7774438  67.4989087 127.2172014  24.3994234
  65.8959258 129.4669789  14.1958449  66.6167621 129.8451042  13.6922166
  65.2724562 130.1858666  14.2993427  64.7789602 133.1300651  21.7087526
  64.6334183 133.4440954  22.6011808  64.3014806 133.7485551  21.1558425
  66.6385985 130.1203199  21.7568416  66.6247554 129.2244292  21.4200714
  67.3558413 130.1273863  22.3906702  68.4912116 130.5540539  23.8021543
  68.2329894 131.4757610  23.8005874  67.9597156 130.1570974  24.4922007
  59.2535265 135.6705995  24.6475188  58.7088733 136.4465803  24.7795462
  60.1314614 136.0176800  24.4894309  66.0422881 129.0017579  17.0255986
  66.1638792 128.0734225  17.2246874  65.7524924 129.0156265  16.1134301
  68.9114072 126.6872490  20.1622706  68.9335768 126.7511823  19.2074685
  69.3282131 125.8476998  20.3563212  60.0401286 134.7975892  27.5405344
  59.2983022 134.9458527  28.1269975  59.7194031 135.0584157  26.6772094
  67.9844949 144.3391870  27.3385734  68.2932075 144.0941017  28.2108434
  68.7820431 144.5438508  26.8504605  60.4857900 142.6841320  19.5715739
  61.3115920 142.3845092  19.1914383  60.1351952 141.9148943  20.0205528
  65.4539433 142.0367789  21.6413413  64.8319443 141.3738494  21.3415641
  66.1244300 142.0628920  20.9587060  58.6866505 140.6027647  20.5304673
  57.8498413 140.1749821  20.3488674  58.6590151 140.7960090  21.4675464
  65.5263961 130.5149577  31.2345919  65.5752116 131.3911699  30.8523688
  66.0686475 129.9726970  30.6617562  76.0118806 141.0590700  30.5147056
  75.2214350 141.0414839  29.9751555  75.7752161 141.5978993  31.2696092
  76.1316681 137.9083166  27.8279784  76.1814686 137.7433174  28.7695307
  76.0230605 137.0410425  27.4377665  73.4220444 133.8914094  29.1439091
  74.3230307 133.7520559  28.8523089  73.4968418 134.0568549  30.0837268
  67.7563249 131.2680949  27.9892277  66.8866559 131.5614515  27.7174866
  67.9922730 131.8521394  28.7099541  77.6334878 140.3280108  28.0721806
  77.3419687 140.6910088  28.9085267  77.0207010 139.6147116  27.8935138
  75.8822067 135.4512722  26.5401864  76.3576188 135.6440369  25.7320715
  74.9587632 135.5071908  26.2945247  70.4602283 127.4860566  25.5057698
  70.9784227 128.2221593  25.1804186  70.1057416 127.7924559  26.3404457
  62.0401221 132.3465247  13.6219104  61.3470466 132.4209602  12.9659140
  61.7952973 131.5825591  14.1440620  70.7114877 123.9060848  21.0258594
  70.9916631 123.2384037  21.6519021  71.4965484 124.0989944  20.5133258
  74.5823736 132.3278482  24.7730169  75.5341158 132.4276580  24.7942393
  74.4127186 131.5356751  25.2828254  72.6038115 129.4134066  24.9589570
  72.0088047 129.6939078  24.2636059  72.3187812 129.9027967  25.7306311
  77.0611813 135.5484602  23.8872469  77.0288133 134.6100603  24.0732153
  77.6712437 135.6268639  23.1538294  77.2106302 132.3395646  23.9330752
  76.6945350 131.5554102  23.7460681  78.0946250 132.0114362  24.0977272
  74.8717029 126.0836661  19.8926565  74.6741850 125.7751749  20.7769897
  75.4816734 126.8098300  20.0224495  80.9603660 134.7508472  23.6252957
  80.2336824 134.6164436  23.0169449  80.5450947 135.0585300  24.4309675
  68.7833837 138.4698401  31.3900330  69.7036846 138.6477000  31.5840377
  68.7483420 137.5254447  31.2380029  58.0016002 133.6636995  20.3153605
  57.6818786 132.8102303  20.0227979  57.4549430 133.8785573  21.0711572
  61.7795909 136.3799436  24.0323111  61.9981919 137.3116544  24.0511145
  62.1921683 136.0207410  24.8177915  68.7000127 126.8867521  16.0198800
  67.8900855 126.5414606  16.3954046  69.3884544 126.5775065  16.6086411
  70.6290675 125.9645568  17.6423096  71.1821714 126.3841021  18.3013119
  70.8660762 125.0381316  17.6846052  66.6523775 131.9532642  33.4225860
  66.5520501 132.9026999  33.3537951  66.4345317 131.6250881  32.5501930
  57.8704262 137.2839906  22.2846726  57.1767733 136.8693859  21.7716681
  58.6177253 137.3260443  21.6880145  74.0069482 128.0746093  17.1501761
  73.4268151 128.7330897  16.7679813  73.7405415 127.2523438  16.7389178
  72.4573049 127.4751151  19.3523081  72.9572827 127.5867685  18.5437400
  73.1008657 127.1712204  19.9923889  66.5155045 135.3829780  32.2390922
  66.0322126 136.1830141  32.4454811  66.6015984 135.3937725  31.2858366
  59.7841004 137.2158160  20.1612741  59.7611692 137.3145847  19.2094624
  60.0941641 138.0623311  20.4829907  62.4428382 139.2734315  24.2759356
  63.3971636 139.2418258  24.2089287  62.2440906 138.8124939  25.0909582
  63.0327764 137.8435431  26.8430153  63.8520653 138.3379510  26.8664991
  63.3064572 136.9267399  26.8147721  76.1408897 130.2592705  19.9212448
  76.9169287 130.7489157  20.1937065  75.4157031 130.6850759  20.3784318
  78.5781455 130.9720324  20.9786389  79.1725946 130.7316060  20.2679697
  78.6508039 130.2527454  21.6059925  60.7978611 144.8153935  21.2929553
  60.6633079 144.0554336  20.7267552  60.3810673 145.5394835  20.8258342
  63.9547737 145.7123252  21.5047996  63.8380121 146.6568684  21.4026686
  63.1340183 145.4096813  21.8933795  58.2862678 132.1773565  27.5422350
  58.9321542 131.6672519  28.0309576  58.0779830 132.9142247  28.1165776
  70.8116071 139.2454413  33.0414491  71.6807230 139.4195065  32.6801126
  70.3322822 140.0648829  32.9190220  66.8066289 126.4413610  13.2946247
  66.7944959 127.3855450  13.4514517  67.6989711 126.2583755  13.0005708
  64.9802251 146.3651514  24.7203925  65.8829498 146.3975124  25.0370420
  64.7539621 145.4351965  24.7350260  70.6218408 123.0356386  17.5492183
  69.8550804 122.4814873  17.6948866  71.0329113 123.1078255  18.4106335
  62.6260169 129.3241182  31.6397365  63.4891631 128.9677987  31.8500689
  62.0525580 128.9855077  32.3272769  78.9153191 148.4676031  29.9068808
  78.1386526 149.0269952  29.8971673  79.5543755 148.9532814  30.4283678
  75.9060928 148.4301133  30.2702085  75.2759588 149.1117414  30.5037482
  75.7997015 148.3184215  29.3255223  75.1841670 142.7321899  32.6327336
  74.7908616 142.1788097  33.3074980  76.0007811 143.0432477  33.0233854
  78.1009631 144.1479778  30.2247593  78.8419345 144.7486931  30.1452055
  78.3327554 143.4057416  29.6665635  73.2450969 149.3336145  28.5025822
  73.1304484 148.4321402  28.8032921  72.3895487 149.5799842  28.1510639
  79.9261088 143.9303671  27.4494889  79.2789003 144.6293621  27.3559366
  80.6962103 144.3639815  27.8171137  75.7674248 147.2769511  27.5010985
  75.2311605 146.8260249  28.1532581  75.1790956 147.4115420  26.7581449
  79.9350109 150.7958378  31.0879464  79.2590746 150.6952508  31.7581839
  80.7577743 150.6397592  31.5515461  73.6537385 144.4500456  25.9258965
  73.7178712 145.3115287  25.5136362  73.5904506 143.8374457  25.1931323
  73.1289658 146.5223588  29.5731999  73.7561697 146.1400666  30.1869523
  72.2717577 146.3037790  29.9387692  76.2375761 143.7410440  27.7618554
  76.7610163 143.9872737  28.5244864  76.0188095 144.5730475  27.3421692
  70.8795041 150.1267809  27.5405344  70.1376777 150.2750445  28.1269975
  70.5587785 150.3876075  26.6772094  76.3657715 145.8441494  31.2345919
  76.4145871 146.7203617  30.8523688  76.9080229 145.3018887  30.6617562
  78.5957004 146.5972867  27.9892277  77.7260313 146.8906433  27.7174866
  78.8316484 147.1813312  28.7099541  77.4917529 147.2824559  33.4225860
  77.3914256 148.2318916  33.3537951  77.2739071 146.9542798  32.5501930
  77.3548799 150.7121698  32.2390922  76.8715881 151.5122058  32.4454811
  77.4409738 150.7229643  31.2858366  69.1256433 147.5065483  27.5422350
  69.7715297 146.9964437  28.0309576  68.9173584 148.2434164  28.1165776
  73.4653924 144.6533100  31.6397365  74.3285386 144.2969905  31.8500689
  72.8919335 144.3146995  32.3272769  26.1274036  57.6356420  16.8258630
  25.6837890  56.8492798  16.5079534  26.7891249  57.8235570  16.1602520
  28.2255274  57.9159220  14.8540031  28.2073749  58.7368101  14.3620300
  29.1475194  57.7913295  15.0790172  24.6828328  55.4303349  15.6963539
  25.2156665  54.6691637  15.4662847  24.1542409  55.1377001  16.4387694
  29.1371115  54.5555058  17.2490749  28.9856621  54.3265610  16.3320833
  29.1275794  55.5125659  17.2622094  30.8463321  57.5874180  15.3267231
  30.7875868  56.9033401  14.6597814  31.2482840  58.3293170  14.8747857
  30.8480729  55.5513764  13.5581211  29.9607507  55.2139686  13.6807609
  31.4179280  54.8196796  13.7949976  26.8380566  60.1102051  12.6800612
  27.5508538  60.7449516  12.6076514  26.3470594  60.2065917  11.8640614
  25.7381338  51.1560913  17.8124771  25.0621975  51.0555042  18.4827146
  26.5608972  51.0000126  18.2760768  24.4804121  62.4627840  12.0482387
  25.0322429  62.6259462  12.8131472  24.8210314  63.0532278  11.3762412
  29.3314995  57.2889098  17.9031041  29.8754899  57.9019056  17.4085996
  28.7501840  57.8468676  18.4198054  24.6269932  60.0286322  14.0631041
  24.9357059  59.7835468  14.9353741  25.4245414  60.2332960  13.5749911
  32.6543790  56.7485152  17.2392362  31.8639333  56.7309291  16.6996862
  32.4177144  57.2873445  17.9941399  32.7741665  53.5977618  14.5525091
  32.8239670  53.4327626  15.4940614  32.6655588  52.7304877  14.1622972
  34.2759862  56.0174560  14.7967112  33.9844670  56.3804540  15.6330573
  33.6631993  55.3041568  14.6180445  25.4258820  54.1592853  18.1145637
  26.3461829  54.3371452  18.3085683  25.3908403  53.2148898  17.9625336
  27.4541054  54.9348864  19.7659798  28.3232214  55.1089517  19.4046432
  26.9747805  55.7543281  19.6435527  39.1133530  66.6437490   9.1705072
  39.7511940  66.5244238   8.4668412  38.9954373  67.5918334   9.2293024
  35.9223236  66.5964919   9.1066597  35.5841748  66.4805983   8.2187132
  36.7913004  66.1956084   9.0867603  36.4043019  67.7499770  15.0652802
  36.3931660  67.3552569  14.1933306  36.5663658  67.0165843  15.6586574
  29.3274484  69.9451587   7.9347708  30.1195776  69.6042411   7.5194008
  29.5671134  70.0546562   8.8549862  33.1250280  70.5336882  14.0131986
  32.8340146  71.4382513  13.8978653  33.7607264  70.5753410  14.7276056
  34.0506487  67.9113731  10.6033346  34.6470059  67.6869753   9.8890309
  34.1081459  67.1698476  11.2058794  38.6674798  64.3688944   6.2458280
  39.4537887  63.9508367   5.8948697  38.9313503  65.2735036   6.4139929
  44.0683225  64.3064177   7.1491259  44.8008397  63.7363394   7.3829088
  43.3122581  63.9185778   7.5897764  35.6859345  66.7291419   4.3454601
  35.3217552  66.2022040   5.0567523  36.5426461  66.3389888   4.1721087
  41.5908646  58.0185752  11.6085867  41.2591970  58.8881163  11.3847082
  40.9954259  57.7022036  12.2879898  38.0840165  70.2198298  11.0081780
  37.7840888  71.1223336  10.8997587  37.7391225  69.9530481  11.8602933
  31.5352647  66.6712094   7.0418485  30.6103143  66.5388308   7.2496176
  31.7837060  67.4506314   7.5388427  41.4837309  62.7380838   8.6879217
  40.5754186  62.6696246   8.3937978  41.4324905  63.2152783   9.5161043
  28.8961458  66.3145368   7.8762274  29.0253839  66.5679847   8.7901685
  28.2158909  66.9073076   7.5566929  33.0660945  76.9842618   3.9752748
  32.9884975  77.9350443   4.0541228  32.4622589  76.6388490   4.6327674
  35.5578175  64.1570483  16.6314115  34.7811509  64.7164403  16.6216979
  36.1968738  64.6427266  17.1528985  43.3498955  60.9397276  10.4657091
  42.7073336  61.2329809   9.8196886  42.8453884  60.8250196  11.2710288
  33.8124547  66.9655937  16.1932082  34.5539231  67.5040981  15.9166905
  33.1061533  67.5922225  16.3503633  39.2879887  69.1085077  14.7904243
  39.6963243  68.6667488  14.0458876  38.5657148  68.5337705  15.0438436
  35.6410957  64.0457684  12.1637800  36.4872152  64.4697097  12.3072449
  35.5809594  63.3891308  12.8576363  39.6108701  69.6686268   8.5456532
  38.9817564  69.8331982   7.8432600  39.2234363  70.0827877   9.3167496
  43.4897933  70.6040706   5.9000896  42.8048971  70.9839607   5.3497929
  43.5741783  71.2136032   6.6332844  38.7910402  61.7062052  13.8218974
  38.5471334  62.4604113  13.2853249  39.0670333  62.0847400  14.6566221
  40.7448865  68.2500665  12.4996239  40.9565760  68.8932425  11.8230620
  40.6978613  67.4162981  12.0318169  38.3475094  60.8618485   9.4032811
  37.4859573  61.1599739   9.6949549  38.3737528  61.0788884   8.4713844
  35.1636663  69.4060676   5.8106617  35.6275009  69.6848379   5.0211240
  34.8993461  68.5044120   5.6279708  32.0560744  68.9532157   8.7486380
  32.6262101  69.3819426   8.1103865  32.6468856  68.6714742   9.4470566
  32.5485911  64.1195585  16.9947392  31.9184571  64.8011866  17.2282789
  32.4421999  64.0078666  16.0500530  41.8594693  71.1272620  10.6718597
  42.6812137  70.7252807  10.3901278  41.8557096  71.0240854  11.6234712
  35.6251296  70.6756663  12.8279307  35.6895729  71.1377071  13.6637479
  34.9162220  70.0454028  12.9561617  26.1268586  64.0397871  10.3528307
  26.3776625  64.9244881  10.6185883  26.6628135  63.8602473   9.5803398
  49.9500686  67.4711369   7.0203568  49.1964394  66.9018767   6.8647573
  50.0848227  67.4374033   7.9674203  35.3399314  72.3424771   2.6958288
  35.2044989  73.1876307   3.1243135  35.8809126  72.5444048   1.9324221
  31.8266654  58.4216351  19.3572643  31.4333599  57.8682549  20.0320287
  32.6432794  58.7326929  19.7479160  30.6023596  72.9765965   5.3508966
  30.7790224  73.8983930   5.1629950  31.3980430  72.6624384   5.7803346
  34.7434615  59.8374230  16.9492899  35.4844328  60.4381383  16.8697362
  34.9752537  59.0951868  16.3910942  29.8875953  65.0230597  15.2271129
  29.7729468  64.1215854  15.5278228  29.0320470  65.2694294  14.8755946
  36.9667790  72.9648337  16.8258630  36.5231644  72.1784716  16.5079534
  37.6285004  73.1527488  16.1602520  31.7254911  74.4944139  11.3519308
  32.2762337  74.3661202  10.5796302  30.8866387  74.7939028  11.0014201
  39.0649028  73.2451137  14.8540031  39.0467504  74.0660018  14.3620300
  39.9868948  73.1205213  15.0790172  35.5222083  70.7595267  15.6963539
  36.0550419  69.9983555  15.4662847  34.9936164  70.4668919  16.4387694
  38.6891777  55.8655333  11.2257181  38.3456047  56.7556974  11.1496292
  39.0570740  55.6756990  10.3626766  37.7688318  58.2359988   9.1906414
  37.2653113  58.1990123   8.3774220  38.0618925  59.1452731   9.2503071
  43.6276334  68.6096298   1.6682790  42.8505777  68.2707458   1.2237952
  44.3067815  68.6148922   0.9937755  36.8874795  69.8881259   3.2082351
  36.3596157  69.1534019   2.8955589  36.3862298  70.6655936   2.9622320
  41.8667641  68.0830280   8.3249398  41.2091316  68.7729541   8.4129526
  42.6708040  68.4726712   8.6683384  40.6773100  66.4374652   6.3753339
  41.1904982  67.0704644   6.8775049  41.3274324  65.8375848   6.0096699
  37.9395474  76.4158977  -0.8685990  37.2657173  76.7190673  -0.2601032
  38.3261296  77.2188057  -1.2180532  37.1553931  63.9124108   8.6211680
  36.2376492  64.1339055   8.4633368  37.5714075  63.9870418   7.7623387
  41.4434896  71.4180654   4.5032482  40.9897223  70.5771564   4.5597672
  40.8128863  72.0542052   4.8407262  40.3867816  62.3472640   5.7333149
  39.6490573  61.8350026   6.0643392  40.6394589  61.9073022   4.9216426
  39.8867835  73.2557151   5.4382300  40.1790810  73.8162208   4.7194666
  40.3966456  73.5485712   6.1935459  34.7600523  65.4202685   6.8351110
  34.8149133  64.4676521   6.7593586  33.9491725  65.5762124   7.3192408
  34.8501461  74.0337502   6.5275753  34.8077639  74.2598348   5.5984285
  35.7664160  73.8000876   6.6761554  38.2967094  64.5021569  13.4256382
  38.6516482  64.7293042  14.2850848  38.9439226  64.8339946  12.8033638
  44.0264831  67.6240005   4.1305712  43.8882730  67.8141601   3.2026901
  43.6701050  68.3859388   4.5873763  32.1906958  61.6098100  10.2102724
  32.8306337  61.4686859   9.5125687  31.3584488  61.3232614   9.8341326
  44.0534211  69.6916532   9.1416983  44.4870718  69.5991821   9.9900037
  44.7665792  69.6674033   8.5036999  32.9667261  70.9100531   6.3237716
  33.7607860  70.4150851   6.1220291  32.2558954  70.3818394   5.9605422
  37.7862106  73.2918626  10.6750084  37.8399128  73.8609563  11.4427800
  36.9176887  73.4620511  10.3104121  30.6660499  62.9936182  12.1574535
  31.3383553  62.7853545  11.5087184  29.8390286  62.7958268  11.7179767
  44.9149761  69.7340233  11.6749868  45.1085651  70.6386043  11.9209143
  44.8150379  69.2747652  12.5088453  36.5686071  59.6198123  14.1740196
  35.9213986  60.3188073  14.0804672  37.3387087  60.0534267  14.5416444
  39.9764869  69.8846976  17.2490749  39.8250376  69.6557527  16.3320833
  39.9669549  70.8417577  17.2622094  36.7450206  67.4578888  12.2337015
  37.6742266  67.6090048  12.0605983  36.3241236  67.5462909  11.3785662
  35.5438537  71.4829553  10.0035553  35.4049623  71.1148337  10.8761491
  34.7553134  71.9977192   9.8319511  36.1386689  76.5838649   1.3461090
  36.3138445  76.1126692   2.1606712  35.4519477  77.2104415   1.5742350
  37.0943753  70.8611155   7.3924391  36.7593585  70.8211925   8.2882041
  36.5947698  70.1955871   6.9194801  31.0687997  66.2678785  12.9176972
  30.9307795  65.5359024  13.5188511  31.9792920  66.1787685  12.6361160
  33.6970297  65.9798745  12.4060652  34.4069916  65.3391937  12.3647270
  33.6539605  66.2311640  13.3286832  41.6857076  72.9166098  15.3267231
  41.6269622  72.2325318  14.6597814  42.0876594  73.6585088  14.8747857
  32.4099231  62.9663963  14.2256291  31.8736588  62.5154701  14.8777887
  31.8215940  63.1009871  13.4826756  30.7047775  79.7328012   8.1200950
  30.9444373  80.3646536   8.7979968  29.8616971  79.3816052   8.4066309
  41.6874483  70.8805682  13.5581211  40.8001262  70.5431604  13.6807609
  42.2573034  70.1488713  13.7949976  28.1438352  62.1019970  11.3109286
  28.0596541  61.4945640  10.5759696  27.3221059  62.5928989  11.3118782
  35.2175637  75.5407134  10.5242454  35.1445808  76.3462106  11.0361758
  34.7753030  75.7399100   9.6990475  35.0065416  74.7778904   4.0345275
  34.2232938  75.3200585   4.1283500  35.7058161  75.2952884   4.4339517
  46.1691824  66.2913899   8.3197772  46.1581700  67.1738615   7.9491705
  45.3009203  65.9385450   8.1252309  37.6774320  75.4393968  12.6800612
  38.3902292  76.0741433  12.6076514  37.1864349  75.5357834  11.8640614
  39.3991847  69.3445221   4.2517904  38.4648126  69.4646684   4.0822608
  39.5768515  68.4417688   3.9877914  42.7864398  65.1862540   4.7867938
  43.2524851  66.0190532   4.7128241  43.2371899  64.7207522   5.4913197
  32.7286234  73.1888412  13.5006183  33.4295693  73.8224895  13.6535577
  32.2581349  73.5303143  12.7401823  40.8540629  71.5306362   1.7854090
  41.1300473  71.4162956   2.6947964  39.9845128  71.1323846   1.7466263
  40.7581061  57.5543127   8.8258840  39.8444141  57.7847354   8.9941047
  41.1874163  57.6381571   9.6772872  40.5287520  65.7433019  11.3258734
  39.8758970  65.9908927  10.6711186  40.9067899  64.9297157  10.9921211
  37.4894693  75.7792712   5.4286904  37.6717088  74.9614368   5.8914656
  38.3127679  75.9960405   4.9911794  37.8236859  74.7060898   2.6901952
  38.3524625  74.1953352   2.0772114  38.0865079  74.3903428   3.5547485
  36.5775093  66.4852830  17.8124771  35.9015730  66.3846960  18.4827146
  37.4002727  66.3292044  18.2760768  28.3253952  72.7224767  10.4337286
  28.9107389  71.9768455  10.5665190  28.1278790  73.0328724  11.3173950
  31.1792607  75.7576014   5.4499728  30.5102982  76.2422142   4.9663768
  31.0405477  76.0045235   6.3643107  35.3197876  77.7919758  12.0482387
  35.8716184  77.9551379  12.8131472  35.6604069  78.3824196  11.3762412
  30.2962369  60.1394908  12.6504271  30.3603695  61.0009738  12.2381669
  30.2329489  59.5268909  11.9176630  29.7714641  62.2118040  16.2977306
  30.3986680  61.8295117  16.9114830  28.9142560  61.9932242  16.6632998
  40.1708750  72.6181015  17.9031041  40.7148654  73.2310974  17.4085996
  39.5895595  73.1760594  18.4198054  38.4566263  75.7401733   9.0346069
  38.3317402  74.9391473   8.5257014  39.1145354  76.2347927   8.5460039
  40.5201171  73.5410753  10.6625619  39.5731507  73.4216105  10.5903946
  40.8683944  72.6533251  10.7451880  32.8800745  59.4304892  14.4863861
  33.4035146  59.6767189  15.2490170  32.6613078  60.2624927  14.0666998
  37.5247604  73.3363470   6.8629971  37.3772567  72.4080177   7.0437541
  38.3501098  73.3583560   6.3787046  41.1281726  74.1592028   7.9494844
  42.0528274  73.9534890   7.8119295  40.9597030  73.9108430   8.8584185
  34.0853290  60.3718587  12.1713531  33.7450110  59.5726400  12.5734211
  33.3792296  60.6720298  11.5990365  34.7369761  57.4567900  10.6240854
  35.5595831  56.9828378  10.5019745  34.9807825  58.2358384  11.1239541
  32.2608340  64.1487020   8.4332833  32.1152921  64.4627324   9.3257115
  31.7833544  64.7671921   7.8803732  35.9730854  61.5726909  10.5266850
  35.7148632  62.4943979  10.5251180  35.4415894  61.1757343  11.2167314
  40.9177043  74.6777696   3.3056935  41.0913920  74.1124118   2.5530788
  41.4105934  75.4778591   3.1236425  26.7354002  66.6892365  11.3720494
  26.1907470  67.4652173  11.5040769  27.6133352  67.0363169  11.2139616
  46.7716434  67.4414119   4.9247235  47.2147580  66.6921444   4.5266358
  45.8942944  67.4324255   4.5420967  41.9052215  73.9944460   0.4053834
  42.6003120  74.6151153   0.6241148  42.2475365  73.1439811   0.6806212
  27.5220024  65.8162261  14.2650651  26.7801760  65.9644897  14.8515281
  27.2012768  66.0770527  13.4017400  43.8043638  71.4444166   1.9341164
  44.3294962  71.7831438   1.2090484  43.7165991  70.5091181   1.7504299
  35.4663687  75.3578239  14.0631041  35.7750813  75.1127386  14.9353741
  36.2639169  75.5624878  13.5749911  35.4884299  77.5116149   6.2936418
  35.0489289  77.0192528   6.9869274  36.2392416  76.9689117   6.0528493
  27.9676638  73.7027690   6.2961046  28.7934658  73.4031462   5.9159689
  27.6170690  72.9335312   6.7450834  32.9358171  73.0554158   8.3658719
  32.3138180  72.3924863   8.0660947  33.6063038  73.0815290   7.6832367
  26.1685243  71.6214016   7.2549979  25.3317151  71.1936191   7.0733981
  26.1408888  71.8146460   8.1920770  33.0082699  61.5335946  17.9591225
  33.0570854  62.4098069  17.5768995  33.5505213  60.9913339  17.3862869
  43.4937544  72.0777069  17.2392362  42.7033088  72.0601208  16.6996862
  43.2570899  72.6165363  17.9941399  43.6135419  68.9269536  14.5525091
  43.6633424  68.7619543  15.4940614  43.5049343  68.0596795  14.1622972
  40.9039182  64.9100464  15.8684398  41.8049044  64.7706929  15.5768395
  40.9787156  65.0754919  16.8082575  35.2381987  62.2867319  14.7137584
  34.3685296  62.5800885  14.4420172  35.4741467  62.8707764  15.4344848
  45.1153616  71.3466477  14.7967112  44.8238424  71.7096458  15.6330573
  44.5025747  70.6333486  14.6180445  46.3149298  68.9119357   7.3169683
  47.1496190  69.3509161   7.4807243  46.4508427  68.4358010   6.4977928
  43.3640804  66.4699092  13.2647170  43.8394926  66.6626738  12.4566022
  42.4406370  66.5258278  13.0190554  37.9421021  58.5046935  12.2303004
  38.4602965  59.2407962  11.9049493  37.5876154  58.8110929  13.0649763
  42.0642473  63.3464852  11.4975476  43.0159896  63.4462950  11.5187700
  41.8945924  62.5543121  12.0073560  40.0856853  60.4320435  11.6834877
  39.4906785  60.7125448  10.9881366  39.8006549  60.9214336  12.4551618
  39.2164343  74.3843362   0.4437510  40.1495016  74.3188924   0.6470385
  39.1287556  75.2199629  -0.0147958  44.5430551  66.5670972  10.6117776
  44.5106871  65.6286972  10.7977460  45.1531175  66.6455008   9.8783601
  44.6925040  63.3582015  10.6576059  44.1764088  62.5740472  10.4705988
  45.5764988  63.0300732  10.8222578  50.3607101  67.6286979   9.7523812
  51.0910489  67.3672267  10.3131516  49.7514046  66.8915700   9.7925880
  48.4422398  65.7694841  10.3498264  47.7155562  65.6350806   9.7414755
  48.0269685  66.0771670  11.1554982  36.2652574  69.4884771  18.1145637
  37.1855584  69.6663370  18.3085683  36.2302158  68.5440816  17.9625336
  29.2614647  67.3985805  10.7568418  29.4800657  68.3302913  10.7756452
  29.6740421  67.0393780  11.5423222  34.1342512  62.9719011  20.1471167
  34.0339239  63.9213368  20.0783258  33.9164054  62.6437250  19.2747237
  25.3522999  68.3026276   9.0092033  24.6586471  67.8880229   8.4961987
  26.0995990  68.3446812   8.4125452  33.9973782  66.4016150  18.9636228
  33.5140864  67.2016510  19.1700117  34.0834721  66.4124095  18.0103672
  29.9247120  70.2920685  11.0004662  30.8790373  70.2604627  10.9334594
  29.7259643  69.8311308  11.8154888  30.5146502  68.8621801  13.5675460
  31.3339391  69.3565879  13.5910297  30.7883310  67.9453769  13.5393027
  43.6227634  61.2779074   6.6457755  44.3988024  61.7675527   6.9182371
  42.8975769  61.7037128   7.1029624  46.0600193  61.9906693   7.7031695
  46.6544684  61.7502429   6.9925004  46.1326777  61.2713824   8.3305232
  28.2797349  75.8340304   8.0174860  28.1451817  75.0740705   7.4512858
  27.8629411  76.5581204   7.5503649  40.2454122  66.7687089   3.1453706
  40.1889323  67.2255640   2.3061338  40.7982464  66.0077774   2.9676548
  44.0558928  62.5576821   3.9703825  43.7995862  62.1573457   4.8012033
  43.4311796  63.2720615   3.8453964  48.3671266  65.2972894   6.4775116
  47.8070824  65.3666083   7.2506679  47.7614769  65.1213879   5.7574613
  31.4366475  76.7309621   8.2293303  31.3198859  77.6755054   8.1271993
  30.6158921  76.4283183   8.6179102  41.3243009  71.4559757  -0.9250105
  42.1588613  71.0240955  -1.1072630  41.1627352  71.2841771   0.0026790
  25.7681416  63.1959935  14.2667657  26.4140280  62.6858889  14.7554882
  25.5598567  63.9328616  14.8411082  38.2934808  70.2640782  19.7659798
  39.1625968  70.4381434  19.4046432  37.8141560  71.0835199  19.6435527
  32.4620989  77.3837883  11.4449231  33.3648235  77.4161493  11.7615726
  32.2358359  76.4538334  11.4595567  34.2174591  76.1368870   8.1059310
  33.2670222  76.1370731   7.9923682  34.5207077  75.3901604   7.5895344
  30.1078907  60.3427552  18.3642671  30.9710369  59.9864357  18.5745996
  29.5344318  60.0041447  19.0518075  49.9527284  81.9729408   9.1705072
  50.5905694  81.8536155   8.4668412  49.8348127  82.9210252   9.2293024
  46.7616990  81.9256836   9.1066597  46.4235502  81.8097901   8.2187132
  47.6306759  81.5248001   9.0867603  42.6203806  83.7792313   5.0963488
  42.0568671  83.6882250   4.3279776  42.5056201  82.9592217   5.5765980
  47.2436773  83.0791688  15.0652802  47.2325414  82.6844486  14.1933306
  47.4057413  82.3457761  15.6586574  40.1668238  85.2743504   7.9347708
  40.9589530  84.9334329   7.5194008  40.4064888  85.3838479   8.8549862
  48.2003365  87.4463280   0.4077953  47.5491345  88.0317361   0.0211967
  48.9947728  87.9769475   0.4672990  42.1258992  84.5352417   0.8065087
  42.8989868  83.9881405   0.6677963  42.4784391  85.3996667   1.0179548
  43.9644035  85.8628800  14.0131986  43.6733901  86.7674431  13.8978653
  44.6001019  85.9045327  14.7276056  44.8900241  83.2405648  10.6033346
  45.4863814  83.0161671   9.8890309  44.9475213  82.4990394  11.2058794
  44.4625270  80.6945084  -1.5616463  44.7150791  80.1726605  -2.3233000
  43.5249829  80.5311229  -1.4589779  49.5068553  79.6980862   6.2458280
  50.2931642  79.2800285   5.8948697  49.7707257  80.6026954   6.4139929
  49.6778630  85.1353712   0.9446937  49.0424463  85.2088339   1.6567842
  49.3476036  85.7247311   0.2666016  54.9076980  79.6356095   7.1491259
  55.6402152  79.0655312   7.3829088  54.1516336  79.2477696   7.5897764
  44.1821559  82.5973190   0.6407912  44.0657817  81.9218093   1.3088996
  44.2923818  82.1105563  -0.1759935  46.5253100  82.0583337   4.3454601
  46.1611307  81.5313958   5.0567523  47.3820215  81.6681806   4.1721087
  52.4302400  73.3477669  11.6085867  52.0985725  74.2173080  11.3847082
  51.8348014  73.0313953  12.2879898  46.1658587  77.0873236  -0.6584050
  46.3332989  77.9553473  -0.2913579  45.9755756  77.2500518  -1.5822761
  48.9233920  85.5490215  11.0081780  48.6234643  86.4515254  10.8997587
  48.5784979  85.2822398  11.8602933  42.3746401  82.0004012   7.0418485
  41.4496898  81.8680226   7.2496176  42.6230814  82.7798231   7.5388427
  52.3231063  78.0672755   8.6879217  51.4147941  77.9988164   8.3937978
  52.2718659  78.5444700   9.5161043  46.1447807  79.5430894   0.3262617
  46.0247433  79.9887945   1.1648097  45.4500396  79.8916211  -0.2323845
  39.7355212  81.6437286   7.8762274  39.8647593  81.8971765   8.7901685
  39.0552664  82.2364994   7.5566929  43.9054699  92.3134536   3.9752748
  43.8278729  93.2642361   4.0541228  43.3016343  91.9680408   4.6327674
  46.3971929  79.4862401  16.6314115  45.6205263  80.0456321  16.6216979
  47.0362492  79.9719184  17.1528985  54.1892710  76.2689194  10.4657091
  53.5467090  76.5621727   9.8196886  53.6847638  76.1542114  11.2710288
  51.8432874  80.0152367   1.1542951  52.7550730  80.2479754   0.9790648
  51.3342521  80.5989411   0.5918029  44.6518302  82.2947854  16.1932082
  45.3932986  82.8332898  15.9166905  43.9455287  82.9214143  16.3503633
  50.1273641  84.4376995  14.7904243  50.5356997  83.9959405  14.0458876
  49.4050903  83.8629622  15.0438436  46.4804711  79.3749602  12.1637800
  47.3265906  79.7989015  12.3072449  46.4203349  78.7183226  12.8576363
  50.4502456  84.9978185   8.5456532  49.8211318  85.1623900   7.8432600
  50.0628118  85.4119795   9.3167496  54.3291688  85.9332623   5.9000896
  53.6442726  86.3131525   5.3497929  54.4135537  86.5427950   6.6332844
  49.6304157  77.0353970  13.8218974  49.3865088  77.7896030  13.2853249
  49.9064087  77.4139318  14.6566221  51.5842619  83.5792582  12.4996239
  51.7959515  84.2224342  11.8230620  51.5372368  82.7454899  12.0318169
  49.1868848  76.1910403   9.4032811  48.3253327  76.4891657   9.6949549
  49.2131283  76.4080802   8.4713844  46.0030418  84.7352594   5.8106617
  46.4668763  85.0140297   5.0211240  45.7387216  83.8336038   5.6279708
  42.8954499  84.2824075   8.7486380  43.4655856  84.7111343   8.1103865
  43.4862611  84.0006660   9.4470566  44.9399304  80.8575746   2.6196182
  45.6423347  81.3096790   3.0870109  44.6079932  80.2159565   3.2476075
  43.3879665  79.4487503  16.9947392  42.7578326  80.1303783  17.2282789
  43.2815753  79.3370584  16.0500530  38.6824638  79.1159299   7.9213316
  37.8923692  79.3716827   7.4453426  39.1735885  79.9307636   8.0265356
  52.6988447  86.4564538  10.6718597  53.5205891  86.0544725  10.3901278
  52.6950850  86.3532772  11.6234712  40.6339383  79.4803878   4.8796793
  39.8370546  79.5922572   5.3980288  40.4064975  79.8190530   4.0137683
  46.4645051  86.0048581  12.8279307  46.5289483  86.4668988  13.6637479
  45.7555975  85.3745946  12.9561617  36.9662341  79.3689789  10.3528307
  37.2170379  80.2536799  10.6185883  37.5021889  79.1894391   9.5803398
  60.7894440  82.8003286   7.0203568  60.0358149  82.2310684   6.8647573
  60.9241982  82.7665951   7.9674203  46.1793068  87.6716689   2.6958288
  46.0438743  88.5168224   3.1243135  46.7202881  87.8735966   1.9324221
  42.6660408  73.7508268  19.3572643  42.2727354  73.1974467  20.0320287
  43.4826548  74.0618847  19.7479160  39.6322466  85.1892127   3.2686213
  40.1446986  85.9835377   3.4191777  40.2845179  84.4918417   3.2019814
  41.4417351  88.3057883   5.3508966  41.6183979  89.2275848   5.1629950
  42.2374184  87.9916302   5.7803346  45.5828369  75.1666147  16.9492899
  46.3238082  75.7673301  16.8697362  45.8146292  74.4243785  16.3910942
  40.7269707  80.3522515  15.2271129  40.6123222  79.4507772  15.5278228
  39.8714225  80.5986211  14.8755946  47.8061545  88.2940255  16.8258630
  47.3625399  87.5076634  16.5079534  48.4678758  88.4819406  16.1602520
  42.5648666  89.8236057  11.3519308  43.1156091  89.6953120  10.5796302
  41.7260142  90.1230946  11.0014201  49.9042783  88.5743055  14.8540031
  49.8861258  89.3951936  14.3620300  50.8262703  88.4497130  15.0790172
  46.3615837  86.0887184  15.6963539  46.8944174  85.3275473  15.4662847
  45.8329918  85.7960836  16.4387694  49.5285532  71.1947250  11.2257181
  49.1849801  72.0848892  11.1496292  49.8964495  71.0048908  10.3626766
  37.5971383  83.5180781   4.0445783  38.4346605  83.9277789   3.8279491
  37.7749650  82.5780223   4.0145977  49.4935815  81.1855862  -0.2670384
  48.9782438  81.9560466  -0.0281996  49.2213123  80.5120998   0.3562678
  47.0782926  76.0305562   4.7914854  46.2224522  75.6412413   4.6120493
  47.4909877  76.1097523   3.9314640  48.6082072  73.5651906   9.1906414
  48.1046868  73.5282041   8.3774220  48.9012679  74.4744648   9.2503071
  44.8524958  73.6490635   8.1972596  45.7177955  73.4533444   7.8378485
  44.9202467  73.4200987   9.1241953  54.4670089  83.9388216   1.6682790
  53.6899532  83.5999376   1.2237952  55.1461570  83.9440839   0.9937755
  49.2822118  79.0582954   1.5589397  48.9772253  79.3729103   2.4099540
  50.2352560  79.1364374   1.6016730  47.7268550  85.2173177   3.2082351
  47.1989911  84.4825937   2.8955589  47.2256052  85.9947853   2.9622320
  52.7061396  83.4122197   8.3249398  52.0485070  84.1021459   8.4129526
  53.5101795  83.8018629   8.6683384  42.4587277  75.8792843   5.5688963
  43.0331029  75.6568025   4.8362156  43.0458260  75.9481538   6.3217564
  51.5166855  81.7666570   6.3753339  52.0298736  82.3996562   6.8775049
  52.1668078  81.1667766   6.0096699  42.7856864  77.9097304  -0.4115152
  41.9494177  78.2471991  -0.0905877  42.6461634  77.7746284  -1.3488015
  44.7609945  72.7534092   4.2964032  44.1074357  72.4383109   3.6720647
  44.7190419  72.1309833   5.0223855  45.8721150  83.0353387  -3.7882676
  44.9648212  82.8042641  -3.5891527  46.3692182  82.2391006  -3.6008694
  48.7789229  91.7450894  -0.8685990  48.1050928  92.0482591  -0.2601032
  49.1655051  92.5479975  -1.2180532  47.9947685  79.2416026   8.6211680
  47.0770247  79.4630973   8.4633368  48.4107829  79.3162336   7.7623387
  48.7782733  80.6407441   3.7514360  49.5254552  81.1528839   3.4421482
  49.0474323  80.3191494   4.6118754  47.0509383  83.1365982   0.7341314
  46.1420603  82.8525015   0.8313784  47.0804467  83.5565061  -0.1255379
  52.2828651  86.7472572   4.5032482  51.8290978  85.9063481   4.5597672
  51.6522617  87.3833970   4.8407262  51.2261570  77.6764558   5.7333149
  50.4884327  77.1641944   6.0643392  51.4788344  77.2364939   4.9216426
  50.7261590  88.5849068   5.4382300  51.0184564  89.1454125   4.7194666
  51.2360211  88.8777629   6.1935459  51.3273198  70.4540810   6.3274919
  51.6332074  69.5938173   6.0400834  52.0525802  71.0458430   6.1273913
  37.6197554  80.8571496   4.7156517  37.4221954  80.2640857   3.9907583
  37.0644218  80.5523706   5.4332455  45.5994277  80.7494603   6.8351110
  45.6542887  79.7968439   6.7593586  44.7885479  80.9054042   7.3192408
  46.7485471  84.6774726  -1.9270607  46.3104901  83.9610585  -2.3864970
  47.4895912  84.9050841  -2.4885516  43.5386637  79.3671662   4.5941489
  42.7254503  79.6665833   5.0006681  44.0345631  78.9727351   5.3115971
  45.6895215  89.3629419   6.5275753  45.6471394  89.5890266   5.5984285
  46.6057914  89.1292794   6.6761554  49.1360849  79.8313487  13.4256382
  49.4910237  80.0584960  14.2850848  49.7832980  80.1631864  12.8033638
  54.8658586  82.9531923   4.1305712  54.7276485  83.1433519   3.2026901
  54.5094805  83.7151306   4.5873763  43.0300712  76.9390018  10.2102724
  43.6700091  76.7978777   9.5125687  42.1978243  76.6524531   9.8341326
  54.8927966  85.0208450   9.1416983  55.3264472  84.9283739   9.9900037
  55.6059546  84.9965950   8.5036999  43.8061016  86.2392448   6.3237716
  44.6001614  85.7442768   6.1220291  43.0952708  85.7110311   5.9605422
  48.6255860  88.6210544  10.6750084  48.6792883  89.1901480  11.4427800
  47.7570642  88.7912429  10.3104121  40.1143779  80.3835530   2.3997469
  39.1841368  80.3219986   2.6167431  40.2101251  79.8611483   1.6034110
  40.0329328  76.9090343   4.9875710  40.2936146  77.8235676   4.8784871
  40.8546501  76.4414785   5.1372323  41.5054254  78.3228100  12.1574535
  42.1777307  78.1145462  11.5087184  40.6784040  78.1250186  11.7179767
  55.7543515  85.0632150  11.6749868  55.9479405  85.9677961  11.9209143
  55.6544133  84.6039570  12.5088453  47.4079826  74.9490041  14.1740196
  46.7607741  75.6479991  14.0804672  48.1780841  75.3826185  14.5416444
  50.8158624  85.2138893  17.2490749  50.6644130  84.9849445  16.3320833
  50.8063303  86.1709495  17.2622094  47.5843960  82.7870806  12.2337015
  48.5136020  82.9381966  12.0605983  47.1634990  82.8754827  11.3785662
  46.3832292  86.8121470  10.0035553  46.2443378  86.4440255  10.8761491
  45.5946888  87.3269110   9.8319511  46.9780444  91.9130567   1.3461090
  47.1532200  91.4418610   2.1606712  46.2913232  92.5396333   1.5742350
  47.9337507  86.1903073   7.3924391  47.5987340  86.1503843   8.2882041
  47.4341453  85.5247789   6.9194801  41.9081751  81.5970703  12.9176972
  41.7701549  80.8650942  13.5188511  42.8186675  81.5079603  12.6361160
  50.8696699  83.5359107  -2.3338549  50.2525869  82.8105936  -2.4305497
  50.4013187  84.2968468  -2.6771475  44.5364052  81.3090662  12.4060652
  45.2463670  80.6683855  12.3647270  44.4933360  81.5603557  13.3286832
  52.5250830  88.2458016  15.3267231  52.4663377  87.5617236  14.6597814
  52.9270349  88.9877006  14.8747857  43.2492986  78.2955880  14.2256291
  42.7130343  77.8446619  14.8777887  42.6609694  78.4301789  13.4826756
  41.5441529  95.0619930   8.1200950  41.7838127  95.6938454   8.7979968
  40.7010726  94.7107970   8.4066309  42.6595245  77.7544532  -3.2117245
  41.7824711  77.6333332  -3.5754999  43.1352998  76.9630610  -3.4638357
  52.5268238  86.2097600  13.5581211  51.6395016  85.8723521  13.6807609
  53.0966789  85.4780631  13.7949976  34.1797385  82.5421691   6.8824262
  34.8668425  82.2283421   6.2945277  34.0245513  83.4463056   6.6091513
  38.9832107  77.4311888  11.3109286  38.8990296  76.8237558  10.5759696
  38.1614813  77.9220906  11.3118782  46.0569391  90.8699052  10.5242454
  45.9839563  91.6754024  11.0361758  45.6146784  91.0691018   9.6990475
  45.8459171  90.1070822   4.0345275  45.0626693  90.6492502   4.1283500
  46.5451916  90.6244802   4.4339517  49.1555821  75.9165452   6.6779481
  49.6524520  75.1635414   6.3580551  48.3842802  75.9529768   6.1122690
  57.0085578  81.6205817   8.3197772  56.9975454  82.5030532   7.9491705
  56.1402958  81.2677368   8.1252309  48.5168075  90.7685886  12.6800612
  49.2296047  91.4033351  12.6076514  48.0258103  90.8649752  11.8640614
  50.2385601  84.6737139   4.2517904  49.3041880  84.7938601   4.0822608
  50.4162270  83.7709605   3.9877914  45.7390790  78.0582834   6.4051165
  45.3688577  77.5053875   7.0932071  46.2349882  77.4540968   5.8526165
  53.6258153  80.5154458   4.7867938  54.0918605  81.3482450   4.7128241
  54.0765653  80.0499440   5.4913197  43.5679988  88.5180330  13.5006183
  44.2689448  89.1516812  13.6535577  43.0975103  88.8595061  12.7401823
  51.6934384  86.8598279   1.7854090  51.9694228  86.7454874   2.6947964
  50.8238883  86.4615764   1.7466263  51.5974816  72.8835045   8.8258840
  50.6837895  73.1139272   8.9941047  52.0267917  72.9673489   9.6772872
  51.3681274  81.0724937  11.3258734  50.7152724  81.3200844  10.6711186
  51.7461654  80.2589075  10.9921211  48.3288448  91.1084630   5.4286904
  48.5110843  90.2906286   5.8914656  49.1521434  91.3252322   4.9911794
  48.6630613  90.0352815   2.6901952  49.1918380  89.5245270   2.0772114
  48.9258833  89.7195345   3.5547485  47.4168847  81.8144748  17.8124771
  46.7409484  81.7138877  18.4827146  48.2396481  81.6583962  18.2760768
  39.1647706  88.0516685  10.4337286  39.7501143  87.3060372  10.5665190
  38.9672545  88.3620641  11.3173950  42.0186361  91.0867932   5.4499728
  41.3496737  91.5714060   4.9663768  41.8799231  91.3337152   6.3643107
  33.7565361  80.6222285   9.1541729  33.7949460  80.0885875   9.9478847
  33.2505654  80.0957490   8.5352706  46.1591630  93.1211675  12.0482387
  46.7109938  93.2843297  12.8131472  46.4997823  93.7116113  11.3762412
  41.1356123  75.4686825  12.6504271  41.1997450  76.3301656  12.2381669
  41.0723243  74.8560827  11.9176630  40.6108396  77.5409958  16.2977306
  41.2380435  77.1587035  16.9114830  39.7536315  77.3224160  16.6632998
  51.0102504  87.9472933  17.9031041  51.5542408  88.5602891  17.4085996
  50.4289349  88.5052511  18.4198054  37.3873939  79.3486387   2.2295660
  37.6827380  78.4397065   2.1762714  36.4861974  79.3274126   1.9076663
  49.2960017  91.0693651   9.0346069  49.1711157  90.2683391   8.5257014
  49.9539108  91.5639844   8.5460039  40.9168186  77.4242383   8.2123209
  40.1954771  78.0378351   8.0730682  41.7061441  77.9600148   8.1339855
  51.3594926  88.8702671  10.6625619  50.4125261  88.7508022  10.5903946
  51.7077699  87.9825169  10.7451880  43.7194499  74.7596810  14.4863861
  44.2428901  75.0059107  15.2490170  43.5006832  75.5916845  14.0666998
  39.1161780  77.0300485   2.3534986  38.7874486  76.1497864   2.1710092
  39.4701151  76.9748153   3.2411375  48.3641359  88.6655387   6.8629971
  48.2166321  87.7372095   7.0437541  49.1894852  88.6875478   6.3787046
  42.2303603  77.3173454   2.7210463  42.5699676  77.8459376   1.9989072
  42.6775724  77.6553861   3.4969030  51.9675481  89.4883946   7.9494844
  52.8922028  89.2826807   7.8119295  51.7990784  89.2400347   8.8584185
  44.9247044  75.7010505  12.1713531  44.5843864  74.9018318  12.5734211
  44.2186050  76.0012216  11.5990365  45.5763516  72.7859818  10.6240854
  46.3989585  72.3120296  10.5019745  45.8201579  73.5650301  11.1239541
  44.2171750  75.8148076   0.9203756  44.9380113  76.1929329   0.4167473
  43.5937055  76.5336953   1.0238734  48.3602873  76.5193225   1.8562088
  48.5766488  77.4017863   1.5550917  47.8796940  76.1279438   1.1267730
  43.1002095  79.4778938   8.4332833  42.9546675  79.7919241   9.3257115
  42.6227298  80.0963838   7.8803732  44.9598478  76.4681486   8.4813723
  44.9460046  75.5722579   8.1446021  45.6770906  76.4752150   9.1152009
  46.8124608  76.9018826  10.5266850  46.5542386  77.8235897  10.5251180
  46.2809649  76.5049261  11.2167314  51.7570797  90.0069613   3.3056935
  51.9307675  89.4416036   2.5530788  52.2499688  90.8070508   3.1236425
  37.5747757  82.0184283  11.3720494  37.0301225  82.7944091  11.5040769
  38.4527107  82.3655087  11.2139616  44.3635373  75.3495866   3.7501293
  44.4851285  74.4212513   3.9492180  44.0737416  75.3634552   2.8379608
  47.2326564  73.0350777   6.8868013  47.2548261  73.0990110   5.9319992
  47.6494623  72.1955286   7.0808519  57.6110188  82.7706036   4.9247235
  58.0541334  82.0213362   4.5266358  56.7336698  82.7616173   4.5420967
  52.7445969  89.3236378   0.4053834  53.4396874  89.9443071   0.6241148
  53.0869120  88.4731729   0.6806212  38.3613779  81.1454179  14.2650651
  37.6195515  81.2936814  14.8515281  38.0406523  81.4062444  13.4017400
  54.6437393  86.7736083   1.9341164  55.1688717  87.1123356   1.2090484
  54.5559745  85.8383099   1.7504299  46.3057441  90.6870157  14.0631041
  46.6144568  90.4419304  14.9353741  47.1032923  90.8916796  13.5749911
  46.3278053  92.8408067   6.2936418  45.8883044  92.3484445   6.9869274
  47.0786170  92.2981034   6.0528493  38.8070392  89.0319608   6.2961046
  39.6328412  88.7323379   5.9159689  38.4564444  88.2627230   6.7450834
  43.7751926  88.3846076   8.3658719  43.1531935  87.7216781   8.0660947
  44.4456792  88.4107208   7.6832367  37.0078997  86.9505934   7.2549979
  36.1710906  86.5228108   7.0733981  36.9802643  87.1438377   8.1920770
  43.8476453  76.8627864  17.9591225  43.8964608  77.7389987  17.5768995
  44.3898967  76.3205257  17.3862869  54.3331299  87.4068987  17.2392362
  53.5426842  87.3893126  16.6996862  54.0964653  87.9457281  17.9941399
  54.4529174  84.2561453  14.5525091  54.5027179  84.0911461  15.4940614
  54.3443097  83.3888712  14.1622972  43.3365432  86.9349999   1.8417180
  43.4853553  87.6185464   1.1883853  44.1431876  86.9155089   2.3566636
  51.7432936  80.2392381  15.8684398  52.6442799  80.0998846  15.5768395
  51.8180911  80.4046836  16.8082575  46.0775741  77.6159236  14.7137584
  45.2079051  77.9092802  14.4420172  46.3135222  78.1999681  15.4344848
  55.9547371  86.6758395  14.7967112  55.6632179  87.0388375  15.6330573
  55.3419502  85.9625403  14.6180445  57.1543053  84.2411275   7.3169683
  57.9889944  84.6801079   7.4807243  57.2902182  83.7649928   6.4977928
  54.2034559  81.7991010  13.2647170  54.6788680  81.9918656  12.4566022
  53.2800124  81.8550195  13.0190554  41.0918065  82.9615177   2.8478249
  40.8464107  82.0577507   3.0458459  41.2613980  82.9632327   1.9057727
  48.7814775  73.8338853  12.2303004  49.2996719  74.5699880  11.9049493
  48.4269908  74.1402846  13.0649763  40.3613713  78.6943534   0.3464410
  39.6682958  78.7687889  -0.3095554  40.1165465  77.9303878   0.8685927
  49.0327369  70.2539136   7.7503901  49.3129123  69.5862325   8.3764327
  49.8177976  70.4468231   7.2378565  46.8360838  89.4298130  -0.6871073
  46.2634805  90.0488317  -1.1400601  47.4093632  89.9797491  -0.1531151
  52.9036228  78.6756770  11.4975476  53.8553651  78.7754867  11.5187700
  52.7339678  77.8835038  12.0073560  50.9250607  75.7612353  11.6834877
  50.3300539  76.0417366  10.9881366  50.6400304  76.2506254  12.4551618
  50.0558098  89.7135280   0.4437510  50.9888771  89.6480841   0.6470385
  49.9681311  90.5491547  -0.0147958  52.6846114  89.0301150  -2.5958543
  52.6059746  88.6961014  -1.7022785  53.5055781  89.5222918  -2.5967071
  55.3824306  81.8962889  10.6117776  55.3500626  80.9578890  10.7977460
  55.9924929  81.9746926   9.8783601  47.2207636  80.7658942  -3.3455020
  48.1666741  80.6365150  -3.2766602  46.8421881  80.0273604  -2.8685592
  55.5318794  78.6873933  10.6576059  55.0157843  77.9032389  10.4705988
  56.4158743  78.3592649  10.8222578  53.1929521  72.4314948   6.6171872
  52.9954342  72.1230037   7.5015204  53.8029227  73.1576587   6.7469801
  61.2000855  82.9578896   9.7523812  61.9304244  82.6964184  10.3131516
  60.5907801  82.2207618   9.7925880  59.2816153  81.0986759  10.3498264
  58.5549316  80.9642724   9.7414755  58.8663439  81.4063587  11.1554982
  47.1046329  84.8176688  18.1145637  48.0249338  84.9955287  18.3085683
  47.0695912  83.8732734  17.9625336  45.4050554  78.6908919  -3.4100135
  44.4982009  78.3942031  -3.3337421  45.6826535  78.3938737  -4.2765849
  36.3228494  80.0115282   7.0398911  36.0031278  79.1580590   6.7473285
  35.7761922  80.2263860   7.7956879  40.1008402  82.7277723  10.7568418
  40.3194411  83.6594831  10.7756452  40.5134175  82.3685698  11.5423222
  47.0212619  73.2345808   2.7444106  46.2113348  72.8892893   3.1199352
  47.7097036  72.9253352   3.3331718  48.9503168  72.3123855   4.3668403
  49.5034206  72.7319309   5.0258426  49.1873254  71.3859603   4.4091359
  44.9736267  78.3010929  20.1471167  44.8732994  79.2505286  20.0783258
  44.7557809  77.9729168  19.2747237  44.1749338  75.5495854  -3.2688156
  45.0368502  75.8750752  -3.0092338  44.3599682  74.7627350  -3.7815090
  36.1916754  83.6318194   9.0092033  35.4980225  83.2172146   8.4961987
  36.9389745  83.6738730   8.4125452  52.3281975  74.4224380   3.8747067
  51.7480644  75.0809184   3.4925120  52.0617907  73.6001725   3.4634485
  50.7785541  73.8229438   6.0768387  51.2785319  73.9345973   5.2682706
  51.4221149  73.5190491   6.7169196  44.8367537  81.7308068  18.9636228
  44.3534619  82.5308428  19.1700117  44.9228476  81.7416013  18.0103672
  38.1053497  83.5636447   6.8858048  38.0824185  83.6624135   5.9339931
  38.4154133  84.4101598   7.2075214  40.7640874  85.6212602  11.0004662
  41.7184128  85.5896545  10.9334594  40.5653398  85.1603226  11.8154888
  41.3540257  84.1913718  13.5675460  42.1733146  84.6857797  13.5910297
  41.6277064  83.2745687  13.5393027  51.1106853  76.5824471   2.9303415
  50.2232708  76.8674121   2.7123610  51.5260842  76.4218234   2.0830692
  54.4621389  76.6070992   6.6457755  55.2381779  77.0967444   6.9182371
  53.7369523  77.0329046   7.1029624  56.8993947  77.3198611   7.7031695
  57.4938438  77.0794347   6.9925004  56.9720531  76.6005742   8.3305232
  39.1191103  91.1632222   8.0174860  38.9845571  90.4032623   7.4512858
  38.7023165  91.8873122   7.5503649  50.2550066  86.3469145  -2.9748565
  50.9585916  86.5519148  -2.3590909  49.5312715  86.9145907  -2.7099481
  51.0847876  82.0979007   3.1453706  51.0283078  82.5547558   2.3061338
  51.6376219  81.3369691   2.9676548  54.8952682  77.8868739   3.9703825
  54.6389617  77.4865374   4.8012033  54.2705550  78.6012533   3.8453964
  59.2065020  80.6264812   6.4775116  58.6464578  80.6958001   7.2506679
  58.6008524  80.4505796   5.7574613  42.2760229  92.0601539   8.2293303
  42.1592613  93.0046971   8.1271993  41.4552675  91.7575100   8.6179102
  52.1636764  86.7851675  -0.9250105  52.9982368  86.3532873  -1.1072630
  52.0021107  86.6133688   0.0026790  51.8182656  83.2883788   0.4406235
  51.7631460  83.1228059  -0.5005321  51.1928711  83.9959821   0.5968424
  36.6075171  78.5251852  14.2667657  37.2534034  78.0150806  14.7554882
  36.3992322  79.2620534  14.8411082  49.1328563  85.5932700  19.7659798
  50.0019723  85.7673352  19.4046432  48.6535314  86.4127117  19.6435527
  45.1278781  72.7891897   0.0191553  45.1157451  73.7333737   0.1759824
  46.0202203  72.6062042  -0.2748986  43.3014743  92.7129801  11.4449231
  44.2041990  92.7453411  11.7615726  43.0752113  91.7830252  11.4595567
  45.0568345  91.4660787   8.1059310  44.1063976  91.4662649   7.9923682
  45.3600831  90.7193522   7.5895344  48.9430901  69.3834674   4.2737490
  48.1763296  68.8293160   4.4194172  49.3541606  69.4556542   5.1351642
  40.9472662  75.6719469  18.3642671  41.8104123  75.3156274  18.5745996
  40.3738072  75.3333364  19.0518075  60.7921039  97.3021326   9.1705072
  61.4299449  97.1828073   8.4668412  60.6741882  98.2502170   9.2293024
  57.6010745  97.2548754   9.1066597  57.2629256  97.1389819   8.2187132
  58.4700513  96.8539919   9.0867603  53.4597561  99.1084230   5.0963488
  52.8962426  99.0174167   4.3279776  53.3449956  98.2884135   5.5765980
  58.0830528  98.4083606  15.0652802  58.0719169  98.0136404  14.1933306
  58.2451167  97.6749678  15.6586574  51.0061993 100.6035422   7.9347708
  51.7983285 100.2626247   7.5194008  51.2458643 100.7130397   8.8549862
  59.0397119 102.7755198   0.4077953  58.3885099 103.3609278   0.0211967
  59.8341482 103.3061393   0.4672990  52.9652747  99.8644335   0.8065087
  53.7383623  99.3173322   0.6677963  53.3178145 100.7288584   1.0179548
  54.8037789 101.1920717  14.0131986  54.5127655 102.0966348  13.8978653
  55.4394773 101.2337245  14.7276056  55.7293996  98.5697566  10.6033346
  56.3257568  98.3453588   9.8890309  55.7868967  97.8282311  11.2058794
  55.3019024  96.0237001  -1.5616463  55.5544545  95.5018523  -2.3233000
  54.3643583  95.8603147  -1.4589779  60.3462307  95.0272780   6.2458280
  61.1325396  94.6092203   5.8948697  60.6101011  95.9318872   6.4139929
  60.5172385 100.4645630   0.9446937  59.8818218 100.5380256   1.6567842
  60.1869791 101.0539229   0.2666016  65.7470734  94.9648013   7.1491259
  66.4795906  94.3947230   7.3829088  64.9910090  94.5769613   7.5897764
  55.0215313  97.9265107   0.6407912  54.9051571  97.2510011   1.3088996
  55.1317573  97.4397481  -0.1759935  57.3646854  97.3875254   4.3454601
  57.0005061  96.8605875   5.0567523  58.2213970  96.9973723   4.1721087
  63.2696155  88.6769587  11.6085867  62.9379479  89.5464998  11.3847082
  62.6741768  88.3605871  12.2879898  57.0052341  92.4165154  -0.6584050
  57.1726743  93.2845390  -0.2913579  56.8149510  92.5792436  -1.5822761
  59.7627674 100.8782133  11.0081780  59.4628397 101.7807172  10.8997587
  59.4178734 100.6114316  11.8602933  53.2140156  97.3295930   7.0418485
  52.2890652  97.1972144   7.2496176  53.4624569  98.1090149   7.5388427
  63.1624818  93.3964673   8.6879217  62.2541695  93.3280082   8.3937978
  63.1112414  93.8736618   9.5161043  56.9841562  94.8722811   0.3262617
  56.8641187  95.3179862   1.1648097  56.2894150  95.2208129  -0.2323845
  50.5748967  96.9729203   7.8762274  50.7041348  97.2263682   8.7901685
  49.8946418  97.5656911   7.5566929  54.7448454 107.6426453   3.9752748
  54.6672484 108.5934278   4.0541228  54.1410098 107.2972326   4.6327674
  57.2365684  94.8154319  16.6314115  56.4599018  95.3748239  16.6216979
  57.8756247  95.3011102  17.1528985  65.0286464  91.5981111  10.4657091
  64.3860845  91.8913645   9.8196886  64.5241393  91.4834032  11.2710288
  62.6826628  95.3444285   1.1542951  63.5944484  95.5771671   0.9790648
  62.1736275  95.9281329   0.5918029  55.4912056  97.6239772  16.1932082
  56.2326740  98.1624816  15.9166905  54.7849042  98.2506061  16.3503633
  60.9667396  99.7668913  14.7904243  61.3750752  99.3251323  14.0458876
  60.2444657  99.1921540  15.0438436  57.3198466  94.7041519  12.1637800
  58.1659661  95.1280933  12.3072449  57.2597103  94.0475144  12.8576363
  61.2896210 100.3270103   8.5456532  60.6605073 100.4915817   7.8432600
  60.9021872 100.7411713   9.3167496  65.1685442 101.2624541   5.9000896
  64.4836480 101.6423442   5.3497929  65.2529292 101.8719868   6.6332844
  60.4697911  92.3645888  13.8218974  60.2258843  93.1187948  13.2853249
  60.7457842  92.7431235  14.6566221  62.4236374  98.9084500  12.4996239
  62.6353269  99.5516260  11.8230620  62.3766122  98.0746817  12.0318169
  60.0262603  91.5202321   9.4032811  59.1647082  91.8183574   9.6949549
  60.0525037  91.7372720   8.4713844  56.8424172 100.0644511   5.8106617
  57.3062518 100.3432214   5.0211240  56.5780970  99.1627956   5.6279708
  53.7348253  99.6115993   8.7486380  54.3049610 100.0403261   8.1103865
  54.3256365  99.3298577   9.4470566  55.7793058  96.1867664   2.6196182
  56.4817102  96.6388707   3.0870109  55.4473687  95.5451482   3.2476075
  54.2273420  94.7779420  16.9947392  53.5972080  95.4595701  17.2282789
  54.1209508  94.6662502  16.0500530  49.5218392  94.4451216   7.9213316
  48.7317446  94.7008745   7.4453426  50.0129640  95.2599554   8.0265356
  63.5382202 101.7856455  10.6718597  64.3599646 101.3836643  10.3901278
  63.5344605 101.6824690  11.6234712  51.4733138  94.8095795   4.8796793
  50.6764301  94.9214490   5.3980288  51.2458730  95.1482448   4.0137683
  57.3038805 101.3340499  12.8279307  57.3683238 101.7960906  13.6637479
  56.5949729 100.7037864  12.9561617  47.8056095  94.6981707  10.3528307
  48.0564134  95.5828717  10.6185883  48.3415644  94.5186308   9.5803398
  71.6288195  98.1295204   7.0203568  70.8751903  97.5602602   6.8647573
  71.7635736  98.0957868   7.9674203  57.0186823 103.0008606   2.6958288
  56.8832498 103.8460142   3.1243135  57.5596635 103.2027884   1.9324221
  53.5054163  89.0800186  19.3572643  53.1121108  88.5266385  20.0320287
  54.3220303  89.3910765  19.7479160  50.4716220 100.5184044   3.2686213
  50.9840741 101.3127294   3.4191777  51.1238933  99.8210335   3.2019814
  52.2811105 103.6349801   5.3508966  52.4577733 104.5567765   5.1629950
  53.0767939 103.3208220   5.7803346  56.4222124  90.4958065  16.9492899
  57.1631837  91.0965218  16.8697362  56.6540046  89.7535703  16.3910942
  51.5663462  95.6814432  15.2271129  51.4516977  94.7799690  15.5278228
  50.7107979  95.9278129  14.8755946  58.6455299 103.6232173  16.8258630
  58.2019153 102.8368551  16.5079534  59.3072513 103.8111323  16.1602520
  53.4042420 105.1527974  11.3519308  53.9549846 105.0245038  10.5796302
  52.5653896 105.4522863  11.0014201  60.7436537 103.9034973  14.8540031
  60.7255013 104.7243854  14.3620300  61.6656457 103.7789048  15.0790172
  57.2009592 101.4179102  15.6963539  57.7337928 100.6567390  15.4662847
  56.6723673 101.1252754  16.4387694  60.3679286  86.5239168  11.2257181
  60.0243556  87.4140810  11.1496292  60.7358249  86.3340826  10.3626766
  48.4365137  98.8472699   4.0445783  49.2740359  99.2569707   3.8279491
  48.6143405  97.9072141   4.0145977  60.3329569  96.5147779  -0.2670384
  59.8176193  97.2852384  -0.0281996  60.0606878  95.8412915   0.3562678
  57.9176680  91.3597480   4.7914854  57.0618277  90.9704330   4.6120493
  58.3303632  91.4389441   3.9314640  59.4475827  88.8943823   9.1906414
  58.9440622  88.8573958   8.3774220  59.7406434  89.8036566   9.2503071
  55.6918713  88.9782553   8.1972596  56.5571710  88.7825362   7.8378485
  55.7596222  88.7492905   9.1241953  65.3063843  99.2680134   1.6682790
  64.5293286  98.9291293   1.2237952  65.9855324  99.2732757   0.9937755
  60.1215872  94.3874871   1.5589397  59.8166008  94.7021020   2.4099540
  61.0746314  94.4656291   1.6016730  58.5662304 100.5465095   3.2082351
  58.0383666  99.8117854   2.8955589  58.0649807 101.3239771   2.9622320
  63.5455150  98.7414115   8.3249398  62.8878825  99.4313376   8.4129526
  64.3495549  99.1310547   8.6683384  53.2981032  91.2084761   5.5688963
  53.8724784  90.9859942   4.8362156  53.8852014  91.2773455   6.3217564
  62.3560609  97.0958488   6.3753339  62.8692491  97.7288480   6.8775049
  63.0061833  96.4959683   6.0096699  53.6250619  93.2389222  -0.4115152
  52.7887931  93.5763908  -0.0905877  53.4855389  93.1038202  -1.3488015
  55.6003700  88.0826010   4.2964032  54.9468112  87.7675027   3.6720647
  55.5584174  87.4601750   5.0223855  56.7114904  98.3645305  -3.7882676
  55.8041966  98.1334558  -3.5891527  57.2085936  97.5682924  -3.6008694
  59.6182983 107.0742812  -0.8685990  58.9444682 107.3774509  -0.2601032
  60.0048805 107.8771892  -1.2180532  58.8341440  94.5707943   8.6211680
  57.9164001  94.7922890   8.4633368  59.2501584  94.6454254   7.7623387
  59.6176488  95.9699359   3.7514360  60.3648307  96.4820756   3.4421482
  59.8868077  95.6483412   4.6118754  57.8903138  98.4657900   0.7341314
  56.9814357  98.1816933   0.8313784  57.9198222  98.8856978  -0.1255379
  63.1222405 102.0764489   4.5032482  62.6684732 101.2355399   4.5597672
  62.4916372 102.7125888   4.8407262  62.0655325  93.0056475   5.7333149
  61.3278082  92.4933861   6.0643392  62.3182098  92.5656857   4.9216426
  61.5655344 103.9140986   5.4382300  61.8578319 104.4746043   4.7194666
  62.0753965 104.2069547   6.1935459  62.1666952  85.7832727   6.3274919
  62.4725829  84.9230091   6.0400834  62.8919557  86.3750347   6.1273913
  48.4591308  96.1863414   4.7156517  48.2615708  95.5932775   3.9907583
  47.9037972  95.8815624   5.4332455  56.4388032  96.0786520   6.8351110
  56.4936642  95.1260357   6.7593586  55.6279234  96.2345959   7.3192408
  57.5879226 100.0066643  -1.9270607  57.1498656  99.2902502  -2.3864970
  58.3289666 100.2342758  -2.4885516  54.3780392  94.6963580   4.5941489
  53.5648257  94.9957751   5.0006681  54.8739386  94.3019269   5.3115971
  56.5288970 104.6921337   6.5275753  56.4865148 104.9182183   5.5984285
  57.4451669 104.4584712   6.6761554  59.9754603  95.1605405  13.4256382
  60.3303991  95.3876878  14.2850848  60.6226735  95.4923781  12.8033638
  65.7052340  98.2823840   4.1305712  65.5670239  98.4725436   3.2026901
  65.3488559  99.0443223   4.5873763  53.8694467  92.2681936  10.2102724
  54.5093846  92.1270695   9.5125687  53.0371997  91.9816449   9.8341326
  65.7321720 100.3500367   9.1416983  66.1658227 100.2575657   9.9900037
  66.4453301 100.3257868   8.5036999  54.6454770 101.5684366   6.3237716
  55.4395369 101.0734686   6.1220291  53.9346463 101.0402229   5.9605422
  59.4649615 103.9502462  10.6750084  59.5186637 104.5193398  11.4427800
  58.5964396 104.1204347  10.3104121  50.9537534  95.7127448   2.3997469
  50.0235122  95.6511903   2.6167431  51.0495006  95.1903401   1.6034110
  50.8723083  92.2382261   4.9875710  51.1329900  93.1527594   4.8784871
  51.6940255  91.7706703   5.1372323  52.3448008  93.6520018  12.1574535
  53.0171062  93.4437380  11.5087184  51.5177795  93.4542104  11.7179767
  66.5937270 100.3924068  11.6749868  66.7873160 101.2969879  11.9209143
  66.4937888  99.9331487  12.5088453  58.2473580  90.2781959  14.1740196
  57.6001495  90.9771908  14.0804672  59.0174596  90.7118103  14.5416444
  61.6552378 100.5430811  17.2490749  61.5037885 100.3141363  16.3320833
  61.6457058 101.5001412  17.2622094  58.4237715  98.1162724  12.2337015
  59.3529775  98.2673883  12.0605983  58.0028745  98.2046744  11.3785662
  57.2226046 102.1413388  10.0035553  57.0837132 101.7732172  10.8761491
  56.4340643 102.6561027   9.8319511  57.8174198 107.2422484   1.3461090
  57.9925954 106.7710528   2.1606712  57.1306986 107.8688251   1.5742350
  58.7731262 101.5194991   7.3924391  58.4381094 101.4795761   8.2882041
  58.2735207 100.8539707   6.9194801  52.7475506  96.9262621  12.9176972
  52.6095303  96.1942860  13.5188511  53.6580429  96.8371521  12.6361160
  61.7090453  98.8651025  -2.3338549  61.0919624  98.1397853  -2.4305497
  61.2406942  99.6260385  -2.6771475  55.3757806  96.6382580  12.4060652
  56.0857425  95.9975772  12.3647270  55.3327114  96.8895475  13.3286832
  63.3644585 103.5749933  15.3267231  63.3057131 102.8909154  14.6597814
  63.7664103 104.3168923  14.8747857  54.0886740  93.6247798  14.2256291
  53.5524097  93.1738536  14.8777887  53.5003449  93.7593707  13.4826756
  52.3835284 110.3911847   8.1200950  52.6231882 111.0230371   8.7979968
  51.5404480 110.0399887   8.4066309  53.4988999  93.0836449  -3.2117245
  52.6218465  92.9625250  -3.5754999  53.9746752  92.2922528  -3.4638357
  63.3661992 101.5389517  13.5581211  62.4788771 101.2015439  13.6807609
  63.9360543 100.8072549  13.7949976  45.0191139  97.8713609   6.8824262
  45.7062179  97.5575339   6.2945277  44.8639268  98.7754974   6.6091513
  49.8225861  92.7603806  11.3109286  49.7384050  92.1529475  10.5759696
  49.0008568  93.2512824  11.3118782  56.8963146 106.1990970  10.5242454
  56.8233317 107.0045941  11.0361758  56.4540539 106.3982936   9.6990475
  56.6852925 105.4362740   4.0345275  55.9020447 105.9784420   4.1283500
  57.3845670 105.9536719   4.4339517  59.9949575  91.2457369   6.6779481
  60.4918275  90.4927332   6.3580551  59.2236557  91.2821686   6.1122690
  67.8479333  96.9497735   8.3197772  67.8369209  97.8322450   7.9491705
  66.9796712  96.5969286   8.1252309  59.3561829 106.0977804  12.6800612
  60.0689801 106.7325269  12.6076514  58.8651858 106.1941670  11.8640614
  61.0779356 100.0029056   4.2517904  60.1435635 100.1230519   4.0822608
  61.2556024  99.1001523   3.9877914  56.5784544  93.3874752   6.4051165
  56.2082332  92.8345793   7.0932071  57.0743637  92.7832886   5.8526165
  64.4651907  95.8446376   4.7867938  64.9312360  96.6774367   4.7128241
  64.9159408  95.3791357   5.4913197  54.4073743 103.8472247  13.5006183
  55.1083202 104.4808730  13.6535577  53.9368858 104.1886979  12.7401823
  62.5328138 102.1890197   1.7854090  62.8087982 102.0746792   2.6947964
  61.6632637 101.7907682   1.7466263  62.4368570  88.2126963   8.8258840
  61.5231650  88.4431190   8.9941047  62.8661672  88.2965407   9.6772872
  62.2075029  96.4016855  11.3258734  61.5546479  96.6492762  10.6711186
  62.5855408  95.5880993  10.9921211  59.1682202 106.4376548   5.4286904
  59.3504597 105.6198204   5.8914656  59.9915188 106.6544240   4.9911794
  59.5024368 105.3644733   2.6901952  60.0312134 104.8537188   2.0772114
  59.7652588 105.0487263   3.5547485  58.2562602  97.1436666  17.8124771
  57.5803239  97.0430795  18.4827146  59.0790235  96.9875879  18.2760768
  50.0041461 103.3808602  10.4337286  50.5894897 102.6352290  10.5665190
  49.8066299 103.6912559  11.3173950  52.8580116 106.4159850   5.4499728
  52.1890491 106.9005977   4.9663768  52.7192986 106.6629070   6.3643107
  44.5959115  95.9514202   9.1541729  44.6343215  95.4177793   9.9478847
  44.0899408  95.4249408   8.5352706  56.9985384 108.4503593  12.0482387
  57.5503693 108.6135215  12.8131472  57.3391578 109.0408031  11.3762412
  51.9749878  90.7978743  12.6504271  52.0391204  91.6593574  12.2381669
  51.9116998  90.1852745  11.9176630  51.4502150  92.8701875  16.2977306
  52.0774189  92.4878953  16.9114830  50.5930069  92.6516077  16.6632998
  61.8496259 103.2764851  17.9031041  62.3936163 103.8894809  17.4085996
  61.2683104 103.8344429  18.4198054  48.2267693  94.6778305   2.2295660
  48.5221134  93.7688983   2.1762714  47.3255729  94.6566044   1.9076663
  60.1353772 106.3985569   9.0346069  60.0104911 105.5975309   8.5257014
  60.7932863 106.8931762   8.5460039  51.7561940  92.7534301   8.2123209
  51.0348526  93.3670269   8.0730682  52.5455196  93.2892066   8.1339855
  62.1988680 104.1994589  10.6625619  61.2519016 104.0799940  10.5903946
  62.5471453 103.3117087  10.7451880  54.5588254  90.0888728  14.4863861
  55.0822655  90.3351024  15.2490170  54.3400587  90.9208762  14.0666998
  49.9555535  92.3592402   2.3534986  49.6268241  91.4789781   2.1710092
  50.3094905  92.3040071   3.2411375  59.2035113 103.9947305   6.8629971
  59.0560076 103.0664012   7.0437541  60.0288607 104.0167396   6.3787046
  53.0697358  92.6465372   2.7210463  53.4093430  93.1751293   1.9989072
  53.5169478  92.9845778   3.4969030  62.8069235 104.8175864   7.9494844
  63.7315783 104.6118725   7.8119295  62.6384539 104.5692265   8.8584185
  55.7640799  91.0302423  12.1713531  55.4237619  90.2310236  12.5734211
  55.0579805  91.3304134  11.5990365  56.4157270  88.1151735  10.6240854
  57.2383340  87.6412213  10.5019745  56.6595334  88.8942219  11.1239541
  55.0565505  91.1439994   0.9203756  55.7773867  91.5221246   0.4167473
  54.4330809  91.8628870   1.0238734  59.1996628  91.8485143   1.8562088
  59.4160242  92.7309780   1.5550917  58.7190695  91.4571356   1.1267730
  53.9395849  94.8070856   8.4332833  53.7940430  95.1211159   9.3257115
  53.4621053  95.4255756   7.8803732  55.7992232  91.7973404   8.4813723
  55.7853801  90.9014497   8.1446021  56.5164660  91.8044068   9.1152009
  57.6518363  92.2310744  10.5266850  57.3936141  93.1527815  10.5251180
  57.1203403  91.8341179  11.2167314  62.5964552 105.3361531   3.3056935
  62.7701429 104.7707954   2.5530788  63.0893443 106.1362426   3.1236425
  48.4141511  97.3476200  11.3720494  47.8694979  98.1236008  11.5040769
  49.2920861  97.6947005  11.2139616  55.2029128  90.6787784   3.7501293
  55.3245039  89.7504430   3.9492180  54.9131170  90.6926470   2.8379608
  58.0720318  88.3642695   6.8868013  58.0942015  88.4282028   5.9319992
  58.4888377  87.5247203   7.0808519  68.4503943  98.0997954   4.9247235
  68.8935089  97.3505279   4.5266358  67.5730453  98.0908090   4.5420967
  63.5839724 104.6528296   0.4053834  64.2790629 105.2734988   0.6241148
  63.9262874 103.8023647   0.6806212  49.2007533  96.4746097  14.2650651
  48.4589269  96.6228732  14.8515281  48.8800277  96.7354362  13.4017400
  65.4831147 102.1028001   1.9341164  66.0082471 102.4415274   1.2090484
  65.3953500 101.1675016   1.7504299  57.1451196 106.0162075  14.0631041
  57.4538322 105.7711222  14.9353741  57.9426678 106.2208713  13.5749911
  57.1671808 108.1699984   6.2936418  56.7276798 107.6776363   6.9869274
  57.9179925 107.6272952   6.0528493  49.6464147 104.3611525   6.2961046
  50.4722167 104.0615297   5.9159689  49.2958199 103.5919148   6.7450834
  54.6145680 103.7137993   8.3658719  53.9925689 103.0508698   8.0660947
  55.2850547 103.7399125   7.6832367  47.8472752 102.2797852   7.2549979
  47.0104660 101.8520026   7.0733981  47.8196397 102.4730295   8.1920770
  54.6870207  92.1919781  17.9591225  54.7358363  93.0681904  17.5768995
  55.2292722  91.6497175  17.3862869  65.1725053 102.7360905  17.2392362
  64.3820597 102.7185044  16.6996862  64.9358408 103.2749198  17.9941399
  65.2922928  99.5853371  14.5525091  65.3420933  99.4203379  15.4940614
  65.1836852  98.7180630  14.1622972  54.1759187 102.2641917   1.8417180
  54.3247307 102.9477381   1.1883853  54.9825630 102.2447007   2.3566636
  62.5826691  95.5684299  15.8684398  63.4836553  95.4290764  15.5768395
  62.6574665  95.7338754  16.8082575  56.9169496  92.9451154  14.7137584
  56.0472805  93.2384720  14.4420172  57.1528976  93.5291599  15.4344848
  66.7941125 102.0050313  14.7967112  66.5025933 102.3680293  15.6330573
  66.1813256 101.2917321  14.6180445  67.9936807  99.5703192   7.3169683
  68.8283699 100.0092996   7.4807243  68.1295936  99.0941846   6.4977928
  65.0428313  97.1282927  13.2647170  65.5182435  97.3210574  12.4566022
  64.1193879  97.1842113  13.0190554  51.9311820  98.2907094   2.8478249
  51.6857862  97.3869424   3.0458459  52.1007734  98.2924245   1.9057727
  59.6208530  89.1630771  12.2303004  60.1390474  89.8991798  11.9049493
  59.2663663  89.4694764  13.0649763  51.2007467  94.0235452   0.3464410
  50.5076712  94.0979807  -0.3095554  50.9559219  93.2595796   0.8685927
  59.8721124  85.5831053   7.7503901  60.1522878  84.9154242   8.3764327
  60.6571731  85.7760149   7.2378565  57.6754592 104.7590047  -0.6871073
  57.1028560 105.3780234  -1.1400601  58.2487386 105.3089409  -0.1531151
  63.7429982  94.0048687  11.4975476  64.6947405  94.1046785  11.5187700
  63.5733433  93.2126956  12.0073560  61.7644362  91.0904271  11.6834877
  61.1694294  91.3709283  10.9881366  61.4794058  91.5798171  12.4551618
  60.8951852 105.0427197   0.4437510  61.8282525 104.9772759   0.6470385
  60.8075065 105.8783464  -0.0147958  66.2218060  97.2254807  10.6117776
  66.1894380  96.2870808  10.7977460  66.8318684  97.3038844   9.8783601
  58.0601391  96.0950860  -3.3455020  59.0060496  95.9657068  -3.2766602
  57.6815636  95.3565522  -2.8685592  66.3712549  94.0165850  10.6576059
  65.8551597  93.2324307  10.4705988  67.2552497  93.6884567  10.8222578
  64.0323275  87.7606866   6.6171872  63.8348097  87.4521954   7.5015204
  64.6422981  88.4868505   6.7469801  72.0394610  98.2870814   9.7523812
  72.7697998  98.0256102  10.3131516  71.4301555  97.5499536   9.7925880
  70.1209907  96.4278676  10.3498264  69.3943071  96.2934641   9.7414755
  69.7057194  96.7355505  11.1554982  57.9440083 100.1468606  18.1145637
  58.8643093 100.3247205  18.3085683  57.9089667  99.2024651  17.9625336
  56.2444308  94.0200836  -3.4100135  55.3375763  93.7233949  -3.3337421
  56.5220289  93.7230654  -4.2765849  47.1622248  95.3407200   7.0398911
  46.8425033  94.4872508   6.7473285  46.6155677  95.5555778   7.7956879
  50.9402156  98.0569641  10.7568418  51.1588166  98.9886749  10.7756452
  51.3527930  97.6977615  11.5423222  57.8606374  88.5637726   2.7444106
  57.0507102  88.2184811   3.1199352  58.5490791  88.2545270   3.3331718
  59.7896922  87.6415773   4.3668403  60.3427961  88.0611226   5.0258426
  60.0267008  86.7151521   4.4091359  55.8130021  93.6302847  20.1471167
  55.7126748  94.5797204  20.0783258  55.5951563  93.3021085  19.2747237
  55.0143093  90.8787772  -3.2688156  55.8762257  91.2042670  -3.0092338
  55.1993437  90.0919268  -3.7815090  47.0310508  98.9610111   9.0092033
  46.3373980  98.5464064   8.4961987  47.7783499  99.0030648   8.4125452
  63.1675729  89.7516298   3.8747067  62.5874398  90.4101102   3.4925120
  62.9011662  88.9293643   3.4634485  61.6179296  89.1521356   6.0768387
  62.1179074  89.2637890   5.2682706  62.2614903  88.8482409   6.7169196
  55.6761291  97.0599985  18.9636228  55.1928373  97.8600346  19.1700117
  55.7622230  97.0707930  18.0103672  48.9447251  98.8928365   6.8858048
  48.9217939  98.9916052   5.9339931  49.2547887  99.7393516   7.2075214
  51.6034629 100.9504520  11.0004662  52.5577882 100.9188462  10.9334594
  51.4047152 100.4895144  11.8154888  52.1934011  99.5205636  13.5675460
  53.0126900 100.0149715  13.5910297  52.4670819  98.6037604  13.5393027
  61.9500607  91.9116388   2.9303415  61.0626462  92.1966039   2.7123610
  62.3654596  91.7510152   2.0830692  65.3015143  91.9362909   6.6457755
  66.0775533  92.4259362   6.9182371  64.5763278  92.3620964   7.1029624
  67.7387702  92.6490529   7.7031695  68.3332193  92.4086265   6.9925004
  67.8114286  91.9297659   8.3305232  49.9584858 106.4924140   8.0174860
  49.8239326 105.7324540   7.4512858  49.5416920 107.2165039   7.5503649
  61.0943821 101.6761063  -2.9748565  61.7979671 101.8811066  -2.3590909
  60.3706469 102.2437825  -2.7099481  61.9241631  97.4270924   3.1453706
  61.8676832  97.8839476   2.3061338  62.4769973  96.6661609   2.9676548
  65.7346437  93.2160656   3.9703825  65.4783371  92.8157292   4.8012033
  65.1099305  93.9304450   3.8453964  70.0458775  95.9556729   6.4775116
  69.4858333  96.0249919   7.2506679  69.4402278  95.7797714   5.7574613
  53.1153984 107.3893457   8.2293303  52.9986368 108.3338889   8.1271993
  52.2946430 107.0867018   8.6179102  63.0030518 102.1143592  -0.9250105
  63.8376122 101.6824791  -1.1072630  62.8414861 101.9425606   0.0026790
  62.6576410  98.6175706   0.4406235  62.6025214  98.4519977  -0.5005321
  62.0322466  99.3251739   0.5968424  47.4468925  93.8543770  14.2667657
  48.0927789  93.3442724  14.7554882  47.2386076  94.5912452  14.8411082
  59.9722317 100.9224617  19.7659798  60.8413477 101.0965270  19.4046432
  59.4929069 101.7419034  19.6435527  55.9672536  88.1183815   0.0191553
  55.9551206  89.0625655   0.1759824  56.8595958  87.9353960  -0.2748986
  54.1408498 108.0421718  11.4449231  55.0435744 108.0745329  11.7615726
  53.9145868 107.1122169  11.4595567  55.8962100 106.7952705   8.1059310
  54.9457731 106.7954567   7.9923682  56.1994586 106.0485440   7.5895344
  59.7824655  84.7126591   4.2737490  59.0157051  84.1585078   4.4194172
  60.1935360  84.7848460   5.1351642  51.7866416  91.0011387  18.3642671
  52.6497878  90.6448192  18.5745996  51.2131827  90.6625282  19.0518075
  71.6314793 112.6313243   9.1705072  72.2693203 112.5119991   8.4668412
  71.5135636 113.5794087   9.2293024  68.4404499 112.5840672   9.1066597
  68.1023011 112.4681736   8.2187132  69.3094268 112.1831837   9.0867603
  64.2991315 114.4376148   5.0963488  63.7356180 114.3466085   4.3279776
  64.1843710 113.6176052   5.5765980  68.9224282 113.7375523  15.0652802
  68.9112923 113.3428322  14.1933306  69.0844922 113.0041596  15.6586574
  61.8455747 115.9327340   7.9347708  62.6377039 115.5918164   7.5194008
  62.0852397 116.0422315   8.8549862  65.6431544 116.5212635  14.0131986
  65.3521410 117.4258266  13.8978653  66.2788528 116.5629163  14.7276056
  66.5687750 113.8989484  10.6033346  67.1651323 113.6745506   9.8890309
  66.6262722 113.1574229  11.2058794  71.1856062 110.3564697   6.2458280
  71.9719151 109.9384120   5.8948697  71.4494766 111.2610789   6.4139929
  76.5864489 110.2939930   7.1491259  77.3189661 109.7239147   7.3829088
  75.8303844 109.9061531   7.5897764  68.2040609 112.7167172   4.3454601
  67.8398816 112.1897793   5.0567523  69.0607724 112.3265641   4.1721087
  74.1089909 104.0061505  11.6085867  73.7773234 104.8756916  11.3847082
  73.5135523 103.6897789  12.2879898  70.6021429 116.2074051  11.0081780
  70.3022152 117.1099089  10.8997587  70.2572488 115.9406234  11.8602933
  64.0533910 112.6587847   7.0418485  63.1284407 112.5264062   7.2496176
  64.3018323 113.4382067   7.5388427  74.0018572 108.7256591   8.6879217
  73.0935450 108.6571999   8.3937978  73.9506168 109.2028536   9.5161043
  61.4142721 112.3021121   7.8762274  61.5435102 112.5555600   8.7901685
  60.7340172 112.8948829   7.5566929  68.0759438 110.1446236  16.6314115
  67.2992772 110.7040156  16.6216979  68.7150001 110.6303019  17.1528985
  75.8680219 106.9273029  10.4657091  75.2254599 107.2205562   9.8196886
  75.3635147 106.8125949  11.2710288  66.3305811 112.9531690  16.1932082
  67.0720495 113.4916734  15.9166905  65.6242796 113.5797978  16.3503633
  71.8061150 115.0960830  14.7904243  72.2144506 114.6543241  14.0458876
  71.0838412 114.5213458  15.0438436  68.1592220 110.0333437  12.1637800
  69.0053415 110.4572851  12.3072449  68.0990858 109.3767061  12.8576363
  72.1289965 115.6562021   8.5456532  71.4998827 115.8207735   7.8432600
  71.7415627 116.0703630   9.3167496  71.3091666 107.6937805  13.8218974
  71.0652597 108.4479866  13.2853249  71.5851596 108.0723153  14.6566221
  73.2630128 114.2376418  12.4996239  73.4747024 114.8808178  11.8230620
  73.2159877 113.4038734  12.0318169  70.8656357 106.8494238   9.4032811
  70.0040836 107.1475492   9.6949549  70.8918792 107.0664637   8.4713844
  64.5742008 114.9407910   8.7486380  65.1443365 115.3695179   8.1103865
  65.1650120 114.6590495   9.4470566  66.6186813 111.5159581   2.6196182
  67.3210856 111.9680625   3.0870109  66.2867441 110.8743400   3.2476075
  65.0667174 110.1071338  16.9947392  64.4365835 110.7887619  17.2282789
  64.9603262 109.9954419  16.0500530  60.3612147 109.7743134   7.9213316
  59.5711201 110.0300662   7.4453426  60.8523394 110.5891472   8.0265356
  74.3775956 117.1148373  10.6718597  75.1993400 116.7128560  10.3901278
  74.3738359 117.0116607  11.6234712  62.3126892 110.1387713   4.8796793
  61.5158055 110.2506407   5.3980288  62.0852484 110.4774365   4.0137683
  68.1432560 116.6632416  12.8279307  68.2076992 117.1252824  13.6637479
  67.4343484 116.0329781  12.9561617  58.6449850 110.0273624  10.3528307
  58.8957888 110.9120634  10.6185883  59.1809398 109.8478226   9.5803398
  64.3447917 104.4092104  19.3572643  63.9514863 103.8558302  20.0320287
  65.1614057 104.7202682  19.7479160  61.3109975 115.8475962   3.2686213
  61.8234495 116.6419212   3.4191777  61.9632688 115.1502252   3.2019814
  67.2615878 105.8249983  16.9492899  68.0025591 106.4257136  16.8697362
  67.4933801 105.0827621  16.3910942  62.4057216 111.0106350  15.2271129
  62.2910731 110.1091607  15.5278228  61.5501734 111.2570047  14.8755946
  69.4849054 118.9524090  16.8258630  69.0412908 118.1660469  16.5079534
  70.1466267 119.1403241  16.1602520  64.2436175 120.4819892  11.3519308
  64.7943600 120.3536955  10.5796302  63.4047651 120.7814781  11.0014201
  71.5830292 119.2326890  14.8540031  71.5648767 120.0535771  14.3620300
  72.5050212 119.1080966  15.0790172  68.0403346 116.7471020  15.6963539
  68.5731683 115.9859308  15.4662847  67.5117427 116.4544672  16.4387694
  71.2073041 101.8531086  11.2257181  70.8637310 102.7432727  11.1496292
  71.5752004 101.6632743  10.3626766  59.2758892 114.1764616   4.0445783
  60.1134114 114.5861625   3.8279491  59.4537159 113.2364058   4.0145977
  68.7570435 106.6889398   4.7914854  67.9012031 106.2996248   4.6120493
  69.1697386 106.7681358   3.9314640  70.2869581 104.2235741   9.1906414
  69.7834377 104.1865876   8.3774220  70.5800188 105.1328484   9.2503071
  66.5312467 104.3074471   8.1972596  67.3965464 104.1117279   7.8378485
  66.5989976 104.0784822   9.1241953  74.3848905 114.0706033   8.3249398
  73.7272579 114.7605294   8.4129526  75.1889304 114.4602465   8.6683384
  64.1374786 106.5376679   5.5688963  64.7118538 106.3151860   4.8362156
  64.7245769 106.6065373   6.3217564  73.1954364 112.4250405   6.3753339
  73.7086245 113.0580397   6.8775049  73.8455587 111.8251601   6.0096699
  66.4397454 103.4117927   4.2964032  65.7861866 103.0966945   3.6720647
  66.3977928 102.7893668   5.0223855  69.6735194 109.8999861   8.6211680
  68.7557756 110.1214808   8.4633368  70.0895338 109.9746171   7.7623387
  72.9049079 108.3348393   5.7333149  72.1671836 107.8225779   6.0643392
  73.1575853 107.8948775   4.9216426  73.0060707 101.1124645   6.3274919
  73.3119583 100.2522008   6.0400834  73.7313311 101.7042265   6.1273913
  59.2985063 111.5155332   4.7156517  59.1009463 110.9224692   3.9907583
  58.7431727 111.2107542   5.4332455  67.2781786 111.4078438   6.8351110
  67.3330396 110.4552274   6.7593586  66.4672988 111.5637877   7.3192408
  65.2174146 110.0255498   4.5941489  64.4042012 110.3249668   5.0006681
  65.7133140 109.6311187   5.3115971  70.8148358 110.4897322  13.4256382
  71.1697746 110.7168795  14.2850848  71.4620489 110.8215699  12.8033638
  64.7088221 107.5973853  10.2102724  65.3487600 107.4562612   9.5125687
  63.8765752 107.3108367   9.8341326  65.4848525 116.8976284   6.3237716
  66.2789123 116.4026604   6.1220291  64.7740217 116.3694147   5.9605422
  70.3043369 119.2794379  10.6750084  70.3580392 119.8485316  11.4427800
  69.4358151 119.4496264  10.3104121  61.7931288 111.0419365   2.3997469
  60.8628877 110.9803821   2.6167431  61.8888760 110.5195318   1.6034110
  61.7116837 107.5674178   4.9875710  61.9723655 108.4819512   4.8784871
  62.5334010 107.0998621   5.1372323  63.1841763 108.9811935  12.1574535
  63.8564816 108.7729298  11.5087184  62.3571549 108.7834021  11.7179767
  77.4331024 115.7215986  11.6749868  77.6266914 116.6261796  11.9209143
  77.3331642 115.2623405  12.5088453  69.0867335 105.6073876  14.1740196
  68.4395250 106.3063826  14.0804672  69.8568350 106.0410020  14.5416444
  72.4946133 115.8722729  17.2490749  72.3431639 115.6433280  16.3320833
  72.4850812 116.8293330  17.2622094  69.2631469 113.4454641  12.2337015
  70.1923529 113.5965801  12.0605983  68.8422499 113.5338662  11.3785662
  68.0619801 117.4705306  10.0035553  67.9230887 117.1024090  10.8761491
  67.2734397 117.9852945   9.8319511  69.6125016 116.8486908   7.3924391
  69.2774849 116.8087678   8.2882041  69.1128962 116.1831624   6.9194801
  63.5869260 112.2554538  12.9176972  63.4489058 111.5234777  13.5188511
  64.4974184 112.1663439  12.6361160  66.2151561 111.9674498  12.4060652
  66.9251179 111.3267690  12.3647270  66.1720869 112.2187393  13.3286832
  74.2038339 118.9041851  15.3267231  74.1450886 118.2201071  14.6597814
  74.6057858 119.6460841  14.8747857  64.9280495 108.9539716  14.2256291
  64.3917852 108.5030454  14.8777887  64.3397203 109.0885624  13.4826756
  74.2055747 116.8681435  13.5581211  73.3182525 116.5307357  13.6807609
  74.7754298 116.1364466  13.7949976  55.8584894 113.2005527   6.8824262
  56.5455934 112.8867257   6.2945277  55.7033022 114.1046891   6.6091513
  60.6619616 108.0895723  11.3109286  60.5777805 107.4821393  10.5759696
  59.8402322 108.5804742  11.3118782  67.7356900 121.5282887  10.5242454
  67.6627072 122.3337859  11.0361758  67.2934293 121.7274853   9.6990475
  70.8343330 106.5749287   6.6779481  71.3312029 105.8219249   6.3580551
  70.0630311 106.6113604   6.1122690  70.1955584 121.4269721  12.6800612
  70.9083556 122.0617186  12.6076514  69.7045612 121.5233587  11.8640614
  67.4178299 108.7166670   6.4051165  67.0476086 108.1637710   7.0932071
  67.9137391 108.1124803   5.8526165  65.2467497 119.1764165  13.5006183
  65.9476957 119.8100648  13.6535577  64.7762612 119.5178896  12.7401823
  73.2762325 103.5418880   8.8258840  72.3625404 103.7723107   8.9941047
  73.7055426 103.6257324   9.6772872  73.0468783 111.7308772  11.3258734
  72.3940233 111.9784680  10.6711186  73.4249163 110.9172911  10.9921211
  69.0956356 112.4728583  17.8124771  68.4196993 112.3722713  18.4827146
  69.9183990 112.3167797  18.2760768  60.8435215 118.7100520  10.4337286
  61.4288652 117.9644208  10.5665190  60.6460054 119.0204477  11.3173950
  55.4352870 111.2806120   9.1541729  55.4736969 110.7469711   9.9478847
  54.9293163 110.7541326   8.5352706  67.8379139 123.7795511  12.0482387
  68.3897447 123.9427132  12.8131472  68.1785332 124.3699949  11.3762412
  62.8143632 106.1270661  12.6504271  62.8784959 106.9885492  12.2381669
  62.7510752 105.5144662  11.9176630  62.2895905 108.1993793  16.2977306
  62.9167944 107.8170870  16.9114830  61.4323824 107.9807995  16.6632998
  72.6890013 118.6056768  17.9031041  73.2329917 119.2186727  17.4085996
  72.1076858 119.1636347  18.4198054  59.0661447 110.0070222   2.2295660
  59.3614889 109.0980901   2.1762714  58.1649483 109.9857962   1.9076663
  62.5955694 108.0826219   8.2123209  61.8742280 108.6962187   8.0730682
  63.3848950 108.6183984   8.1339855  73.0382435 119.5286506  10.6625619
  72.0912770 119.4091858  10.5903946  73.3865208 118.6409004  10.7451880
  65.3982008 105.4180645  14.4863861  65.9216410 105.6642942  15.2490170
  65.1794341 106.2500680  14.0666998  60.7949289 107.6884320   2.3534986
  60.4661995 106.8081699   2.1710092  61.1488660 107.6331989   3.2411375
  63.9091112 107.9757290   2.7210463  64.2487185 108.5043211   1.9989072
  64.3563233 108.3137696   3.4969030  66.6034553 106.3594340  12.1713531
  66.2631373 105.5602154  12.5734211  65.8973559 106.6596051  11.5990365
  67.2551025 103.4443653  10.6240854  68.0777094 102.9704131  10.5019745
  67.4989088 104.2234137  11.1239541  65.8959259 106.4731911   0.9203756
  66.6167622 106.8513164   0.4167473  65.2724563 107.1920788   1.0238734
  64.7789604 110.1362774   8.4332833  64.6334184 110.4503077   9.3257115
  64.3014807 110.7547674   7.8803732  66.6385987 107.1265322   8.4813723
  66.6247555 106.2306415   8.1446021  67.3558415 107.1335985   9.1152009
  68.4912117 107.5602662  10.5266850  68.2329895 108.4819732  10.5251180
  67.9597158 107.1633096  11.2167314  59.2535266 112.6768118  11.3720494
  58.7088734 113.4527926  11.5040769  60.1314616 113.0238922  11.2139616
  66.0422882 106.0079702   3.7501293  66.1638794 105.0796348   3.9492180
  65.7524925 106.0218388   2.8379608  68.9114073 103.6934612   6.8868013
  68.9335770 103.7573945   5.9319992  69.3282132 102.8539121   7.0808519
  60.0401288 111.8038014  14.2650651  59.2983024 111.9520650  14.8515281
  59.7194032 112.0646280  13.4017400  67.9844950 121.3453992  14.0631041
  68.2932077 121.1003139  14.9353741  68.7820432 121.5500631  13.5749911
  60.4857901 119.6903443   6.2961046  61.3115921 119.3907215   5.9159689
  60.1351953 118.9211065   6.7450834  65.4539434 119.0429911   8.3658719
  64.8319444 118.3800616   8.0660947  66.1244301 119.0691043   7.6832367
  58.6866506 117.6089769   7.2549979  57.8498415 117.1811944   7.0733981
  58.6590152 117.8022213   8.1920770  65.5263962 107.5211699  17.9591225
  65.5752117 108.3973822  17.5768995  66.0686476 106.9789092  17.3862869
  76.0118808 118.0652822  17.2392362  75.2214351 118.0476961  16.6996862
  75.7752162 118.6041116  17.9941399  76.1316683 114.9145289  14.5525091
  76.1814688 114.7495296  15.4940614  76.0230606 114.0472548  14.1622972
  73.4220445 110.8976217  15.8684398  74.3230308 110.7582682  15.5768395
  73.4968420 111.0630672  16.8082575  67.7563250 108.2743072  14.7137584
  66.8866560 108.5676638  14.4420172  67.9922731 108.8583517  15.4344848
  77.6334880 117.3342230  14.7967112  77.3419688 117.6972211  15.6330573
  77.0207011 116.6209239  14.6180445  75.8822068 112.4574845  13.2647170
  76.3576189 112.6502491  12.4566022  74.9587633 112.5134031  13.0190554
  70.4602284 104.4922688  12.2303004  70.9784228 105.2283715  11.9049493
  70.1057417 104.7986682  13.0649763  62.0401222 109.3527370   0.3464410
  61.3470467 109.4271725  -0.3095554  61.7952974 108.5887713   0.8685927
  70.7114878 100.9122971   7.7503901  70.9916632 100.2446160   8.3764327
  71.4965485 101.1052067   7.2378565  74.5823737 109.3340605  11.4975476
  75.5341160 109.4338703  11.5187700  74.4127187 108.5418874  12.0073560
  72.6038116 106.4196188  11.6834877  72.0088048 106.7001201  10.9881366
  72.3187813 106.9090089  12.4551618  77.0611815 112.5546725  10.6117776
  77.0288135 111.6162725  10.7977460  77.6712438 112.6330761   9.8783601
  77.2106303 109.3457768  10.6576059  76.6945352 108.5616225  10.4705988
  78.0946252 109.0176485  10.8222578  74.8717030 103.0898784   6.6171872
  74.6741851 102.7813872   7.5015204  75.4816736 103.8160423   6.7469801
  80.9603662 111.7570594  10.3498264  80.2336825 111.6226559   9.7414755
  80.5450948 112.0647423  11.1554982  68.7833838 115.4760524  18.1145637
  69.7036847 115.6539123  18.3085683  68.7483421 114.5316569  17.9625336
  58.0016003 110.6699117   7.0398911  57.6818787 109.8164426   6.7473285
  57.4549431 110.8847696   7.7956879  61.7795911 113.3861558  10.7568418
  61.9981920 114.3178666  10.7756452  62.1921684 113.0269533  11.5423222
  68.7000128 103.8929644   2.7444106  67.8900857 103.5476729   3.1199352
  69.3884545 103.5837188   3.3331718  70.6290677 102.9707691   4.3668403
  71.1821715 103.3903144   5.0258426  70.8660763 102.0443439   4.4091359
  66.6523776 108.9594764  20.1471167  66.5520503 109.9089121  20.0783258
  66.4345318 108.6313003  19.2747237  57.8704263 114.2902029   9.0092033
  57.1767734 113.8755982   8.4961987  58.6177254 114.3322565   8.4125452
  74.0069484 105.0808216   3.8747067  73.4268153 105.7393020   3.4925120
  73.7405416 104.2585560   3.4634485  72.4573050 104.4813273   6.0768387
  72.9572828 104.5929808   5.2682706  73.1008658 104.1774326   6.7169196
  66.5155046 112.3891903  18.9636228  66.0322128 113.1892263  19.1700117
  66.6015985 112.3999848  18.0103672  59.7841005 114.2220283   6.8858048
  59.7611694 114.3207970   5.9339931  60.0941642 115.0685434   7.2075214
  62.4428383 116.2796438  11.0004662  63.3971637 116.2480380  10.9334594
  62.2440907 115.8187062  11.8154888  63.0327765 114.8497554  13.5675460
  63.8520654 115.3441632  13.5910297  63.3064573 113.9329522  13.5393027
  76.1408898 107.2654827   6.6457755  76.9169288 107.7551280   6.9182371
  75.4157032 107.6912881   7.1029624  78.5781456 107.9782446   7.7031695
  79.1725947 107.7378182   6.9925004  78.6508040 107.2589577   8.3305232
  60.7978612 121.8216057   8.0174860  60.6633080 121.0616458   7.4512858
  60.3810674 122.5456957   7.5503649  63.9547738 122.7185374   8.2293303
  63.8380122 123.6630807   8.1271993  63.1340184 122.4158936   8.6179102
  58.2862680 109.1835688  14.2667657  58.9321543 108.6734642  14.7554882
  58.0779831 109.9204369  14.8411082  70.8116072 116.2516535  19.7659798
  71.6807232 116.4257187  19.4046432  70.3322823 117.0710952  19.6435527
  66.8066290 103.4475732   0.0191553  66.7944960 104.3917572   0.1759824
  67.6989712 103.2645878  -0.2748986  64.9802252 123.3713636  11.4449231
  65.8829499 123.4037246  11.7615726  64.7539622 122.4414087  11.4595567
  70.6218410 100.0418509   4.2737490  69.8550805  99.4876996   4.4194172
  71.0329115 100.1140378   5.1351642  62.6260171 106.3303305  18.3642671
  63.4891632 105.9740110  18.5745996  62.0525581 105.9917200  19.0518075
  78.9153193 125.4738154  16.6314115  78.1386527 126.0332074  16.6216979
  79.5543756 125.9594937  17.1528985  75.9060929 125.4363256  16.9947392
  75.2759589 126.1179536  17.2282789  75.7997017 125.3246337  16.0500530
  75.1841672 119.7384021  19.3572643  74.7908617 119.1850220  20.0320287
  76.0007812 120.0494600  19.7479160  78.1009633 121.1541900  16.9492899
  78.8419346 121.7549054  16.8697362  78.3327555 120.4119538  16.3910942
  73.2450971 126.3398268  15.2271129  73.1304486 125.4383525  15.5278228
  72.3895488 126.5861965  14.8755946  79.9261089 120.9365794  14.1740196
  79.2789004 121.6355744  14.0804672  80.6962105 121.3701938  14.5416444
  75.7674249 124.2831633  14.2256291  75.2311606 123.8322372  14.8777887
  75.1790958 124.4177542  13.4826756  79.9350111 127.8020501  17.8124771
  79.2590748 127.7014630  18.4827146  80.7577744 127.6459715  18.2760768
  73.6537387 121.4562578  12.6504271  73.7178713 122.3177409  12.2381669
  73.5904507 120.8436580  11.9176630  73.1289659 123.5285711  16.2977306
  73.7561698 123.1462788  16.9114830  72.2717578 123.3099913  16.6632998
  76.2375762 120.7472563  14.4863861  76.7610164 120.9934860  15.2490170
  76.0188096 121.5792598  14.0666998  70.8795042 127.1329932  14.2650651
  70.1376778 127.2812567  14.8515281  70.5587786 127.3938197  13.4017400
  76.3657716 122.8503617  17.9591225  76.4145872 123.7265740  17.5768995
  76.9080231 122.3081010  17.3862869  78.5957005 123.6034989  14.7137584
  77.7260314 123.8968555  14.4420172  78.8316485 124.1875434  15.4344848
  77.4917530 124.2886682  20.1471167  77.3914257 125.2381039  20.0783258
  77.2739072 123.9604921  19.2747237  77.3548800 127.7183821  18.9636228
  76.8715882 128.5184181  19.1700117  77.4409739 127.7291766  18.0103672
  69.1256434 124.5127605  14.2667657  69.7715298 124.0026559  14.7554882
  68.9173585 125.2496287  14.8411082  73.4653925 121.6595222  18.3642671
  74.3285387 121.3032027  18.5745996  72.8919336 121.3209117  19.0518075
  47.8061546  65.3002378   3.5503936  47.3625400  64.5138756   3.2324841
  48.4678760  65.4881528   2.8847827  49.9042784  65.5805178   1.5785338
  49.8861259  66.4014059   1.0865607  50.8262704  65.4559253   1.8035479
  46.3615838  63.0949307   2.4208846  46.8944175  62.3337595   2.1908154
  45.8329919  62.8022959   3.1633000  50.8158625  62.2201016   3.9736056
  50.6644131  61.9911567   3.0566139  50.8063304  63.1771617   3.9867401
  52.5250832  65.2520138   2.0512538  52.4663378  64.5679358   1.3843121
  52.9270350  65.9939128   1.5993164  52.5268239  63.2159722   0.2826517
  51.6395018  62.8785644   0.4052916  53.0966790  62.4842753   0.5195283
  48.5168076  67.7748009  -0.5954081  49.2296048  68.4095473  -0.6678179
  48.0258104  67.8711875  -1.4114079  47.4168848  58.8206871   4.5370077
  46.7409485  58.7201000   5.2072453  48.2396482  58.6646084   5.0006075
  46.1591631  70.1273798  -1.2272307  46.7109939  70.2905420  -0.4623221
  46.4997825  70.7178236  -1.8992282  51.0102506  64.9535056   4.6276348
  51.5542410  65.5665014   4.1331303  50.4289350  65.5114634   5.1443361
  46.3057443  67.6932280   0.7876348  46.6144569  67.4481426   1.6599047
  47.1032925  67.8978918   0.2995218  54.3331300  64.4131110   3.9637669
  53.5426844  64.3955248   3.4242168  54.0964655  64.9519403   4.7186706
  54.4529175  61.2623576   1.2770398  54.5027180  61.0973583   2.2185920
  54.3443098  60.3950835   0.8868278  55.9547372  63.6820518   1.5212419
  55.6632180  64.0450498   2.3575880  55.3419503  62.9687526   1.3425751
  47.1046330  61.8238811   4.8390943  48.0249340  62.0017410   5.0330990
  47.0695913  60.8794856   4.6870643  49.1328564  62.5994822   6.4905104
  50.0019724  62.7735475   6.1291739  48.6535316  63.4189239   6.3680834
  60.7921040  74.3083448  -4.1049621  61.4299450  74.1890196  -4.8086281
  60.6741883  75.2564292  -4.0461669  57.6010746  74.2610876  -4.1688096
  57.2629258  74.1451941  -5.0567562  58.4700514  73.8602042  -4.1887090
  58.0830529  75.4145728   1.7898109  58.0719170  75.0198526   0.9178613
  58.2451169  74.6811801   2.3831881  51.0061994  77.6097544  -5.3406985
  51.7983286  77.2688369  -5.7560686  51.2458644  77.7192520  -4.4204832
  54.8037790  78.1982840   0.7377293  54.5127656  79.1028471   0.6223959
  55.4394775  78.2399368   1.4521363  55.7293997  75.5759689  -2.6721347
  56.3257569  75.3515711  -3.3864384  55.7868969  74.8344434  -2.0695899
  60.3462308  72.0334902  -7.0296413  61.1325398  71.6154325  -7.3805996
  60.6101013  72.9380994  -6.8614765  65.7470736  71.9710135  -6.1263435
  66.4795907  71.4009352  -5.8925605  64.9910091  71.5831736  -5.6856929
  57.3646855  74.3937377  -8.9300092  57.0005063  73.8667998  -8.2187171
  58.2213971  74.0035846  -9.1033607  63.2696156  65.6831710  -1.6668826
  62.9379481  66.5527120  -1.8907611  62.6741769  65.3667994  -0.9874796
  59.7627675  77.8844255  -2.2672913  59.4628399  78.7869294  -2.3757106
  59.4178735  77.6176439  -1.4151760  53.2140157  74.3358052  -6.2336209
  52.2890653  74.2034266  -6.0258517  53.4624570  75.1152272  -5.7366266
  63.1624819  70.4026796  -4.5875476  62.2541697  70.3342204  -4.8816715
  63.1112415  70.8798741  -3.7593650  50.5748968  73.9791326  -5.3992420
  50.7041349  74.2325805  -4.4853008  49.8946419  74.5719034  -5.7187765
  54.7448455  84.6488576  -9.3001946  54.6672485  85.5996401  -9.2213465
  54.1410099  84.3034448  -8.6427019  57.2365685  71.8216441   3.3559421
  56.4599019  72.3810361   3.3462286  57.8756248  72.3073224   3.8774291
  65.0286466  68.6043234  -2.8097602  64.3860846  68.8975767  -3.4557807
  64.5241394  68.4896154  -2.0044405  55.4912057  74.6301895   2.9177388
  56.2326742  75.1686939   2.6412212  54.7849043  75.2568183   3.0748940
  60.9667397  76.7731035   1.5149550  61.3750753  76.3313446   0.7704182
  60.2444658  76.1983663   1.7683743  57.3198467  71.7103642  -1.1116893
  58.1659662  72.1343055  -0.9682244  57.2597105  71.0537266  -0.4178330
  61.2896212  77.3332226  -4.7298161  60.6605074  77.4977940  -5.4322093
  60.9021874  77.7473835  -3.9587197  65.1685443  78.2686664  -7.3753798
  64.4836482  78.6485565  -7.9256764  65.2529293  78.8781990  -6.6421850
  60.4697912  69.3708010   0.5464280  60.2258844  70.1250071   0.0098556
  60.7457843  69.7493358   1.3811527  62.4236375  75.9146623  -0.7758454
  62.6353270  76.5578382  -1.4524073  62.3766123  75.0808939  -1.2436524
  60.0262604  68.5264443  -3.8721882  59.1647083  68.8245697  -3.5805144
  60.0525039  68.7434842  -4.8040849  56.8424173  77.0706634  -7.4648076
  57.3062519  77.3494337  -8.2543454  56.5780972  76.1690078  -7.6474986
  53.7348255  76.6178115  -4.5268313  54.3049612  77.0465384  -5.1650828
  54.3256366  76.3360700  -3.8284127  54.2273421  71.7841543   3.7192698
  53.5972082  72.4657824   3.9528095  54.1209509  71.6724624   2.7745837
  63.5382203  78.7918578  -2.6036097  64.3599647  78.3898765  -2.8853415
  63.5344606  78.6886812  -1.6519981  57.3038806  78.3402621  -0.4475386
  57.3683239  78.8023029   0.3882786  56.5949730  77.7099986  -0.3193076
  47.8056096  71.7043829  -2.9226387  48.0564135  72.5890839  -2.6568811
  48.3415645  71.5248431  -3.6951295  71.6288196  75.1357326  -6.2551125
  70.8751904  74.5664725  -6.4107121  71.7635737  75.1019991  -5.3080491
  57.0186824  80.0070729 -10.5796406  56.8832499  80.8522265 -10.1511558
  57.5596637  80.2090006 -11.3430472  53.5054164  66.0862309   6.0817949
  53.1121109  65.5328507   6.7565594  54.3220304  66.3972887   6.4724467
  52.2811106  80.6411923  -7.9245728  52.4577735  81.5629888  -8.1124744
  53.0767940  80.3270342  -7.4951348  56.4222125  67.5020188   3.6738206
  57.1631838  68.1027341   3.5942668  56.6540048  66.7597826   3.1156249
  51.5663463  72.6876555   1.9516436  51.4516978  71.7861812   2.2523535
  50.7107981  72.9340252   1.6001252  58.6455301  80.6294295   3.5503936
  58.2019155  79.8430674   3.2324841  59.3072514  80.8173446   2.8847827
  53.4042422  82.1590097  -1.9235385  53.9549847  82.0307160  -2.6958391
  52.5653898  82.4584986  -2.2740492  60.7436539  80.9097095   1.5785338
  60.7255014  81.7305976   1.0865607  61.6656459  80.7851170   1.8035479
  57.2009593  78.4241225   2.4208846  57.7337930  77.6629513   2.1908154
  56.6723674  78.1314877   3.1633000  60.3679288  63.5301291  -2.0497512
  60.0243557  64.4202932  -2.1258402  60.7358250  63.3402948  -2.9127927
  59.4475828  65.9005946  -4.0848279  58.9440624  65.8636081  -4.8980474
  59.7406435  66.8098689  -4.0251622  65.3063845  76.2742256 -11.6071904
  64.5293287  75.9353416 -12.0516742  65.9855326  76.2794880 -12.2816939
  58.5662305  77.5527217 -10.0672342  58.0383667  76.8179977 -10.3799105
  58.0649808  78.3301894 -10.3132374  63.5455151  75.7476238  -4.9505296
  62.8878826  76.4375499  -4.8625167  64.3495551  76.1372670  -4.6071309
  62.3560610  74.1020610  -6.9001354  62.8692492  74.7350602  -6.3979644
  63.0061834  73.5021806  -7.2657994  59.6182985  84.0804935 -14.1440683
  58.9444683  84.3836631 -13.5355725  60.0048806  84.8834015 -14.4935226
  58.8341441  71.5770066  -4.6543014  57.9164003  71.7985013  -4.8121325
  59.2501585  71.6516376  -5.5131306  63.1222406  79.0826612  -8.7722211
  62.6684734  78.2417522  -8.7157021  62.4916373  79.7188010  -8.4347431
  62.0655326  70.0118598  -7.5421544  61.3278083  69.4995984  -7.2111301
  62.3182100  69.5718979  -8.3538267  61.5655346  80.9203109  -7.8372393
  61.8578320  81.4808166  -8.5560028  62.0753966  81.2131670  -7.0819234
  56.4388033  73.0848643  -6.4403584  56.4936643  72.1322479  -6.5161107
  55.6279235  73.2408082  -5.9562285  56.5288971  81.6983460  -6.7478940
  56.4865150  81.9244306  -7.6770408  57.4451670  81.4646834  -6.5993139
  59.9754605  72.1667527   0.1501689  60.3303992  72.3939000   1.0096155
  60.6226736  72.4985904  -0.4721056  65.7052342  75.2885963  -9.1448982
  65.5670240  75.4787559 -10.0727793  65.3488560  76.0505346  -8.6880931
  53.8694468  69.2744058  -3.0651970  54.5093847  69.1332817  -3.7629006
  53.0371998  68.9878572  -3.4413368  65.7321721  77.3562490  -4.1337710
  66.1658228  77.2637779  -3.2854656  66.4453302  77.3319991  -4.7717694
  54.6454772  78.5746489  -6.9516977  55.4395370  78.0796809  -7.1534402
  53.9346464  78.0464352  -7.3149272  59.4649616  80.9564584  -2.6004610
  59.5186638  81.5255520  -1.8326894  58.5964398  81.1266469  -2.9650573
  52.3448010  70.6582140  -1.1180158  53.0171063  70.4499502  -1.7667510
  51.5177796  70.4604226  -1.5574926  66.5937271  77.3986191  -1.6004825
  66.7873161  78.3032001  -1.3545550  66.4937889  76.9393610  -0.7666240
  58.2473582  67.2844081   0.8985502  57.6001497  67.9834031   0.8049979
  59.0174597  67.7180225   1.2661751  61.6552380  77.5492933   3.9736056
  61.5037886  77.3203485   3.0566139  61.6457059  78.5063535   3.9867401
  58.4237716  75.1224846  -1.0417678  59.3529776  75.2736006  -1.2148711
  58.0028746  75.2108867  -1.8969031  57.2226048  79.1475511  -3.2719140
  57.0837133  78.7794295  -2.3993202  56.4340644  79.6623150  -3.4435182
  57.8174200  84.2484607 -11.9293604  57.9925955  83.7772650 -11.1147981
  57.1306988  84.8750373 -11.7012343  58.7731263  78.5257113  -5.8830302
  58.4381095  78.4857883  -4.9872653  58.2735209  77.8601829  -6.3559892
  52.7475507  73.9324743  -0.3577721  52.6095305  73.2004982   0.2433818
  53.6580430  73.8433643  -0.6393534  55.3757807  73.6444703  -0.8694042
  56.0857426  73.0037895  -0.9107423  55.3327116  73.8957598   0.0532139
  63.3644586  80.5812056   2.0512538  63.3057132  79.8971276   1.3843121
  63.7664105  81.3231046   1.5993164  54.0886741  70.6309921   0.9501598
  53.5524098  70.1800659   1.6023194  53.5003450  70.7655829   0.2072062
  52.3835285  87.3973970  -5.1553744  52.6231883  88.0292494  -4.4774725
  51.5404481  87.0462010  -4.8688384  63.3661993  78.5451640   0.2826517
  62.4788772  78.2077562   0.4052916  63.9360544  77.8134671   0.5195283
  49.8225863  69.7665928  -1.9645408  49.7384051  69.1591598  -2.6994998
  49.0008569  70.2574947  -1.9635911  56.8963147  83.2053092  -2.7512240
  56.8233318  84.0108064  -2.2392935  56.4540540  83.4045058  -3.5764218
  56.6852926  82.4424862  -9.2409418  55.9020448  82.9846543  -9.1471194
  57.3845672  82.9598842  -8.8415177  67.8479334  73.9559857  -4.9556921
  67.8369210  74.8384573  -5.3262988  66.9796713  73.6031408  -5.1502384
  59.3561830  83.1039926  -0.5954081  60.0689803  83.7387391  -0.6678179
  58.8651859  83.2003792  -1.4114079  61.0779357  77.0091179  -9.0236789
  60.1435636  77.1292641  -9.1932085  61.2556026  76.1063646  -9.2876779
  64.4651909  72.8508498  -8.4886755  64.9312361  73.6836490  -8.5626452
  64.9159409  72.3853480  -7.7841497  54.4073744  80.8534370   0.2251490
  55.1083203  81.4870853   0.3780884  53.9368859  81.1949101  -0.5352871
  62.5328140  79.1952320 -11.4900603  62.8087984  79.0808914 -10.5806729
  61.6632638  78.7969804 -11.5288430  62.4368571  65.2189085  -4.4495854
  61.5231651  65.4493312  -4.2813647  62.8661673  65.3027529  -3.5981821
  62.2075030  73.4078977  -1.9495960  61.5546480  73.6554885  -2.6043507
  62.5855410  72.5943115  -2.2833482  59.1682204  83.4438670  -7.8467789
  59.3504598  82.6260326  -7.3840037  59.9915190  83.6606363  -8.2842899
  59.5024369  82.3706856 -10.5852741  60.0312136  81.8599310 -11.1982579
  59.7652589  82.0549386  -9.7207208  58.2562603  74.1498788   4.5370077
  57.5803240  74.0492918   5.2072453  59.0790237  73.9938002   5.0006075
  50.0041462  80.3870725  -2.8417407  50.5894899  79.6414413  -2.7089503
  49.8066300  80.6974682  -1.9580744  52.8580117  83.4221972  -7.8254965
  52.1890492  83.9068100  -8.3090925  52.7192987  83.6691193  -6.9111586
  56.9985386  85.4565716  -1.2272307  57.5503694  85.6197337  -0.4623221
  57.3391579  86.0470154  -1.8992282  51.9749879  67.8040866  -0.6250422
  52.0391205  68.6655696  -1.0373024  51.9116999  67.1914867  -1.3578063
  51.4502151  69.8763998   3.0222612  52.0774190  69.4941075   3.6360137
  50.5930070  69.6578200   3.3878305  61.8496260  80.2826973   4.6276348
  62.3936164  80.8956932   4.1331303  61.2683105  80.8406552   5.1443361
  60.1353773  83.4047691  -4.2408624  60.0104912  82.6037431  -4.7497679
  60.7932864  83.8993885  -4.7294655  62.1988681  81.2056711  -2.6129074
  61.2519017  81.0862063  -2.6850748  62.5471455  80.3179209  -2.5302813
  54.5588255  67.0950850   1.2109167  55.0822657  67.3413147   1.9735477
  54.3400588  67.9270885   0.7912305  59.2035115  81.0009428  -6.4124722
  59.0560077  80.0726135  -6.2317152  60.0288608  81.0229518  -6.8967647
  62.8069237  81.8237986  -5.3259849  63.7315784  81.6180848  -5.4635398
  62.6384540  81.5754387  -4.4170508  55.7640800  68.0364545  -1.1041162
  55.4237620  67.2372358  -0.7020482  55.0579806  68.3366256  -1.6764329
  56.4157272  65.1213858  -2.6513839  57.2383341  64.6474336  -2.7734949
  56.6595335  65.9004342  -2.1515153  53.9395850  71.8132978  -4.8421860
  53.7940431  72.1273282  -3.9497579  53.4621054  72.4317879  -5.3950962
  57.6518364  69.2372867  -2.7487843  57.3936142  70.1589937  -2.7503513
  57.1203404  68.8403301  -2.0587379  62.5964553  82.3423654  -9.9697758
  62.7701430  81.7770076 -10.7223906  63.0893444  83.1424549 -10.1518268
  48.4141513  74.3538323  -1.9034199  47.8694981  75.1298131  -1.7713925
  49.2920862  74.7009127  -2.0615078  68.4503944  75.1060077  -8.3507458
  68.8935090  74.3567402  -8.7488335  67.5730454  75.0970213  -8.7333726
  63.5839725  81.6590418 -12.8700860  64.2790630  82.2797111 -12.6513545
  63.9262875  80.8085769 -12.5948482  49.2007534  73.4808219   0.9895958
  48.4589270  73.6290854   1.5760588  48.8800279  73.7416485   0.1262707
  65.4831148  79.1090124 -11.3413529  66.0082472  79.4477396 -12.0664209
  65.3953501  78.1737139 -11.5250394  57.1451197  83.0224197   0.7876348
  57.4538324  82.7773344   1.6599047  57.9426679  83.2270836   0.2995218
  57.1671809  85.1762107  -6.9818276  56.7276799  84.6838486  -6.2885419
  57.9179926  84.6335075  -7.2226201  49.6464148  81.3673648  -6.9793648
  50.4722168  81.0677420  -7.3595004  49.2958200  80.5981270  -6.5303859
  54.6145681  80.7200116  -4.9095974  53.9925691  80.0570821  -5.2093746
  55.2850548  80.7461248  -5.5922326  47.8472753  79.2859974  -6.0204714
  47.0104661  78.8582149  -6.2020713  47.8196399  79.4792418  -5.0833923
  54.6870209  69.1981904   4.6836532  54.7358364  70.0744027   4.3014302
  55.2292723  68.6559297   4.1108175  65.1725054  79.7423027   3.9637669
  64.3820598  79.7247166   3.4242168  64.9358409  80.2811321   4.7186706
  65.2922929  76.5915494   1.2770398  65.3420934  76.4265501   2.2185920
  65.1836853  75.7242753   0.8868278  62.5826692  72.5746422   2.5929704
  63.4836555  72.4352887   2.3013702  62.6574666  72.7400877   3.5327882
  56.9169497  69.9513276   1.4382891  56.0472807  70.2446843   1.1665479
  57.1528978  70.5353721   2.1590154  66.7941126  79.0112435   1.5212419
  66.5025935  79.3742416   2.3575880  66.1813258  78.2979444   1.3425751
  67.9936809  76.5765315  -5.9585011  68.8283700  77.0155119  -5.7947450
  68.1295937  76.1003968  -6.7776765  65.0428315  74.1345050  -0.0107523
  65.5182436  74.3272696  -0.8188672  64.1193880  74.1904236  -0.2564139
  59.6208531  66.1692893  -1.0451689  60.1390475  66.9053920  -1.3705200
  59.2663664  66.4756887  -0.2104930  63.7429984  71.0110810  -1.7779217
  64.6947406  71.1108908  -1.7566993  63.5733434  70.2189078  -1.2681133
  61.7644363  68.0966393  -1.5919816  61.1694295  68.3771406  -2.2873328
  61.4794060  68.5860294  -0.8203075  60.8951853  82.0489320 -12.8317184
  61.8282527  81.9834882 -12.6284308  60.8075066  82.8845587 -13.2902651
  66.2218061  74.2316930  -2.6636918  66.1894381  73.2932930  -2.4777234
  66.8318685  74.3100966  -3.3971093  66.3712550  71.0227973  -2.6178634
  65.8551598  70.2386430  -2.8048706  67.2552498  70.6946690  -2.4532115
  72.0394611  75.2932936  -3.5230881  72.7698000  75.0318225  -2.9623178
  71.4301557  74.5561658  -3.4828813  70.1209908  73.4340799  -2.9256430
  69.3943072  73.2996764  -3.5339938  69.7057195  73.7417628  -2.1199712
  57.9440085  77.1530729   4.8390943  58.8643094  77.3309328   5.0330990
  57.9089668  76.2086774   4.6870643  50.9402157  75.0631763  -2.5186275
  51.1588167  75.9948871  -2.4998242  51.3527931  74.7039738  -1.7331472
  55.8130023  70.6364969   6.8716473  55.7126749  71.5859326   6.8028565
  55.5951565  70.3083208   5.9992544  47.0310510  75.9672234  -4.2662660
  46.3373981  75.5526187  -4.7792706  47.7783501  76.0092770  -4.8629242
  55.6761293  74.0662108   5.6881535  55.1928374  74.8662468   5.8945424
  55.7622232  74.0770053   4.7348979  51.6034630  77.9566643  -2.2750031
  52.5577884  77.9250585  -2.3420100  51.4047154  77.4957266  -1.4599805
  52.1934012  76.5267759   0.2920767  53.0126901  77.0211837   0.3155604
  52.4670820  75.6099727   0.2638334  65.3015145  68.9425032  -6.6296939
  66.0775535  69.4321484  -6.3572322  64.5763279  69.3683086  -6.1725069
  67.7387703  69.6552651  -5.5722998  68.3332194  69.4148387  -6.2829690
  67.8114287  68.9359782  -4.9449462  49.9584859  83.4986262  -5.2579833
  49.8239327  82.7386663  -5.8241835  49.5416921  84.2227162  -5.7251044
  61.9241632  74.4333047 -10.1300988  61.8676834  74.8901598 -10.9693355
  62.4769975  73.6723732 -10.3078145  65.7346438  70.2222779  -9.3050868
  65.4783372  69.8219415  -8.4742661  65.1099306  70.9366573  -9.4300729
  70.0458776  72.9618852  -6.7979577  69.4858334  73.0312041  -6.0248015
  69.4402279  72.7859837  -7.5180081  53.1153985  84.3955579  -5.0461391
  52.9986369  85.3401012  -5.1482700  52.2946431  84.0929141  -4.6575591
  63.0030519  79.1205715 -14.2004798  63.8376123  78.6886913 -14.3827323
  62.8414862  78.9487729 -13.2727903  47.4468927  70.8605893   0.9912964
  48.0927790  70.3504847   1.4800189  47.2386078  71.5974574   1.5656389
  59.9722319  77.9286740   6.4905104  60.8413478  78.1027392   6.1291739
  59.4929070  78.7481157   6.3680834  54.1408499  85.0483841  -1.8305462
  55.0435746  85.0807451  -1.5138967  53.9145869  84.1184292  -1.8159126
  55.8962101  83.8014828  -5.1695384  54.9457732  83.8016689  -5.2831011
  56.1994587  83.0547562  -5.6859349  51.7866418  68.0073510   5.0887978
  52.6497879  67.6510315   5.2991302  51.2131828  67.6687404   5.7763382
  71.6314794  89.6375366  -4.1049621  72.2693204  89.5182113  -4.8086281
  71.5135637  90.5856210  -4.0461669  68.4404501  89.5902794  -4.1688096
  68.1023012  89.4743859  -5.0567562  69.3094269  89.1893959  -4.1887090
  64.2991316  91.4438271  -8.1791206  63.7356182  91.3528207  -8.9474918
  64.1843711  90.6238175  -7.6988713  68.9224284  90.7437646   1.7898109
  68.9112924  90.3490444   0.9178613  69.0844923  90.0103718   2.3831881
  61.8455748  92.9389462  -5.3406985  62.6377040  92.5980287  -5.7560686
  62.0852399  93.0484437  -4.4204832  65.6431545  93.5274758   0.7377293
  65.3521411  94.4320389   0.6223959  66.2788529  93.5691285   1.4521363
  66.5687752  90.9051606  -2.6721347  67.1651324  90.6807629  -3.3864384
  66.6262723  90.1636352  -2.0695899  71.1856063  87.3626820  -7.0296413
  71.9719152  86.9446243  -7.3805996  71.4494767  88.2672912  -6.8614765
  76.5864490  87.3002053  -6.1263435  77.3189662  86.7301270  -5.8925605
  75.8303846  86.9123654  -5.6856929  68.2040610  89.7229295  -8.9300092
  67.8398817  89.1959916  -8.2187171  69.0607726  89.3327764  -9.1033607
  74.1089910  81.0123627  -1.6668826  73.7773235  81.8819038  -1.8907611
  73.5135524  80.6959911  -0.9874796  70.6021430  93.2136173  -2.2672913
  70.3022153  94.1161212  -2.3757106  70.2572489  92.9468356  -1.4151760
  64.0533911  89.6649970  -6.2336209  63.1284408  89.5326184  -6.0258517
  64.3018325  90.4444189  -5.7366266  74.0018574  85.7318713  -4.5875476
  73.0935451  85.6634122  -4.8816715  73.9506170  86.2090658  -3.7593650
  61.4142722  89.3083244  -5.3992420  61.5435104  89.5617722  -4.4853008
  60.7340174  89.9010952  -5.7187765  68.0759439  87.1508359   3.3559421
  67.2992774  87.7102279   3.3462286  68.7150003  87.6365142   3.8774291
  75.8680220  83.9335152  -2.8097602  75.2254600  84.2267685  -3.4557807
  75.3635149  83.8188072  -2.0044405  66.3305812  89.9593812   2.9177388
  67.0720496  90.4978856   2.6412212  65.6242797  90.5860101   3.0748940
  71.8061151  92.1022953   1.5149550  72.2144507  91.6605363   0.7704182
  71.0838413  91.5275580   1.7683743  68.1592221  87.0395560  -1.1116893
  69.0053417  87.4634973  -0.9682244  68.0990859  86.3829184  -0.4178330
  72.1289966  92.6624143  -4.7298161  71.4998829  92.8269858  -5.4322093
  71.7415628  93.0765753  -3.9587197  71.3091667  84.6999928   0.5464280
  71.0652599  85.4541988   0.0098556  71.5851597  85.0785276   1.3811527
  73.2630130  91.2438540  -0.7758454  73.4747025  91.8870300  -1.4524073
  73.2159878  90.4100857  -1.2436524  70.8656359  83.8556361  -3.8721882
  70.0040838  84.1537614  -3.5805144  70.8918793  84.0726760  -4.8040849
  64.5742009  91.9470033  -4.5268313  65.1443366  92.3757301  -5.1650828
  65.1650121  91.6652618  -3.8284127  66.6186814  88.5221704 -10.6558511
  67.3210857  88.9742748 -10.1884585  66.2867443  87.8805523 -10.0278618
  65.0667176  87.1133460   3.7192698  64.4365836  87.7949741   3.9528095
  64.9603263  87.0016542   2.7745837  60.3612148  86.7805257  -5.3541377
  59.5711202  87.0362785  -5.8301267  60.8523395  87.5953594  -5.2489337
  74.3775958  94.1210496  -2.6036097  75.1993401  93.7190683  -2.8853415
  74.3738360  94.0178730  -1.6519981  62.3126893  87.1449836  -8.3957901
  61.5158057  87.2568530  -7.8774405  62.0852486  87.4836488  -9.2617010
  68.1432561  93.6694539  -0.4475386  68.2076994  94.1314946   0.3882786
  67.4343485  93.0391904  -0.3193076  58.6449851  87.0335747  -2.9226387
  58.8957889  87.9182757  -2.6568811  59.1809399  86.8540348  -3.6951295
  64.3447918  81.4154226   6.0817949  63.9514864  80.8620425   6.7565594
  65.1614059  81.7264805   6.4724467  61.3109976  92.8538085 -10.0068481
  61.8234497  93.6481335  -9.8562916  61.9632689  92.1564375 -10.0734879
  67.2615879  82.8312105   3.6738206  68.0025593  83.4319259   3.5942668
  67.4933802  82.0889743   3.1156249  62.4057217  88.0168473   1.9516436
  62.2910732  87.1153730   2.2523535  61.5501735  88.2632169   1.6001252
  69.4849055  95.9586213   3.5503936  69.0412909  95.1722592   3.2324841
  70.1466269  96.1465363   2.8847827  64.2436176  97.4882015  -1.9235385
  64.7943601  97.3599078  -2.6958391  63.4047652  97.7876904  -2.2740492
  71.5830293  96.2389013   1.5785338  71.5648768  97.0597894   1.0865607
  72.5050213  96.1143088   1.8035479  68.0403347  93.7533142   2.4208846
  68.5731684  92.9921431   2.1908154  67.5117428  93.4606794   3.1633000
  71.2073042  78.8593208  -2.0497512  70.8637312  79.7494850  -2.1258402
  71.5752005  78.6694866  -2.9127927  59.2758893  91.1826739  -9.2308910
  60.1134115  91.5923747  -9.4475203  59.4537161  90.2426181  -9.2608716
  68.7570436  83.6951520  -8.4839839  67.9012032  83.3058371  -8.6634200
  69.1697388  83.7743481  -9.3440053  70.2869583  81.2297864  -4.0848279
  69.7834378  81.1927999  -4.8980474  70.5800189  82.1390606  -4.0251622
  66.5312468  81.3136593  -5.0782097  67.3965465  81.1179402  -5.4376208
  66.5989977  81.0846945  -4.1512741  74.3848906  91.0768155  -4.9505296
  73.7272580  91.7667417  -4.8625167  75.1889305  91.4664587  -4.6071309
  64.1374788  83.5438801  -7.7065731  64.7118539  83.3213983  -8.4392538
  64.7245770  83.6127496  -6.9537129  73.1954365  89.4312528  -6.9001354
  73.7086247  90.0642520  -6.3979644  73.8455589  88.8313724  -7.2657994
  66.4397455  80.4180050  -8.9790661  65.7861868  80.1029067  -9.6034046
  66.3977929  79.7955791  -8.2530838  69.6735196  86.9061984  -4.6543014
  68.7557757  87.1276931  -4.8121325  70.0895339  86.9808294  -5.5131306
  72.9049081  85.3410516  -7.5421544  72.1671837  84.8287902  -7.2111301
  73.1575854  84.9010897  -8.3538267  73.0060708  78.1186768  -6.9479775
  73.3119585  77.2584131  -7.2353860  73.7313313  78.7104388  -7.1480781
  59.2985064  88.5217454  -8.5598177  59.1009464  87.9286815  -9.2847110
  58.7431728  88.2169664  -7.8422238  67.2781788  88.4140561  -6.4403584
  67.3330397  87.4614397  -6.5161107  66.4672990  88.5700000  -5.9562285
  65.2174148  87.0317620  -8.6813205  64.4042013  87.3311791  -8.2748013
  65.7133142  86.6373309  -7.9638723  70.8148359  87.4959445   0.1501689
  71.1697747  87.7230918   1.0096155  71.4620490  87.8277822  -0.4721056
  64.7088222  84.6035976  -3.0651970  65.3487602  84.4624735  -3.7629006
  63.8765753  84.3170489  -3.4413368  65.4848526  93.9038406  -6.9516977
  66.2789125  93.4088726  -7.1534402  64.7740219  93.3756269  -7.3149272
  70.3043371  96.2856502  -2.6004610  70.3580393  96.8547438  -1.8326894
  69.4358152  96.4558387  -2.9650573  61.7931290  88.0481488 -10.8757225
  60.8628878  87.9865944 -10.6587263  61.8888762  87.5257441 -11.6720583
  61.7116839  84.5736301  -8.2878983  61.9723656  85.4881634  -8.3969823
  62.5334011  84.1060743  -8.1382370  63.1841764  85.9874058  -1.1180158
  63.8564817  85.7791420  -1.7667510  62.3571551  85.7896144  -1.5574926
  77.4331025  92.7278108  -1.6004825  77.6266915  93.6323919  -1.3545550
  77.3331643  92.2685527  -0.7666240  69.0867336  82.6135999   0.8985502
  68.4395251  83.3125949   0.8049979  69.8568351  83.0472143   1.2661751
  72.4946134  92.8784851   3.9736056  72.3431640  92.6495403   3.0566139
  72.4850813  93.8355453   3.9867401  69.2631470  90.4516764  -1.0417678
  70.1923530  90.6027923  -1.2148711  68.8422500  90.5400785  -1.8969031
  68.0619802  94.4767428  -3.2719140  67.9230888  94.1086213  -2.3993202
  67.2734398  94.9915068  -3.4435182  69.6125017  93.8549031  -5.8830302
  69.2774850  93.8149801  -4.9872653  69.1128963  93.1893747  -6.3559892
  63.5869261  89.2616661  -0.3577721  63.4489059  88.5296900   0.2433818
  64.4974185  89.1725561  -0.6393534  66.2151562  88.9736620  -0.8694042
  66.9251180  88.3329813  -0.9107423  66.1720870  89.2249515   0.0532139
  74.2038341  95.9103974   2.0512538  74.1450887  95.2263194   1.3843121
  74.6057859  96.6522964   1.5993164  64.9280496  85.9601838   0.9501598
  64.3917853  85.5092577   1.6023194  64.3397204  86.0947747   0.2072062
  74.2055748  93.8743558   0.2826517  73.3182527  93.5369479   0.4052916
  74.7754299  93.1426589   0.5195283  55.8584895  90.2067649  -6.3930431
  56.5455935  89.8929379  -6.9809416  55.7033024  91.1109014  -6.6663180
  60.6619617  85.0957846  -1.9645408  60.5777806  84.4883515  -2.6994998
  59.8402324  85.5866864  -1.9635911  67.7356901  98.5345010  -2.7512240
  67.6627073  99.3399981  -2.2392935  67.2934294  98.7336976  -3.5764218
  70.8343331  83.5811409  -6.5975213  71.3312031  82.8281372  -6.9174142
  70.0630313  83.6175726  -7.1632003  70.1955585  98.4331844  -0.5954081
  70.9083557  99.0679309  -0.6678179  69.7045613  98.5295710  -1.4114079
  67.4178300  85.7228792  -6.8703528  67.0476087  85.1699833  -6.1822622
  67.9137392  85.1186926  -7.4228528  65.2467498  96.1826287   0.2251490
  65.9476958  96.8162770   0.3780884  64.7762613  96.5241019  -0.5352871
  73.2762326  80.5481003  -4.4495854  72.3625406  80.7785230  -4.2813647
  73.7055427  80.6319447  -3.5981821  73.0468784  88.7370895  -1.9495960
  72.3940235  88.9846802  -2.6043507  73.4249164  87.9235033  -2.2833482
  69.0956357  89.4790706   4.5370077  68.4196994  89.3784835   5.2072453
  69.9183991  89.3229920   5.0006075  60.8435216  95.7162642  -2.8417407
  61.4288653  94.9706330  -2.7089503  60.6460055  96.0266599  -1.9580744
  55.4352871  88.2868243  -4.1212964  55.4736971  87.7531833  -3.3275846
  54.9293164  87.7603448  -4.7401987  67.8379140 100.7857633  -1.2272307
  68.3897448 100.9489255  -0.4623221  68.1785334 101.3762071  -1.8992282
  62.8143633  83.1332783  -0.6250422  62.8784960  83.9947614  -1.0373024
  62.7510754  82.5206785  -1.3578063  62.2895906  85.2055916   3.0222612
  62.9167945  84.8232993   3.6360137  61.4323825  84.9870118   3.3878305
  72.6890015  95.6118891   4.6276348  73.2329919  96.2248849   4.1331303
  72.1076859  96.1698469   5.1443361  59.0661449  87.0132345 -11.0459033
  59.3614890  86.1043023 -11.0991979  58.1649484  86.9920084 -11.3678031
  62.5955696  85.0888341  -5.0631484  61.8742281  85.7024309  -5.2024011
  63.3848952  85.6246106  -5.1414838  73.0382436  96.5348629  -2.6129074
  72.0912771  96.4153980  -2.6850748  73.3865209  95.6471127  -2.5302813
  65.3982009  82.4242768   1.2109167  65.9216411  82.6705064   1.9735477
  65.1794343  83.2562803   0.7912305  60.7949290  84.6946443 -10.9219708
  60.4661996  83.8143821 -11.1044602  61.1488661  84.6394111 -10.0343318
  63.9091113  84.9819412 -10.5544230  64.2487186  85.5105334 -11.2765622
  64.3563234  85.3199818  -9.7785664  66.6034554  83.3656463  -1.1041162
  66.2631375  82.5664276  -0.7020482  65.8973561  83.6658174  -1.6764329
  67.2551026  80.4505775  -2.6513839  68.0777095  79.9766254  -2.7734949
  67.4989090  81.2296259  -2.1515153  65.8959261  83.4794034 -12.3550937
  66.6167623  83.8575287 -12.8587220  65.2724565  84.1982911 -12.2515959
  64.7789605  87.1424896  -4.8421860  64.6334186  87.4565199  -3.9497579
  64.3014809  87.7609796  -5.3950962  66.6385988  84.1327444  -4.7940971
  66.6247557  83.2368537  -5.1308673  67.3558416  84.1398108  -4.1602685
  68.4912118  84.5664784  -2.7487843  68.2329896  85.4881855  -2.7503513
  67.9597159  84.1695219  -2.0587379  59.2535267  89.6830241  -1.9034199
  58.7088735  90.4590048  -1.7713925  60.1314617  90.0301045  -2.0615078
  66.0422884  83.0141824  -9.5253401  66.1638795  82.0858471  -9.3262513
  65.7524926  83.0280510 -10.4375085  68.9114074  80.6996735  -6.3886681
  68.9335771  80.7636068  -7.3434701  69.3282133  79.8601243  -6.1946175
  60.0401289  88.8100137   0.9895958  59.2983025  88.9582772   1.5760588
  59.7194033  89.0708402   0.1262707  67.9844952  98.3516115   0.7876348
  68.2932078  98.1065262   1.6599047  68.7820434  98.5562753   0.2995218
  60.4857903  96.6965565  -6.9793648  61.3115922  96.3969337  -7.3595004
  60.1351955  95.9273188  -6.5303859  65.4539436  96.0492034  -4.9095974
  64.8319445  95.3862739  -5.2093746  66.1244303  96.0753166  -5.5922326
  58.6866508  94.6151892  -6.0204714  57.8498416  94.1874066  -6.2020713
  58.6590153  94.8084335  -5.0833923  65.5263963  84.5273822   4.6836532
  65.5752119  85.4035945   4.3014302  66.0686477  83.9851215   4.1108175
  76.0118809  95.0714945   3.9637669  75.2214353  95.0539084   3.4242168
  75.7752163  95.6103239   4.7186706  76.1316684  91.9207411   1.2770398
  76.1814689  91.7557419   2.2185920  76.0230607  91.0534670   0.8868278
  73.4220446  87.9038339   2.5929704  74.3230309  87.7644804   2.3013702
  73.4968421  88.0692794   3.5327882  67.7563252  85.2805194   1.4382891
  66.8866561  85.5738760   1.1665479  67.9922732  85.8645639   2.1590154
  77.6334881  94.3404353   1.5212419  77.3419689  94.7034333   2.3575880
  77.0207012  93.6271361   1.3425751  75.8822069  89.4636968  -0.0107523
  76.3576191  89.6564614  -0.8188672  74.9587634  89.5196153  -0.2564139
  70.4602286  81.4984811  -1.0451689  70.9784229  82.2345838  -1.3705200
  70.1057418  81.8048804  -0.2104930  62.0401223  86.3589492 -12.9290283
  61.3470468  86.4333847 -13.5850247  61.7952975  85.5949836 -12.4068766
  70.7114880  77.9185094  -5.5250792  70.9916633  77.2508283  -4.8990366
  71.4965487  78.1114189  -6.0376129  74.5823738  86.3402728  -1.7779217
  75.5341161  86.4400825  -1.7566993  74.4127188  85.5480996  -1.2681133
  72.6038118  83.4258311  -1.5919816  72.0088050  83.7063324  -2.2873328
  72.3187814  83.9152212  -0.8203075  77.0611816  89.5608847  -2.6636918
  77.0288136  88.6224848  -2.4777234  77.6712439  89.6392884  -3.3971093
  77.2106304  86.3519891  -2.6178634  76.6945353  85.5678347  -2.8048706
  78.0946253  86.0238607  -2.4532115  74.8717031  80.0960906  -6.6582822
  74.6741852  79.7875994  -5.7739490  75.4816737  80.8222545  -6.5284892
  80.9603663  88.7632717  -2.9256430  80.2336826  88.6288682  -3.5339938
  80.5450950  89.0709545  -2.1199712  68.7833839  92.4822646   4.8390943
  69.7036849  92.6601245   5.0330990  68.7483422  91.5378692   4.6870643
  58.0016004  87.6761240  -6.2355782  57.6818789  86.8226548  -6.5281408
  57.4549432  87.8909818  -5.4797815  61.7795912  90.3923681  -2.5186275
  61.9981922  91.3240789  -2.4998242  62.1921686  90.0331655  -1.7331472
  68.7000130  80.8991766 -10.5310587  67.8900858  80.5538851 -10.1555341
  69.3884546  80.5899310  -9.9422976  70.6290678  79.9769813  -8.9086290
  71.1821716  80.3965267  -8.2496267  70.8660764  79.0505561  -8.8663334
  66.6523777  85.9656887   6.8716473  66.5520504  86.9151244   6.8028565
  66.4345319  85.6375126   5.9992544  57.8704264  91.2964152  -4.2662660
  57.1767736  90.8818104  -4.7792706  58.6177255  91.3384688  -4.8629242
  74.0069485  82.0870338  -9.4007626  73.4268154  82.7455142  -9.7829574
  73.7405418  81.2647683  -9.8120209  72.4573051  81.4875396  -7.1986306
  72.9572830  81.5991931  -8.0071987  73.1008659  81.1836449  -6.5585497
  66.5155047  89.3954026   5.6881535  66.0322129  90.1954386   5.8945424
  66.6015986  89.4061971   4.7348979  59.7841007  91.2282405  -6.3896646
  59.7611695  91.3270093  -7.3414762  60.0941643  92.0747556  -6.0679479
  62.4428385  93.2858560  -2.2750031  63.3971638  93.2542503  -2.3420100
  62.2440908  92.8249184  -1.4599805  63.0327767  91.8559676   0.2920767
  63.8520656  92.3503755   0.3155604  63.3064574  90.9391645   0.2638334
  76.1408899  84.2716950  -6.6296939  76.9169289  84.7613402  -6.3572322
  75.4157033  84.6975004  -6.1725069  78.5781458  84.9844569  -5.5722998
  79.1725949  84.7440305  -6.2829690  78.6508041  84.2651699  -4.9449462
  60.7978613  98.8278180  -5.2579833  60.6633081  98.0678581  -5.8241835
  60.3810676  99.5519080  -5.7251044  63.9547739  99.7247497  -5.0461391
  63.8380123 100.6692929  -5.1482700  63.1340186  99.4221058  -4.6575591
  58.2862681  86.1897810   0.9912964  58.9321545  85.6796764   1.4800189
  58.0779832  86.9266492   1.5656389  70.8116073  93.2578658   6.4905104
  71.6807233  93.4319310   6.1291739  70.3322825  94.0773075   6.3680834
  66.8066291  80.4537855 -13.2563140  66.7944961  81.3979695 -13.0994869
  67.6989713  80.2708000 -13.5503679  64.9802253 100.3775759  -1.8305462
  65.8829500 100.4099369  -1.5138967  64.7539623  99.4476210  -1.8159126
  70.6218411  77.0480632  -9.0017203  69.8550807  76.4939118  -8.8560521
  71.0329116  77.1202500  -8.1403052  62.6260172  83.3365427   5.0887978
  63.4891634  82.9802232   5.2991302  62.0525583  82.9979322   5.7763382
  78.9153194 102.4800277   3.3559421  78.1386528 103.0394197   3.3462286
  79.5543757 102.9657060   3.8774291  75.9060930 102.4425378   3.7192698
  75.2759591 103.1241659   3.9528095  75.7997018 102.3308460   2.7745837
  75.1841673  96.7446144   6.0817949  74.7908618  96.1912343   6.7565594
  76.0007813  97.0556722   6.4724467  78.1009634  98.1604023   3.6738206
  78.8419347  98.7611176   3.5942668  78.3327557  97.4181661   3.1156249
  73.2450972 103.3460390   1.9516436  73.1304487 102.4445648   2.2523535
  72.3895490 103.5924087   1.6001252  79.9261091  97.9427917   0.8985502
  79.2789006  98.6417866   0.8049979  80.6962106  98.3764061   1.2661751
  75.7674250 101.2893756   0.9501598  75.2311607 100.8384494   1.6023194
  75.1790959 101.4239665   0.2072062  79.9350112 104.8082624   4.5370077
  79.2590749 104.7076753   5.2072453  80.7577746 104.6521837   5.0006075
  73.6537388  98.4624701  -0.6250422  73.7178714  99.3239532  -1.0373024
  73.5904508  97.8498703  -1.3578063  73.1289660 100.5347833   3.0222612
  73.7561699 100.1524911   3.6360137  72.2717579 100.3162035   3.3878305
  76.2375764  97.7534686   1.2109167  76.7610166  97.9996982   1.9735477
  76.0188097  98.5854720   0.7912305  70.8795043 104.1392054   0.9895958
  70.1376779 104.2874690   1.5760588  70.5587788 104.4000320   0.1262707
  76.3657718  99.8565739   4.6836532  76.4145873 100.7327862   4.3014302
  76.9080232  99.3143132   4.1108175  78.5957006 100.6097112   1.4382891
  77.7260316 100.9030678   1.1665479  78.8316487 101.1937557   2.1590154
  77.4917532 101.2948804   6.8716473  77.3914258 102.2443161   6.8028565
  77.2739074 100.9667043   5.9992544  77.3548802 104.7245943   5.6881535
  76.8715883 105.5246303   5.8945424  77.4409741 104.7353888   4.7348979
  69.1256435 101.5189728   0.9912964  69.7715299 101.0088682   1.4800189
  68.9173587 102.2558410   1.5656389  73.4653926  98.6657345   5.0887978
  74.3285388  98.3094150   5.2991302  72.8919337  98.3271240   5.7763382
  69.4849056  72.9648336  -9.7250757  69.0412910  72.1784714 -10.0429853
  70.1466270  73.1527486 -10.3906866  71.5830294  73.2451136 -11.6969356
  71.5648770  74.0660017 -12.1889087  72.5050214  73.1205211 -11.4719215
  68.0403349  70.7595265 -10.8545847  68.5731685  69.9983553 -11.0846540
  67.5117430  70.4668917 -10.1121693  72.4946135  69.8846974  -9.3018638
  72.3431642  69.6557525 -10.2188554  72.4850815  70.8417575  -9.2887293
  74.2038342  72.9166096 -11.2242156  74.1450888  72.2325316 -11.8911573
  74.6057860  73.6585086 -11.6761530  74.2055749  70.8805680 -12.9928176
  73.3182528  70.5431602 -12.8701777  74.7754300  70.1488711 -12.7559411
  70.1955586  75.4393967 -13.8708774  70.9083558  76.0741431 -13.9432873
  69.7045615  75.5357833 -14.6868772  69.0956359  66.4852829  -8.7384616
  68.4196996  66.3846958  -8.0682241  69.9183992  66.3292042  -8.2748619
  67.8379141  77.7919756 -14.5027000  68.3897450  77.9551378 -13.7377915
  68.1785335  78.3824194 -15.1746975  72.6890016  72.6181014  -8.6478346
  73.2329920  73.2310972  -9.1423391  72.1076861  73.1760592  -8.1311333
  67.9844953  75.3578238 -12.4878346  68.2932079  75.1127384 -11.6155646
  68.7820435  75.5624876 -12.9759475  76.0118810  72.0777068  -9.3117024
  75.2214354  72.0601206  -9.8512525  75.7752165  72.6165361  -8.5567988
  76.1316685  68.9269534 -11.9984296  76.1814690  68.7619541 -11.0568773
  76.0230609  68.0596793 -12.3886415  77.6334882  71.3466475 -11.7542274
  77.3419690  71.7096456 -10.9178813  77.0207013  70.6333484 -11.9328942
  68.7833840  69.4884769  -8.4363750  69.7036850  69.6663368  -8.2423703
  68.7483424  68.5440814  -8.5884051  70.8116074  70.2640780  -6.7849589
  71.6807234  70.4381433  -7.1462954  70.3322826  71.0835197  -6.9073860
  78.9153195  79.4862399  -9.9195272  78.1386529  80.0456319  -9.9292407
  79.5543758  79.9719182  -9.3980402  75.9060931  79.4487501  -9.5561995
  75.2759592  80.1303782  -9.3226598  75.7997019  79.3370582 -10.5008857
  75.1841674  73.7508267  -7.1936744  74.7908620  73.1974465  -6.5189100
  76.0007814  74.0618845  -6.8030226  78.1009635  75.1666146  -9.6016487
  78.8419348  75.7673299  -9.6812025  78.3327558  74.4243783 -10.1598445
  73.2450973  80.3522513 -11.3238258  73.1304488  79.4507770 -11.0231159
  72.3895491  80.5986210 -11.6753441  79.9261092  74.9490039 -12.3769191
  79.2789007  75.6479989 -12.4704715  80.6962107  75.3826183 -12.0092943
  75.7674252  78.2955878 -12.3253096  75.2311609  77.8446617 -11.6731499
  75.1790960  78.4301787 -13.0682631  79.9350113  81.8144746  -8.7384616
  79.2590750  81.7138876  -8.0682241  80.7577747  81.6583960  -8.2748619
  73.6537389  75.4686823 -13.9005115  73.7178716  76.3301654 -14.3127718
  73.5904509  74.8560825 -14.6332757  73.1289662  77.5409956 -10.2532081
  73.7561701  77.1587033  -9.6394557  72.2717581  77.3224158  -9.8876389
  76.2375765  74.7596808 -12.0645526  76.7610167  75.0059105 -11.3019217
  76.0188098  75.5916843 -12.4842389  70.8795045  81.1454177 -12.2858736
  70.1376781  81.2936812 -11.6994105  70.5587789  81.4062443 -13.1491986
  76.3657719  76.8627862  -8.5918161  76.4145874  77.7389985  -8.9740392
  76.9080233  76.3205255  -9.1646518  78.5957007  77.6159234 -11.8371803
  77.7260317  77.9092800 -12.1089214  78.8316488  78.1999679 -11.1164539
  77.4917533  78.3010927  -6.4038220  77.3914260  79.2505284  -6.4726129
  77.2739075  77.9729166  -7.2762150  77.3548803  81.7308066  -7.5873158
  76.8715885  82.5308426  -7.3809269  77.4409742  81.7416011  -8.5405714
  69.1256437  78.5251851 -12.2841730  69.7715300  78.0150805 -11.7954505
  68.9173588  79.2620532 -11.7098304  73.4653928  75.6719468  -8.1866716
  74.3285389  75.3156272  -7.9763391  72.8919338  75.3333362  -7.4991311
   6.5925664 121.1233083  46.8467645   5.8389373 120.5540481  46.6911650
   6.7273205 121.0895748  47.7938280   0.6959189 123.3438247  48.9681060
   1.1295696 123.2513536  49.8164114   1.4090770 123.3195747  48.3301076
   1.5574739 123.3861947  51.5013945   1.7510629 124.2907758  51.7473220
   1.4575357 122.9269366  52.3352530   2.8116802 119.9435614  48.1461849
   2.8006678 120.8260329  47.7755782   1.9434181 119.5907165  47.9516386
   3.4141412 121.0935833  44.7511312   3.8572558 120.3443158  44.3530435
   2.5367922 121.0845970  44.3685044   1.7578594 124.9988192  54.6231189
   1.4663403 125.3618172  55.4594650   1.1450726 124.2855200  54.4444522
   2.9574277 122.5641072  47.1433760   3.7921168 123.0030876  47.3071320
   3.0933405 122.0879725  46.3242005   1.1855529 120.2192686  50.4381853
   1.1531849 119.2808687  50.6241537   1.7956153 120.2976723  49.7047678
   1.3350018 117.0103730  50.4840136   0.8189066 116.2262186  50.2970065
   2.2189966 116.6822446  50.6486655   7.0032079 121.2808693  49.5787889
   7.7335468 121.0193981  50.1395593   6.3939025 120.5437415  49.6189957
   5.0847376 119.4216556  50.1762341   4.3580540 119.2872521  49.5678832
   4.6694663 119.7293384  50.9819059   2.7025171 115.6428408  47.5295772
   3.2969662 115.4024144  46.8189081   2.7751755 114.9235538  48.1569309
   5.0096244 118.9494609  46.3039193   4.4495802 119.0187798  47.0770756
   4.4039747 118.7735593  45.5838690   9.0727378 126.9999384  51.4349944
   8.7410703 127.8694795  51.2111159   8.4772992 126.6835668  52.1143975
   6.1710510 124.8468965  51.0521258   5.8274780 125.7370607  50.9760369
   6.5389473 124.6570623  50.1890843   5.2507051 127.2173620  49.0170491
   4.7471846 127.1803755  48.2038297   5.5437657 128.1266363  49.0767148
   1.4034923 126.4055807  44.1228109   0.7499336 126.0904824  43.4984724
   1.3615397 125.7831547  44.8487932   7.9698176 124.1062524  46.1538996
   8.2757053 123.2459888  45.8664911   8.6950781 124.6980144  45.9537990
   8.2399794 126.5356760  48.6522917   7.3262874 126.7660986  48.8205124
   8.6692895 126.6195204  49.5036949   2.2188494 126.4381532  50.4504931
   3.0414563 125.9642010  50.3283822   2.4626558 127.2172016  50.9503618
   3.8751542 126.6872491  46.7132090   3.8973239 126.7511824  45.7584069
   4.2919601 125.8477000  46.9072596   5.4239754 127.4860568  52.0567081
   5.9421697 128.2221595  51.7313570   5.0694886 127.7924561  52.8913840
   5.6752348 123.9060850  47.5767978   5.9554101 123.2384039  48.2028404
   6.4602955 124.0989946  47.0642642   9.8354499 126.0836663  46.4435949
   9.6379320 125.7751751  47.3279281  10.4454205 126.8098302  46.5733878
   3.6637598 126.8867523  42.5708183   2.8538326 126.5414608  42.9463429
   4.3522015 126.5775067  43.1595795   5.5928146 125.9645570  44.1932480
   6.1459184 126.3841023  44.8522503   5.8298232 125.0381318  44.2355436
   8.9706953 128.0746095  43.7011144   8.3905622 128.7330899  43.3189197
   8.7042886 127.2523440  43.2898562   7.4210519 127.4751153  45.9032464
   7.9210298 127.5867687  45.0946783   8.0646127 127.1712205  46.5433273
  13.5418926 130.9720326  47.5295772  14.1363417 130.7316061  46.8189081
  13.6145509 130.2527456  48.1569309   5.5855879 123.0356388  44.1001567
   4.8188275 122.4814875  44.2458249   5.9966584 123.1078257  44.9615719
   6.5925665  98.1295206  33.5712952   5.8389374  97.5602604  33.4156956
   6.7273207  98.0957870  34.5183587   0.6959191 100.3500369  35.6926367
   1.1295697 100.2575658  36.5409421   1.4090771 100.3257870  35.0546383
   1.5574740 100.3924070  38.2259252   1.7510630 101.2969880  38.4718527
   1.4575358  99.9331489  39.0597837   2.8116803  96.9497736  34.8707156
   2.8006679  97.8322452  34.5001089   1.9434183  96.5969287  34.6761693
   3.4141413  98.0997956  31.4756619   3.8572559  97.3505281  31.0775742
   2.5367923  98.0908092  31.0930351   1.7578596 102.0050314  41.3476496
   1.4663404 102.3680295  42.1839957   1.1450727 101.2917323  41.1689828
   2.9574278  99.5703194  33.8679066   3.7921169 100.0092998  34.0316627
   3.0933407  99.0941847  33.0487312   1.1855531  97.2254809  37.1627159
   1.1531851  96.2870810  37.3486843   1.7956154  97.3038846  36.4292984
   1.3350019  94.0165852  37.2085443   0.8189068  93.2324309  37.0215371
   2.2189968  93.6884569  37.3731962   7.0032080  98.2870816  36.3033196
   7.7335469  98.0256104  36.8640899   6.3939026  97.5499538  36.3435264
   5.0847378  96.4278678  36.9007647   4.3580541  96.2934643  36.2924139
   4.6694664  96.7355507  37.7064365   2.7025173  92.6490530  34.2541079
   3.2969663  92.4086266  33.5434387   2.7751756  91.9297661  34.8814615
   5.0096245  95.9556731  33.0284500   4.4495803  96.0249921  33.8016062
   4.4039749  95.7797716  32.3083996   6.5952264 112.6313245  35.7214456
   7.2330674 112.5119993  35.0177796   6.4773107 113.5794089  35.7802408
   3.4041970 112.5840673  35.6575981   3.0660482 112.4681738  34.7696515
   4.2731738 112.1831838  35.6376987   3.8861753 113.7375525  41.6162186
   3.8750394 113.3428323  40.7442690   4.0482392 113.0041598  42.2095958
   1.5325221 113.8989485  37.1542730   2.1288793 113.6745508  36.4399693
   1.5900193 113.1574231  37.7568178   6.1493532 110.3564699  32.7967664
   6.9356621 109.9384122  32.4458081   6.4132237 111.2610791  32.9649312
  11.5501959 110.2939932  33.7000642  12.2827131 109.7239149  33.9338472
  10.7941315 109.9061533  34.1407148   9.0727380 104.0061506  38.1595251
   8.7410704 104.8756917  37.9356466   8.4772993 103.6897790  38.8389281
   5.5658899 116.2074052  37.5591164   5.2659622 117.1099091  37.4506971
   5.2209959 115.9406236  38.4112317   8.9656043 108.7256593  35.2388601
   8.0572920 108.6572001  34.9447362   8.9143639 109.2028537  36.0670427
   3.0396909 110.1446238  43.1823498   2.2630243 110.7040158  43.1726363
   3.6787472 110.6303021  43.7038368  10.8317689 106.9273031  37.0166475
  10.1892070 107.2205564  36.3706270  10.3272618 106.8125951  37.8219672
   1.2943281 112.9531691  42.7441465   2.0357965 113.4916735  42.4676289
   0.5880267 113.5797980  42.9013017   6.7698621 115.0960832  41.3413627
   7.1781977 114.6543242  40.5968259   6.0475882 114.5213459  41.5947820
   3.1229691 110.0333439  38.7147184   3.9690886 110.4572852  38.8581833
   3.0628328 109.3767063  39.4085747   7.0927435 115.6562023  35.0965916
   6.4636298 115.8207737  34.3941984   6.7053097 116.0703632  35.8676880
  10.9716667 116.5916460  32.4510279  10.2867705 116.9715362  31.9007313
  11.0560517 117.2011787  33.1842227   6.2729136 107.6937807  40.3728357
   6.0290068 108.4479868  39.8362633   6.5489067 108.0723155  41.2075604
   8.2267599 114.2376419  39.0505623   8.4384494 114.8808179  38.3740004
   8.1797347 113.4038736  38.5827553   5.8293828 106.8494240  35.9542195
   4.9678307 107.1475494  36.2458933   5.8556262 107.0664639  35.0223228
   9.3413427 117.1148375  37.2227980  10.1630871 116.7128562  36.9410662
   9.3375830 117.0116609  38.1744096   3.1070030 116.6632418  39.3788691
   3.1714463 117.1252825  40.2146863   2.3980954 116.0329783  39.5071001
  17.4319420 113.4587123  33.5712952  16.6783128 112.8894521  33.4156956
  17.5666961 113.4249788  34.5183587   2.2253349 105.8249985  43.5002283
   2.9663062 106.4257138  43.4206745   2.4571271 105.0827622  42.9420326
   4.4486524 118.9524092  43.3768013   4.0050378 118.1660471  43.0588918
   5.1103738 119.1403243  42.7111904   6.5467762 119.2326892  41.4049415
   6.5286238 120.0535773  40.9129684   7.4687682 119.1080967  41.6299556
   3.0040817 116.7471022  42.2472923   3.5369153 115.9859310  42.0172231
   2.4754898 116.4544673  42.9897077   6.1710512 101.8531088  37.7766565
   5.8274781 102.7432729  37.7005675   6.5389474 101.6632745  36.9136150
   3.7207905 106.6889399  31.3424238   2.8649502 106.2996250  31.1629877
   4.1334857 106.7681360  30.4824024   5.2507052 104.2235743  35.7415798
   4.7471847 104.1865878  34.9283603   5.5437659 105.1328485  35.8012455
   1.4949938 104.3074472  34.7481980   2.3602935 104.1117281  34.3887869
   1.5627447 104.0784824  35.6751336   9.3486375 114.0706035  34.8758781
   8.6910050 114.7605296  34.9638910  10.1526774 114.4602466  35.2192768
   8.1591834 112.4250407  32.9262723   8.6723716 113.0580399  33.4284433
   8.8093058 111.8251603  32.5606083   1.4034925 103.4117929  30.8473416
   0.7499337 103.0966946  30.2230031   1.3615399 102.7893670  31.5733239
   4.6372665 109.8999863  35.1721063   3.7195226 110.1214810  35.0142752
   5.0532809 109.9746173  34.3132771   7.8686550 108.3348395  32.2842533
   7.1309307 107.8225781  32.6152776   8.1213323 107.8948776  31.4725810
   7.9698177 101.1124647  32.8784302   8.2757054 100.2522010  32.5910217
   8.6950782 101.7042267  32.6783296   5.7785829 110.4897324  39.9765766
   6.1335216 110.7168797  40.8360232   6.4257960 110.8215701  39.3543021
  11.5083565 113.6115760  30.6815095  11.3701464 113.8017356  29.7536284
  11.1519784 114.3735143  31.1383146  11.5352945 115.6792287  35.6926367
  11.9689452 115.5867576  36.5409421  12.2484526 115.6549787  35.0546383
   5.2680840 119.2794381  37.2259467   5.3217862 119.8485317  37.9937183
   4.3995621 119.4496266  36.8613504  12.3968495 115.7215988  38.2259252
  12.5904385 116.6261798  38.4718527  12.2969113 115.2623407  39.0597837
   4.0504805 105.6073878  40.7249579   3.4032720 106.3063828  40.6314056
   4.8205821 106.0410022  41.0925828   7.4583603 115.8722730  43.8000133
   7.3069110 115.6433282  42.8830216   7.4488283 116.8293332  43.8131478
   4.2268940 113.4454643  38.7846399   5.1561000 113.5965803  38.6115366
   3.8059970 113.5338664  37.9295046   1.1789031 111.9674500  38.9570035
   1.8888650 111.3267692  38.9156654   1.1358339 112.2187394  39.8796216
   9.1675810 118.9041853  41.8776615   9.1088356 118.2201073  41.2107198
   9.5695328 119.6460843  41.4257241   9.1693217 116.8681437  40.1090594
   8.2819996 116.5307359  40.2316993   9.7391768 116.1364468  40.3459360
   5.7980800 106.5749289  33.2288864   6.2949500 105.8219251  32.9089935
   5.0267782 106.6113605  32.6632074  13.6510558 112.2789654  34.8707156
  13.6400434 113.1614370  34.5001089  12.7827937 111.9261205  34.6761693
   5.1593054 121.4269723  39.2309996   5.8721026 122.0617188  39.1585898
   4.6683083 121.5233589  38.4149998   2.3815769 108.7166672  32.9560549
   2.0113557 108.1637712  33.6441455   2.8774862 108.1124805  32.4035549
  10.2683132 111.1738295  31.3377322  10.7343585 112.0066287  31.2637625
  10.7190633 110.7083277  32.0422580   8.2399795 103.5418882  35.3768223
   7.3262875 103.7723109  35.5450430   8.6692897 103.6257326  36.2282256
   8.0106254 111.7308774  37.8768117   7.3577704 111.9784682  37.2220570
   8.3886634 110.9172912  37.5430595   4.0593827 112.4728585  44.3634154
   3.3834464 112.3722714  45.0336530   4.8821461 112.3167799  44.8270152
   7.6527484 118.6056770  44.4540425   8.1967388 119.2186728  43.9595380
   7.0714329 119.1636349  44.9707438   8.0019905 119.5286508  37.2135003
   7.0550241 119.4091859  37.1413329   8.3502678 118.6409006  37.2961264
   8.6100460 120.1467783  34.5004228   9.5347008 119.9410644  34.3628679
   8.4415764 119.8984184  35.4093569   1.5672024 106.3594342  38.7222915
   1.2268844 105.5602155  39.1243595   0.8611030 106.6596053  38.1499748
   2.2188495 103.4443655  37.1750238   3.0414565 102.9704133  37.0529128
   2.4626559 104.2234138  37.6748924   1.6023457 107.1265323  35.0323106
   1.5885026 106.2306417  34.6955404   2.3195885 107.1335987  35.6661392
   3.4549588 107.5602663  37.0776234   3.1967366 108.4819734  37.0760564
   2.9234628 107.1633098  37.7676698   3.8751543 103.6934614  33.4377396
   3.8973240 103.7573947  32.4829376   4.2919602 102.8539123  33.6317902
  14.2535168 113.4289874  31.4756619  14.6966314 112.6797199  31.0775742
  13.3761678 113.4200010  31.0930351   2.9482421 121.3453994  40.6140425
   3.2569547 121.1003141  41.4863124   3.7457903 121.5500633  40.1259295
   0.4901433 107.5211701  44.5100609   0.5389588 108.3973824  44.1278379
   1.0323947 106.9789094  43.9372252  10.9756278 118.0652824  43.7901746
  10.1851822 118.0476963  43.2506245  10.7389633 118.6041118  44.5450783
  11.0954153 114.9145291  41.1034475  11.1452158 114.7495298  42.0449997
  10.9868077 114.0472550  40.7132355   8.3857916 110.8976219  42.4193781
   9.2867778 110.7582683  42.1277779   8.4605890 111.0630673  43.3591959
   2.7200721 108.2743073  41.2646968   1.8504030 108.5676639  40.9929556
   2.9560201 108.8583518  41.9854231  12.5972350 117.3342232  41.3476496
  12.3057158 117.6972213  42.1839957  11.9844481 116.6209240  41.1689828
  13.7968032 114.8995112  33.8679066  14.6314924 115.3384916  34.0316627
  13.9327161 114.4233765  33.0487312  10.8459538 112.4574847  39.8156554
  11.3213660 112.6502493  39.0075405   9.9225104 112.5134033  39.5699938
   5.4239755 104.4922690  38.7812388   5.9421699 105.2283717  38.4558877
   5.0694888 104.7986684  39.6159147   5.6752349 100.9122973  34.3013285
   5.9554103 100.2446162  34.9273711   6.4602956 101.1052068  33.7887948
   9.5461207 109.3340607  38.0484860  10.4978630 109.4338704  38.0697084
   9.3764658 108.5418875  38.5582944   7.5675587 106.4196190  38.2344261
   6.9725519 106.7001203  37.5390749   7.2825283 106.9090091  39.0061002
  12.0249285 112.5546726  37.1627159  11.9925605 111.6162727  37.3486843
  12.6349909 112.6330763  36.4292984  12.1743774 109.3457770  37.2085443
  11.6582822 108.5616227  37.0215371  13.0583722 109.0176487  37.3731962
   9.8354501 103.0898785  33.1681255   9.6379322 102.7813874  34.0524587
  10.4454206 103.8160424  33.2979185  17.8425835 113.6162733  36.3033196
  18.5729223 113.3548021  36.8640899  17.2332780 112.8791455  36.3435264
  15.9241132 111.7570596  36.9007647  15.1974296 111.6226561  36.2924139
  15.5088419 112.0647425  37.7064365   3.7471309 115.4760526  44.6655020
   4.6674318 115.6539125  44.8595067   3.7120892 114.5316571  44.5134720
   3.6637599 103.8929646  29.2953490   2.8538327 103.5476731  29.6708736
   4.3522016 103.5837189  29.8841101   5.5928147 102.9707692  30.9177787
   6.1459186 103.3903146  31.5767810   5.8298233 102.0443440  30.9600743
   1.6161246 108.9594766  46.6980550   1.5157973 109.9089123  46.6292642
   1.3982788 108.6313005  45.8256621   8.9706954 105.0808218  30.4256451
   8.3905623 105.7393022  30.0434503   8.7042887 104.2585562  30.0143868
   7.4210521 104.4813275  32.6277771   7.9210299 104.5929810  31.8192090
   8.0646129 104.1774328  33.2678580   1.4792516 112.3891905  45.5145612
   0.9959598 113.1892265  45.7209501   1.5653455 112.3999850  44.5613056
   7.7531832 107.2408308  29.4812799   6.8657687 107.5257959  29.2632994
   8.1685821 107.0802071  28.6340076  11.1046368 107.2654829  33.1967138
  11.8806758 107.7551281  33.4691755  10.3794503 107.6912883  33.6539008
  13.5418927 107.9782448  34.2541079  14.1363418 107.7378184  33.5434387
  13.6145511 107.2589579  34.8814615  11.5377662 108.5452576  30.5213209
  11.2814596 108.1449211  31.3521416  10.9130530 109.2596370  30.3963348
  15.8490000 111.2848649  33.0284500  15.2889558 111.3541838  33.8016062
  15.2433503 111.1089634  32.3083996   5.7753542 116.2516537  46.3169181
   6.6444702 116.4257189  45.9555816   5.2960294 117.0710954  46.1944911
   5.5855880 100.0418511  30.8246874   4.8188276  99.4876997  30.9703556
   5.9966585 100.1140379  31.6861025  17.4346018 127.9605163  35.7214456
  18.0724428 127.8411910  35.0177796  17.3166861 128.9086007  35.7802408
  14.2435724 127.9132591  35.6575981  13.9054236 127.7973656  34.7696515
  15.1125493 127.5123756  35.6376987  14.7255507 129.0667443  41.6162186
  14.7144148 128.6720241  40.7442690  14.8876147 128.3333515  42.2095958
  12.3718975 129.2281403  37.1542730  12.9682548 129.0037425  36.4399693
  12.4293947 128.4866149  37.7568178  16.9887287 125.6856617  32.7967664
  17.7750376 125.2676040  32.4458081  17.2525991 126.5902709  32.9649312
  22.3895714 125.6231850  33.7000642  23.1220886 125.0531067  33.9338472
  21.6335070 125.2353450  34.1407148  19.9121134 119.3353424  38.1595251
  19.5804459 120.2048835  37.9356466  19.3166748 119.0189708  38.8389281
  19.8049798 124.0548510  35.2388601  18.8966675 123.9863919  34.9447362
  19.7537393 124.5320455  36.0670427  13.8790663 125.4738156  43.1823498
  13.1023997 126.0332076  43.1726363  14.5181226 125.9594939  43.7038368
  21.6711444 122.2564949  37.0166475  21.0285824 122.5497482  36.3706270
  21.1666372 122.1417869  37.8219672  12.1337036 128.2823609  42.7441465
  12.8751720 128.8208653  42.4676289  11.4274021 128.9089898  42.9013017
  17.6092375 130.4252750  41.3413627  18.0175731 129.9835160  40.5968259
  16.8869637 129.8505377  41.5947820  13.9623445 125.3625356  38.7147184
  14.8084640 125.7864770  38.8581833  13.9022083 124.7058981  39.4085747
  17.9321190 130.9853940  35.0965916  17.3030052 131.1499654  34.3941984
  17.5446852 131.3995550  35.8676880  21.8110422 131.9208378  32.4510279
  21.1261460 132.3007279  31.9007313  21.8954271 132.5303705  33.1842227
  17.1122891 123.0229725  40.3728357  16.8683822 123.7771785  39.8362633
  17.3882821 123.4015072  41.2075604  19.0661353 129.5668337  39.0505623
  19.2778249 130.2100097  38.3740004  19.0191102 128.7330654  38.5827553
  16.6687582 122.1786158  35.9542195  15.8072061 122.4767411  36.2458933
  16.6950017 122.3956557  35.0223228  10.8698399 125.4363257  43.5456775
  10.2397060 126.1179538  43.7792172  10.7634487 125.3246339  42.6009914
  20.1807181 132.4440293  37.2227980  21.0024625 132.0420480  36.9410662
  20.1769584 132.3408527  38.1744096  28.2713174 128.7879041  33.5712952
  27.5176883 128.2186439  33.4156956  28.4060716 128.7541706  34.5183587
  10.1479142 119.7384023  45.9082026   9.7546088 119.1850222  46.5829671
  10.9645282 120.0494602  46.2988544  13.0647103 121.1541902  43.5002283
  13.8056816 121.7549055  43.4206745  13.2965026 120.4119540  42.9420326
   8.2088441 126.3398270  41.7780513   8.0941956 125.4383527  42.0787612
   7.3532959 126.5861966  41.4265329  17.0104266 117.1823005  37.7766565
  16.6668535 118.0724647  37.7005675  17.3783229 116.9924663  36.9136150
  14.5601660 122.0181317  31.3424238  13.7043256 121.6288167  31.1629877
  14.9728612 122.0973278  30.4824024  16.0900806 119.5527660  35.7415798
  15.5865602 119.5157796  34.9283603  16.3831413 120.4620403  35.8012455
  12.3343692 119.6366390  34.7481980  13.1996689 119.4409199  34.3887869
  12.4021201 119.4076742  35.6751336  20.1880130 129.3997952  34.8758781
  19.5303804 130.0897214  34.9638910  20.9920529 129.7894384  35.2192768
  18.9985589 127.7542325  32.9262723  19.5117470 128.3872317  33.4284433
  19.6486812 127.1543520  32.5606083  12.2428679 118.7409847  30.8473416
  11.5893091 118.4258864  30.2230031  12.2009153 118.1185587  31.5733239
  15.4766419 125.2291780  35.1721063  14.5588981 125.4506727  35.0142752
  15.8926563 125.3038091  34.3132771  18.7080304 123.6640312  32.2842533
  17.9703061 123.1517699  32.6152776  18.9607078 123.2240694  31.4725810
  18.8091932 116.4416564  32.8784302  19.1150808 115.5813928  32.5910217
  19.5344536 117.0334185  32.6783296  16.6179583 125.8189242  39.9765766
  16.9728971 126.0460715  40.8360232  17.2651714 126.1507618  39.3543021
  22.3477320 128.9407678  30.6815095  22.2095219 129.1309274  29.7536284
  21.9913539 129.7027060  31.1383146  10.5119446 122.9265773  36.7612107
  11.1518825 122.7854532  36.0635071   9.6796977 122.6400286  36.3850709
  22.3746700 131.0084205  35.6926367  22.8083206 130.9159494  36.5409421
  23.0878280 130.9841705  35.0546383   8.9872988 124.3103855  38.7083919
   9.6596041 124.1021217  38.0596567   8.1602774 124.1125941  38.2689151
  23.2362249 131.0507905  38.2259252  23.4298139 131.9553716  38.4718527
  23.1362867 130.5915324  39.0597837  14.8898560 120.9365796  40.7249579
  14.2426475 121.6355745  40.6314056  15.6599575 121.3701940  41.0925828
  18.2977358 131.2014648  43.8000133  18.1462864 130.9725200  42.8830216
  18.2882037 132.1585249  43.8131478  15.0662694 128.7746561  38.7846399
  15.9954754 128.9257720  38.6115366  14.6453724 128.8630582  37.9295046
   9.3900485 127.5846458  39.4686356   9.2520283 126.8526697  40.0697895
  10.3005409 127.4955358  39.1870543  12.0182786 127.2966417  38.9570035
  12.7282404 126.6559609  38.9156654  11.9752094 127.5479312  39.8796216
  10.7311720 124.2831635  40.7765675  10.1949077 123.8322374  41.4287271
  10.1428428 124.4177544  40.0336139  20.0086972 132.1973354  40.1090594
  19.1213750 131.8599276  40.2316993  20.5785523 131.4656386  40.3459360
  16.6374555 121.9041206  33.2288864  17.1343254 121.1511169  32.9089935
  15.8661536 121.9405523  32.6632074  24.4904312 127.6081572  34.8707156
  24.4794188 128.4906287  34.5001089  23.6221692 127.2553123  34.6761693
  13.2209524 124.0458589  32.9560549  12.8507311 123.4929630  33.6441455
  13.7168616 123.4416723  32.4035549  21.1076887 126.5030213  31.3377322
  21.5737339 127.3358204  31.2637625  21.5584387 126.0375194  32.0422580
  19.0793550 118.8710800  35.3768223  18.1656629 119.1015027  35.5450430
  19.5086651 118.9549244  36.2282256  18.8500008 127.0600692  37.8768117
  18.1971458 127.3076599  37.2220570  19.2280388 126.2464830  37.5430595
  14.8987581 127.8020503  44.3634154  14.2228218 127.7014632  45.0336530
  15.7215215 127.6459717  44.8270152   8.6174857 121.4562580  39.2013655
   8.6816184 122.3177411  38.7891053   8.5541977 120.8436582  38.4686014
   8.0927130 123.5285713  42.8486689   8.7199169 123.1462790  43.4624214
   7.2355049 123.3099915  43.2142382  11.2013233 120.7472565  41.0373244
  11.7247635 120.9934861  41.7999554  10.9825566 121.5792600  40.6176382
  12.4065778 121.6886260  38.7222915  12.0662598 120.8894073  39.1243595
  11.7004784 121.9887971  38.1499748  13.0582250 118.7735572  37.1750238
  13.8808319 118.2996051  37.0529128  13.3020313 119.5526056  37.6748924
  12.4417212 122.4557241  35.0323106  12.4278780 121.5598334  34.6955404
  13.1589640 122.4627905  35.6661392  14.2943342 122.8894581  37.0776234
  14.0361120 123.8111652  37.0760564  13.7628383 122.4925016  37.7676698
  14.7145298 119.0226532  33.4377396  14.7366995 119.0865865  32.4829376
  15.1313357 118.1831040  33.6317902  25.0928922 128.7581791  31.4756619
  25.5360068 128.0089116  31.0775742  24.2155432 128.7491928  31.0930351
  11.3295187 122.8503619  44.5100609  11.3783342 123.7265741  44.1278379
  11.8717701 122.3081012  43.9372252  21.8150033 133.3944742  43.7901746
  21.0245576 133.3768881  43.2506245  21.5783387 133.9333036  44.5450783
  21.9347908 130.2437208  41.1034475  21.9845913 130.0787216  42.0449997
  21.8261831 129.3764467  40.7132355  19.2251670 126.2268136  42.4193781
  20.1261533 126.0874601  42.1277779  19.2999645 126.3922591  43.3591959
  13.5594475 123.6034991  41.2646968  12.6897785 123.8968557  40.9929556
  13.7953956 124.1875436  41.9854231  23.4366105 132.6634150  41.3476496
  23.1450913 133.0264130  42.1839957  22.8238236 131.9501158  41.1689828
  24.6361787 130.2287030  33.8679066  25.4708678 130.6676834  34.0316627
  24.7720916 129.7525683  33.0487312  21.6853293 127.7866764  39.8156554
  22.1607414 127.9794411  39.0075405  20.7618858 127.8425950  39.5699938
  16.2633509 119.8214608  38.7812388  16.7815453 120.5575635  38.4558877
  15.9088642 120.1278601  39.6159147  16.5146103 116.2414890  34.3013285
  16.7947857 115.5738080  34.9273711  17.2996710 116.4343986  33.7887948
  20.3854962 124.6632524  38.0484860  21.3372385 124.7630622  38.0697084
  20.2158412 123.8710793  38.5582944  18.4069341 121.7488108  38.2344261
  17.8119273 122.0293120  37.5390749  18.1219038 122.2382009  39.0061002
  22.8643040 127.8838644  37.1627159  22.8319360 126.9454645  37.3486843
  23.4743663 127.9622681  36.4292984  23.0137528 124.6749688  37.2085443
  22.4976577 123.8908144  37.0215371  23.8977477 124.3468404  37.3731962
  20.6748255 118.4190703  33.1681255  20.4773076 118.1105791  34.0524587
  21.2847961 119.1452342  33.2979185  28.6819589 128.9454651  36.3033196
  29.4122978 128.6839939  36.8640899  28.0726535 128.2083373  36.3435264
  26.7634887 127.0862514  36.9007647  26.0368050 126.9518479  36.2924139
  26.3482173 127.3939342  37.7064365  14.5865063 130.8052443  44.6655020
  15.5068072 130.9831042  44.8595067  14.5514646 129.8608489  44.5134720
  14.5031353 119.2221563  29.2953490  13.6932082 118.8768648  29.6708736
  15.1915770 118.9129107  29.8841101  16.4321902 118.2999610  30.9177787
  16.9852940 118.7195063  31.5767810  16.6691988 117.3735358  30.9600743
  12.4555001 124.2886684  46.6980550  12.3551728 125.2381041  46.6292642
  12.2376543 123.9604923  45.8256621  19.8100709 120.4100135  30.4256451
  19.2299378 121.0684939  30.0434503  19.5436641 119.5877480  30.0143868
  18.2604275 119.8105193  32.6277771  18.7604053 119.9221727  31.8192090
  18.9039883 119.5066246  33.2678580  12.3186271 127.7183823  45.5145612
  11.8353353 128.5184183  45.7209501  12.4047210 127.7291767  44.5613056
  18.5925587 122.5700226  29.4812799  17.7051442 122.8549876  29.2632994
  19.0079576 122.4093989  28.6340076  21.9440123 122.5946747  33.1967138
  22.7200513 123.0843199  33.4691755  21.2188257 123.0204801  33.6539008
  24.3812681 123.3074366  34.2541079  24.9757172 123.0670102  33.5434387
  24.4539265 122.5881496  34.8814615  22.3771416 123.8744493  30.5213209
  22.1208351 123.4741129  31.3521416  21.7524284 124.5888287  30.3963348
  26.6883754 126.6140567  33.0284500  26.1283312 126.6833756  33.8016062
  26.0827258 126.4381551  32.3083996   4.0893905 124.5127607  40.8177041
   4.7352768 124.0026561  41.3064266   3.8811056 125.2496289  41.3920466
  16.4249635 115.3710428  30.8246874  15.6582031 114.8168915  30.9703556
  16.8360340 115.4432297  31.6861025   8.4291396 121.6595224  44.9152055
   9.2922857 121.3032029  45.1255379   7.8556806 121.3209119  45.6027459
  30.7514889 134.6645342  38.1595251  30.4198213 135.5340753  37.9356466
  30.1560502 134.3481626  38.8389281  27.8498020 132.5114923  37.7766565
  27.5062290 133.4016565  37.7005675  28.2176983 132.3216581  36.9136150
  26.9294561 134.8819578  35.7415798  26.4259356 134.8449713  34.9283603
  27.2225168 135.7912321  35.8012455  23.0822434 134.0701765  30.8473416
  22.4286846 133.7550782  30.2230031  23.0402908 133.4477505  31.5733239
  29.6485686 131.7708482  32.8784302  29.9544563 130.9105846  32.5910217
  30.3738291 132.3626102  32.6783296  29.9187304 134.2002717  35.3768223
  29.0050384 134.4306944  35.5450430  30.3480406 134.2841162  36.2282256
  23.8976004 134.1027490  37.1750238  24.7202074 133.6287968  37.0529128
  24.1414068 134.8817974  37.6748924  25.5539052 134.3518449  33.4377396
  25.5760749 134.4157782  32.4829376  25.9707111 133.5122958  33.6317902
  27.1027264 135.1506526  38.7812388  27.6209208 135.8867553  38.4558877
  26.7482397 135.4570519  39.6159147  27.3539858 131.5706808  34.3013285
  27.6341612 130.9029997  34.9273711  28.1390465 131.7635904  33.7887948
  31.5142009 133.7482621  33.1681255  31.3166831 133.4397709  34.0524587
  32.1241715 134.4744260  33.2979185  25.3425108 134.5513481  29.2953490
  24.5325836 134.2060566  29.6708736  26.0309525 134.2421025  29.8841101
  27.2715656 133.6291528  30.9177787  27.8246695 134.0486981  31.5767810
  27.5085742 132.7027276  30.9600743  30.6494463 135.7392053  30.4256451
  30.0693132 136.3976857  30.0434503  30.3830396 134.9169397  30.0143868
  29.0998030 135.1397111  32.6277771  29.5997808 135.2513645  31.8192090
  29.7433637 134.8358163  33.2678580  35.2206436 138.6366283  34.2541079
  35.8150927 138.3962019  33.5434387  35.2933020 137.9173414  34.8814615
  27.2643389 130.7002346  30.8246874  26.4975785 130.1460833  30.9703556
  27.6754094 130.7724215  31.6861025   6.5925667  75.1357328  20.2958258
   5.8389375  74.5664726  20.1402263   6.7273208  75.1019993  21.2428893
   0.6959192  77.3562492  22.4171673   1.1295698  77.2637781  23.2654727
   1.4090773  77.3319992  21.7791689   1.5574741  77.3986192  24.9504559
   1.7510631  78.3032003  25.1963834   1.4575360  76.9393612  25.7843144
   2.8116804  73.9559859  21.5952463   2.8006681  74.8384575  21.2246396
   1.9434184  73.6031410  21.4007000   3.4141414  75.1060078  18.2001925
   3.8572560  74.3567404  17.8021049   2.5367925  75.0970215  17.8175657
   1.7578597  79.0112437  28.0721803   1.4663405  79.3742418  28.9085264
   1.1450728  78.2979445  27.8935135   2.9574279  76.5765317  20.5924373
   3.7921171  77.0155121  20.7561933   3.0933408  76.1003970  19.7732619
   1.1855532  74.2316931  23.8872466   1.1531852  73.2932932  24.0732150
   1.7956156  74.3100968  23.1538291   1.3350020  71.0227975  23.9330749
   0.8189069  70.2386431  23.7460678   2.2189969  70.6946691  24.0977269
   7.0032082  75.2932938  23.0278503   7.7335470  75.0318226  23.5886206
   6.3939027  74.5561660  23.0680571   5.0847379  73.4340801  23.6252954
   4.3580542  73.2996766  23.0169446   4.6694666  73.7417629  24.4309672
   2.7025174  69.6552653  20.9786386   3.2969665  69.4148389  20.2679694
   2.7751757  68.9359784  21.6059922   5.0096247  72.9618854  19.7529807
   4.4495804  73.0312043  20.5261369   4.4039750  72.7859838  19.0329303
   6.5952265  89.6375368  22.4459762   7.2330675  89.5182115  21.7423103
   6.4773108  90.5856212  22.5047715   3.4041971  89.5902796  22.3821287
   3.0660483  89.4743861  21.4941822   4.2731739  89.1893961  22.3622293
   3.8861754  90.7437648  28.3407493   3.8750395  90.3490446  27.4687996
   4.0482394  90.0103720  28.9341264   1.5325222  90.9051608  23.8788036
   2.1288794  90.6807630  23.1644999   1.5900194  90.1636353  24.4813484
   6.1493533  87.3626822  19.5212971   6.9356623  86.9446245  19.1703388
   6.4132238  88.2672914  19.6894619  11.5501961  87.3002055  20.4245949
  12.2827133  86.7301272  20.6583779  10.7941316  86.9123655  20.8652455
   9.0727381  81.0123629  24.8840558   8.7410706  81.8819040  24.6601773
   8.4772994  80.6959913  25.5634588   5.5658900  93.2136175  24.2836470
   5.2659624  94.1161214  24.1752278   5.2209960  92.9468358  25.1357623
   8.9656044  85.7318715  21.9633908   8.0572922  85.6634124  21.6692669
   8.9143640  86.2090660  22.7915733   3.0396910  87.1508361  29.9068805
   2.2630244  87.7102281  29.8971670   3.6787473  87.6365144  30.4283675
  10.8317691  83.9335154  23.7411782  10.1892071  84.2267687  23.0951576
  10.3272619  83.8188074  24.5464978   1.2943282  89.9593814  29.4686772
   2.0357967  90.4978858  29.1921596   0.5880268  90.5860103  29.6258324
   6.7698622  92.1022955  28.0658933   7.1781978  91.6605365  27.3213566
   6.0475883  91.5275582  28.3193126   3.1229692  87.0395561  25.4392490
   3.9690887  87.4634975  25.5827139   3.0628330  86.3829186  26.1331054
   7.0927437  92.6624145  21.8211222   6.4636299  92.8269859  21.1187290
   6.7053099  93.0765755  22.5922186  10.9716669  93.5978583  19.1755586
  10.2867707  93.9777484  18.6252619  11.0560518  94.2073910  19.9087534
   6.2729137  84.6999930  27.0973664   6.0290069  85.4541990  26.5607940
   6.5489068  85.0785277  27.9320911   8.2267600  91.2438542  25.7750930
   8.4384495  91.8870302  25.0985311   8.1797348  90.4100859  25.3072860
   5.8293829  83.8556363  22.6787502   4.9678308  84.1537616  22.9704239
   5.8556264  84.0726762  21.7468534   9.3413428  94.1210497  23.9473287
  10.1630872  93.7190685  23.6655969   9.3375831  94.0178732  24.8989403
   3.1070032  93.6694541  26.1033997   3.1714464  94.1314948  26.9392169
   2.3980955  93.0391906  26.2316307  17.4319421  90.4649246  20.2958258
  16.6783130  89.8956644  20.1402263  17.5666962  90.4311910  21.2428893
   2.2253350  82.8312107  30.2247590   2.9663063  83.4319260  30.1452052
   2.4571273  82.0889745  29.6665632   4.4486526  95.9586215  30.1013320
   4.0050380  95.1722593  29.7834224   5.1103739  96.1465365  29.4357211
   6.5467764  96.2389015  28.1294721   6.5286239  97.0597896  27.6374990
   7.4687684  96.1143090  28.3544862   3.0040818  93.7533144  28.9718230
   3.5369155  92.9921432  28.7417538   2.4754899  93.4606796  29.7142384
   6.1710513  78.8593210  24.5011871   5.8274782  79.7494852  24.4250982
   6.5389475  78.6694868  23.6381456   3.7207907  83.6951522  18.0669545
   2.8649503  83.3058372  17.8875183   4.1334858  83.7743483  17.2069330
   5.2507053  81.2297865  22.4661105   4.7471849  81.1928000  21.6528910
   5.5437660  82.1390608  22.5257761   1.4949939  81.3136595  21.4727286
   2.3602936  81.1179404  21.1133176   1.5627448  81.0846947  22.3996643
   9.3486377  91.0768157  21.6004088   8.6910051  91.7667419  21.6884216
  10.1526776  91.4664589  21.9438074   8.1591835  89.4312530  19.6508030
   8.6723717  90.0642522  20.1529739   8.8093059  88.8313725  19.2851390
   1.4034926  80.4180052  17.5718722   0.7499338  80.1029069  16.9475337
   1.3615400  79.7955792  18.2978545   4.6372666  86.9061985  21.8966370
   3.7195228  87.1276932  21.7388058   5.0532810  86.9808296  21.0378077
   7.8686551  85.3410517  19.0087840   7.1309308  84.8287904  19.3398082
   8.1213325  84.9010899  18.1971117   7.9698178  78.1186769  19.6029609
   8.2757055  77.2584133  19.3155524   8.6950783  78.7104390  19.4028603
   5.7785830  87.4959447  26.7011073   6.1335217  87.7230920  27.5605539
   6.4257961  87.8277823  26.0788328  11.5083567  90.6177882  17.4060402
  11.3701465  90.8079478  16.4781591  11.1519786  91.3797265  17.8628453
  11.5352946  92.6854409  22.4171673  11.9689453  92.5929699  23.2654727
  12.2484527  92.6611910  21.7791689   5.2680841  96.2856504  23.9504774
   5.3217863  96.8547440  24.7182490   4.3995623  96.4558389  23.5858811
  12.3968496  92.7278110  24.9504559  12.5904386  93.6323921  25.1963834
  12.2969114  92.2685529  25.7843144   4.0504807  82.6136001  27.4494886
   3.4032722  83.3125950  27.3559362   4.8205822  83.0472145  27.8171134
   7.4583605  92.8784853  30.5245439   7.3069111  92.6495405  29.6075523
   7.4488284  93.8355454  30.5376784   4.2268941  90.4516766  25.5091706
   5.1561001  90.6027925  25.3360673   3.8059971  90.5400786  24.6540352
   1.1789033  88.9736622  25.6815342   1.8888651  88.3329814  25.6401960
   1.1358341  89.2249517  26.6041523   9.1675811  95.9103975  28.6021921
   9.1088357  95.2263196  27.9352504   9.5695330  96.6522965  28.1502547
   9.1693218  93.8743559  26.8335901   8.2819997  93.5369481  26.9562300
   9.7391770  93.1426591  27.0704666   5.7980802  83.5811411  19.9534171
   6.2949501  82.8281374  19.6335241   5.0267783  83.6175728  19.3877380
  13.6510559  89.2851777  21.5952463  13.6400435  90.1676492  21.2246396
  12.7827938  88.9323328  21.4007000   5.1593055  98.4331846  25.9555303
   5.8721028  99.0679311  25.8831204   4.6683084  98.5295712  25.1395305
   2.3815770  85.7228794  19.6805856   2.0113558  85.1699835  20.3686761
   2.8774863  85.1186928  19.1280856  10.2683134  88.1800418  18.0622629
  10.7343586  89.0128409  17.9882931  10.7190634  87.7145399  18.7667887
   8.2399796  80.5481005  22.1013530   7.3262876  80.7785232  22.2695737
   8.6692898  80.6319449  22.9527562   8.0106255  88.7370897  24.6013424
   7.3577705  88.9846804  23.9465877   8.3886635  87.9235035  24.2675901
   4.0593828  89.4790708  31.0879461   3.3834465  89.3784837  31.7581836
   4.8821462  89.3229921  31.5515458   7.6527485  95.6118893  31.1785731
   8.1967389  96.2248851  30.6840686   7.0714330  96.1698471  31.6952744
   8.0019906  96.5348631  23.9380309   7.0550242  96.4153982  23.8658636
   8.3502680  95.6471129  24.0206571   8.6100462  97.1529906  21.2249534
   9.5347009  96.9472767  21.0873985   8.4415765  96.9046307  22.1338876
   1.5672025  83.3656465  25.4468222   1.2268845  82.5664278  25.8488902
   0.8611031  83.6658176  24.8745055   2.2188497  80.4505777  23.8995545
   3.0414566  79.9766255  23.7774435   2.4626560  81.2296261  24.3994231
   1.6023458  84.1327446  21.7568413   1.5885027  83.2368539  21.4200711
   2.3195886  84.1398110  22.3906699   3.4549589  84.5664786  23.8021540
   3.1967367  85.4881857  23.8005871   2.9234629  84.1695221  24.4922004
   3.8751545  80.6996737  20.1622703   3.8973241  80.7636070  19.2074682
   4.2919604  79.8601245  20.3563209  14.2535169  90.4351996  18.2001925
  14.6966315  89.6859321  17.8021049  13.3761679  90.4262133  17.8175657
   2.9482422  98.3516117  27.3385731   3.2569549  98.1065264  28.2108431
   3.7457904  98.5562755  26.8504602   0.4901434  84.5273824  31.2345916
   0.5389589  85.4035946  30.8523685   1.0323948  83.9851217  30.6617559
  10.9756279  95.0714947  30.5147053  10.1851823  95.0539086  29.9751552
  10.7389634  95.6103240  31.2696089  11.0954155  91.9207413  27.8279781
  11.1452159  91.7557421  28.7695304  10.9868078  91.0534672  27.4377662
   8.3857917  87.9038341  29.1439088   9.2867780  87.7644806  28.8523086
   8.4605891  88.0692796  30.0837265   2.7200722  85.2805196  27.9892274
   1.8504032  85.5738762  27.7174863   2.9560203  85.8645641  28.7099538
  12.5972351  94.3404355  28.0721803  12.3057160  94.7034335  28.9085264
  11.9844483  93.6271363  27.8935135  13.7968034  91.9057234  20.5924373
  14.6314925  92.3447039  20.7561933  13.9327162  91.4295888  19.7732619
  10.8459540  89.4636969  26.5401861  11.3213661  89.6564616  25.7320712
   9.9225105  89.5196155  26.2945244   5.4239756  81.4984813  25.5057695
   5.9421700  82.2345840  25.1804183   5.0694889  81.8048806  26.3404454
   5.6752350  77.9185095  21.0258591   5.9554104  77.2508284  21.6519018
   6.4602957  78.1114191  20.5133255   9.5461209  86.3402729  24.7730166
  10.4978631  86.4400827  24.7942390   9.3764659  85.5480998  25.2828251
   7.5675588  83.4258313  24.9589567   6.9725520  83.7063325  24.2636056
   7.2825285  83.9152214  25.7306308  12.0249286  89.5608849  23.8872466
  11.9925606  88.6224850  24.0732150  12.6349910  89.6392886  23.1538291
  12.1743775  86.3519893  23.9330749  11.6582823  85.5678349  23.7460678
  13.0583723  86.0238609  24.0977269   9.8354502  80.0960908  19.8926562
   9.6379323  79.7875996  20.7769894  10.4454207  80.8222547  20.0224492
  17.8425836  90.6224856  23.0278503  18.5729225  90.3610144  23.5886206
  17.2332782  89.8853578  23.0680571  15.9241133  88.7632718  23.6252954
  15.1974297  88.6288683  23.0169446  15.5088420  89.0709547  24.4309672
   3.7471310  92.4822648  31.3900327   4.6674319  92.6601247  31.5840374
   3.7120893  91.5378694  31.2380026   3.6637600  80.8991768  16.0198797
   2.8538328  80.5538853  16.3954043   4.3522017  80.5899312  16.6086408
   5.5928148  79.9769815  17.6423093   6.1459187  80.3965268  18.3013116
   5.8298235  79.0505563  17.6846049   1.6161248  85.9656889  33.4225857
   1.5157975  86.9151246  33.3537948   1.3982790  85.6375127  32.5501927
   8.9706955  82.0870340  17.1501757   8.3905625  82.7455144  16.7679810
   8.7042888  81.2647685  16.7389175   7.4210522  81.4875398  19.3523078
   7.9210300  81.5991932  18.5437397   8.0646130  81.1836451  19.9923886
   1.4792518  89.3954027  32.2390919   0.9959599  90.1954388  32.4454808
   1.5653457  89.4061972  31.2858363   7.7531833  84.2470430  16.2058106
   6.8657689  84.5320081  15.9878300   8.1685823  84.0864194  15.3585383
  11.1046370  84.2716951  19.9212445  11.8806760  84.7613404  20.1937062
  10.3794504  84.6975006  20.3784314  13.5418928  84.9844571  20.9786386
  14.1363419  84.7440307  20.2679694  13.6145512  84.2651701  21.6059922
  11.5377663  85.5514698  17.2458515  11.2814597  85.1511334  18.0766723
  10.9130531  86.2658492  17.1208655  15.8490001  88.2910772  19.7529807
  15.2889559  88.3603961  20.5261369  15.2433504  88.1151756  19.0329303
   5.7753544  93.2578660  33.0414488   6.6444703  93.4319312  32.6801123
   5.2960295  94.0773076  32.9190217   5.5855881  77.0480633  17.5492180
   4.8188277  76.4939120  17.6948863   5.9966586  77.1202502  18.4106332
  17.4346019 104.9667285  22.4459762  18.0724429 104.8474033  21.7423103
  17.3166862 105.9148129  22.5047715  14.2435726 104.9194714  22.3821287
  13.9054237 104.8035778  21.4941822  15.1125494 104.5185879  22.3622293
  14.7255509 106.0729565  28.3407493  14.7144150 105.6782364  27.4687996
  14.8876148 105.3395638  28.9341264  11.4462770 108.8566677  27.2886677
  11.1552636 109.7612308  27.1733343  12.0819754 108.8983205  28.0030746
  12.3718977 106.2343526  23.8788036  12.9682549 106.0099548  23.1644999
  12.4293948 105.4928271  24.4813484  16.9887288 102.6918739  19.5212971
  17.7750377 102.2738162  19.1703388  17.2525992 103.5964832  19.6894619
  22.3895715 102.6293973  20.4245949  23.1220887 102.0593189  20.6583779
  21.6335071 102.2415573  20.8652455  19.9121135  96.3415547  24.8840558
  19.5804460  97.2110958  24.6601773  19.3166749  96.0251831  25.5634588
  16.4052655 108.5428093  24.2836470  16.1053378 109.4453131  24.1752278
  16.0603714 108.2760276  25.1357623  19.8049799 101.0610633  21.9633908
  18.8966676 100.9926041  21.6692669  19.7537395 101.5382578  22.7915733
  13.8790665 102.4800278  29.9068805  13.1023999 103.0394199  29.8971670
  14.5181228 102.9657061  30.4283675  21.6711445  99.2627071  23.7411782
  21.0285825  99.5559604  23.0951576  21.1666374  99.1479992  24.5464978
  12.1337037 105.2885732  29.4686772  12.8751721 105.8270776  29.1921596
  11.4274022 105.9152021  29.6258324  17.6092376 107.4314872  28.0658933
  18.0175733 106.9897283  27.3213566  16.8869638 106.8567500  28.3193126
  13.9623447 102.3687479  25.4392490  14.8084642 102.7926893  25.5827139
  13.9022084 101.7121103  26.1331054  17.9321191 107.9916063  21.8211222
  17.3030054 108.1561777  21.1187290  17.5446853 108.4057672  22.5922186
  21.8110423 108.9270501  19.1755586  21.1261461 109.3069402  18.6252619
  21.8954272 109.5365827  19.9087534  17.1122892 100.0291847  27.0973664
  16.8683824 100.7833908  26.5607940  17.3882822 100.4077195  27.9320911
  19.0661355 106.5730460  25.7750930  19.2778250 107.2162220  25.0985311
  19.0191103 105.7392776  25.3072860  16.6687584  99.1848280  22.6787502
  15.8072063  99.4829534  22.9704239  16.6950018  99.4018679  21.7468534
  10.8698401 102.4425380  30.2702082  10.2397061 103.1241661  30.5037479
  10.7634488 102.3308462  29.3255220  20.1807183 109.4502415  23.9473287
  21.0024626 109.0482602  23.6655969  20.1769585 109.3470649  24.8989403
  13.9463786 108.9986458  26.1033997  14.0108219 109.4606866  26.9392169
  13.2374710 108.3683823  26.2316307  28.2713176 105.7941164  20.2958258
  27.5176884 105.2248562  20.1402263  28.4060717 105.7603828  21.2428893
  10.1479143  96.7446146  32.6327333   9.7546089  96.1912344  33.3074977
  10.9645284  97.0556724  33.0233851  13.0647104  98.1604025  30.2247590
  13.8056818  98.7611178  30.1452052  13.2965027  97.4181663  29.6665632
   8.2088442 103.3460392  28.5025819   8.0941957 102.4445649  28.8032918
   7.3532960 103.5924089  28.1510636  15.2880280 111.2878132  30.1013320
  14.8444134 110.5014511  29.7834224  15.9497494 111.4757283  29.4357211
  17.3861518 111.5680932  28.1294721  17.3679993 112.3889813  27.6374990
  18.3081438 111.4435008  28.3544862  13.8434572 109.0825062  28.9718230
  14.3762909 108.3213350  28.7417538  13.3148653 108.7898714  29.7142384
  17.0104267  94.1885128  24.5011871  16.6668537  95.0786769  24.4250982
  17.3783230  93.9986785  23.6381456  14.5601661  99.0243440  18.0669545
  13.7043257  98.6350290  17.8875183  14.9728613  99.1035401  17.2069330
  16.0900808  96.5589783  22.4661105  15.5865603  96.5219918  21.6528910
  16.3831414  97.4682526  22.5257761  12.3343694  96.6428513  21.4727286
  13.1996690  96.4471321  21.1133176  12.4021202  96.4138864  22.3996643
  20.1880131 106.4060075  21.6004088  19.5303805 107.0959336  21.6884216
  20.9920530 106.7956507  21.9438074  18.9985590 104.7604448  19.6508030
  19.5117472 105.3934439  20.1529739  19.6486814 104.1605643  19.2851390
  12.2428680  95.7471970  17.5718722  11.5893093  95.4320987  16.9475337
  12.2009154  95.1247710  18.2978545  15.4766421 102.2353903  21.8966370
  14.5588982 102.4568850  21.7388058  15.8926564 102.3100214  21.0378077
  18.7080306 100.6702435  19.0087840  17.9703062 100.1579821  19.3398082
  18.9607079 100.2302817  18.1971117  18.8091933  93.4478687  19.6029609
  19.1150810  92.5876050  19.3155524  19.5344538  94.0396307  19.4028603
  16.6179584 102.8251364  26.7011073  16.9728972 103.0522837  27.5605539
  17.2651715 103.1569741  26.0788328  22.3477321 105.9469800  17.4060402
  22.2095220 106.1371396  16.4781591  21.9913540 106.7089183  17.8628453
  10.5119447  99.9327895  23.4857414  11.1518827  99.7916654  22.7880377
   9.6796978  99.6462409  23.1096016  22.3746701 108.0146327  22.4171673
  22.8083207 107.9221616  23.2654727  23.0878281 107.9903828  21.7791689
  16.1074596 111.6148421  23.9504774  16.1611618 112.1839358  24.7182490
  15.2389377 111.7850306  23.5858811   8.9872989 101.3165977  25.4329225
   9.6596042 101.1083340  24.7841874   8.1602776 101.1188063  24.9934457
  23.2362250 108.0570028  24.9504559  23.4298140 108.9615838  25.1963834
  23.1362869 107.5977447  25.7843144  14.8898561  97.9427918  27.4494886
  14.2426476  98.6417868  27.3559362  15.6599576  98.3764062  27.8171134
  18.2977359 108.2076771  30.5245439  18.1462865 107.9787322  29.6075523
  18.2882038 109.1647372  30.5376784  15.0662695 105.7808683  25.5091706
  15.9954755 105.9319843  25.3360673  14.6453725 105.8692704  24.6540352
   9.3900486 104.5908580  26.1931662   9.2520284 103.8588819  26.7943201
  10.3005410 104.5017481  25.9115850  12.0182787 104.3028540  25.6815342
  12.7282406 103.6621732  25.6401960  11.9752095 104.5541435  26.6041523
  20.0069566 111.2395893  28.6021921  19.9482112 110.5555113  27.9352504
  20.4089084 111.9814883  28.1502547  10.7311721 101.2893758  27.5010981
  10.1949078 100.8384496  28.1532578  10.1428429 101.4239667  26.7581446
  20.0086973 109.2035477  26.8335901  19.1213752 108.8661399  26.9562300
  20.5785524 108.4718508  27.0704666  16.6374556  98.9103329  19.9534171
  17.1343256  98.1573291  19.6335241  15.8661538  98.9467646  19.3877380
  24.4904313 104.6143694  21.5952463  24.4794190 105.4968410  21.2246396
  23.6221693 104.2615245  21.4007000  15.9986810 113.7623763  25.9555303
  16.7114782 114.3971228  25.8831204  15.5076838 113.8587629  25.1395305
  13.2209525 101.0520712  19.6805856  12.8507312 100.4991752  20.3686761
  13.7168617 100.4478845  19.1280856  21.1076888 103.5092335  18.0622629
  21.5737340 104.3420327  17.9882931  21.5584389 103.0437317  18.7667887
  19.0793551  95.8772922  22.1013530  18.1656631  96.1077149  22.2695737
  19.5086652  95.9611366  22.9527562  18.8500009 104.0662814  24.6013424
  18.1971460 104.3138722  23.9465877  19.2280389 103.2526953  24.2675901
  14.8987582 104.8082625  31.0879461  14.2228219 104.7076755  31.7581836
  15.7215216 104.6521839  31.5515458   8.6174858  98.4624703  25.9258962
   8.6816185  99.3239534  25.5136359   8.5541979  97.8498704  25.1931320
   8.0927131 100.5347835  29.5731996   8.7199170 100.1524913  30.1869520
   7.2355050 100.3162037  29.9387688  18.4921240 110.9410810  31.1785731
  19.0361144 111.5540769  30.6840686  17.9108084 111.4990389  31.6952744
  18.8413661 111.8640548  23.9380309  17.8943996 111.7445900  23.8658636
  19.1896434 110.9763047  24.0206571  11.2013234  97.7534687  27.7618551
  11.7247636  97.9996984  28.5244860  10.9825568  98.5854722  27.3421688
  19.4494216 112.4821823  21.2249534  20.3740764 112.2764685  21.0873985
  19.2809519 112.2338225  22.1338876  12.4065779  98.6948383  25.4468222
  12.0662600  97.8956196  25.8488902  11.7004786  98.9950093  24.8745055
  13.0582251  95.7797695  23.8995545  13.8808320  95.3058173  23.7774435
  13.3020315  96.5588179  24.3994231  12.4417213  99.4619364  21.7568413
  12.4278782  98.5660457  21.4200711  13.1589641  99.4690027  22.3906699
  14.2943344  99.8956704  23.8021540  14.0361121 100.8173774  23.8005871
  13.7628384  99.4987138  24.4922004  14.7145299  96.0288654  20.1622703
  14.7366996  96.0927987  19.2074682  15.1313358  95.1893163  20.3563209
  25.0928923 105.7643914  18.2001925  25.5360069 105.0151239  17.8021049
  24.2155434 105.7554050  17.8175657  13.7876177 113.6808034  27.3385731
  14.0963303 113.4357181  28.2108431  14.5851659 113.8854673  26.8504602
  11.3295188  99.8565741  31.2345916  11.3783344 100.7327864  30.8523685
  11.8717702  99.3143134  30.6617559  21.8150034 110.4006864  30.5147053
  21.0245578 110.3831003  29.9751552  21.5783389 110.9395158  31.2696089
  21.9347909 107.2499331  27.8279781  21.9845914 107.0849338  28.7695304
  21.8261832 106.3826590  27.4377662  19.2251671 103.2330259  29.1439088
  20.1261534 103.0936724  28.8523086  19.2999646 103.3984714  30.0837265
  13.5594477 100.6097114  27.9892274  12.6897786 100.9030680  27.7174863
  13.7953957 101.1937559  28.7099538  23.4366106 109.6696272  28.0721803
  23.1450914 110.0326253  28.9085264  22.8238237 108.9563281  27.8935135
  24.6361788 107.2349152  20.5924373  25.4708680 107.6738956  20.7561933
  24.7720917 106.7587805  19.7732619  21.6853294 104.7928887  26.5401861
  22.1607416 104.9856533  25.7320712  20.7618859 104.8488073  26.2945244
  16.2633511  96.8276731  25.5057695  16.7815454  97.5637757  25.1804183
  15.9088643  97.1340724  26.3404454  16.5146105  93.2477013  21.0258591
  16.7947858  92.5800202  21.6519018  17.2996712  93.4406109  20.5133255
  20.3854963 101.6694647  24.7730166  21.3372386 101.7692745  24.7942390
  20.2158413 100.8772916  25.2828251  18.4069343  98.7550230  24.9589567
  17.8119275  99.0355243  24.2636056  18.1219039  99.2444131  25.7306308
  22.8643041 104.8900767  23.8872466  22.8319361 103.9516767  24.0732150
  23.4743665 104.9684803  23.1538291  23.0137529 101.6811810  23.9330749
  22.4976578 100.8970267  23.7460678  23.8977478 101.3530527  24.0977269
  20.6748256  95.4252826  19.8926562  20.4773077  95.1167914  20.7769894
  21.2847962  96.1514465  20.0224492  28.6819591 105.9516774  23.0278503
  29.4122979 105.6902062  23.5886206  28.0726536 105.2145496  23.0680571
  26.7634888 104.0924636  23.6252954  26.0368051 103.9580601  23.0169446
  26.3482175 104.4001465  24.4309672  14.5865064 107.8114566  31.3900327
  15.5068074 107.9893165  31.5840374  14.5514647 106.8670611  31.2380026
  14.5031355  96.2283686  16.0198797  13.6932083  95.8830771  16.3954043
  15.1915772  95.9191230  16.6086408  16.4321903  95.3061733  17.6423093
  16.9852941  95.7257186  18.3013116  16.6691989  94.3797481  17.6846049
  12.4555002 101.2948806  33.4225857  12.3551729 102.2443163  33.3537948
  12.2376544 100.9667045  32.5501927  19.8100710  97.4162258  17.1501757
  19.2299379  98.0747062  16.7679810  19.5436643  96.5939602  16.7389175
  18.2604276  96.8167316  19.3523078  18.7604055  96.9283850  18.5437397
  18.9039884  96.5128368  19.9923886  12.3186272 104.7245945  32.2390919
  11.8353354 105.5246305  32.4454808  12.4047211 104.7353890  31.2858363
   8.8358992 107.1851596  26.8430150   9.6551881 107.6795675  26.8664987
   9.1095799 106.2683564  26.8147718  18.5925588  99.5762348  16.2058106
  17.7051443  99.8611999  15.9878300  19.0079577  99.4156112  15.3585383
  21.9440124  99.6008869  19.9212445  22.7200514 100.0905322  20.1937062
  21.2188258 100.0266923  20.3784314  24.3812683 100.3136488  20.9786386
  24.9757174 100.0732224  20.2679694  24.4539266  99.5943619  21.6059922
  22.3771418 100.8806616  17.2458515  22.1208352 100.4803252  18.0766723
  21.7524286 101.5950410  17.1208655  26.6883756 103.6202689  19.7529807
  26.1283313 103.6895879  20.5261369  26.0827259 103.4443674  19.0329303
   4.0893906 101.5189730  27.5422347   4.7352770 101.0088684  28.0309572
   3.8811057 102.2558411  28.1165773  16.6147298 108.5870577  33.0414488
  17.4838458 108.7611230  32.6801123  16.1354050 109.4064994  32.9190217
  16.4249636  92.3772551  17.5492180  15.6582032  91.8231038  17.6948863
  16.8360341  92.4494420  18.4106332   8.4291397  98.6657347  31.6397361
   9.2922859  98.3094152  31.8500686   7.8556808  98.3271242  32.3272766
  28.2739774 120.2959203  22.4459762  28.9118184 120.1765951  21.7423103
  28.1560617 121.2440047  22.5047715  25.0829480 120.2486631  22.3821287
  24.7447992 120.1327696  21.4941822  25.9519248 119.8477796  22.3622293
  25.5649263 121.4021483  28.3407493  25.5537904 121.0074281  27.4687996
  25.7269903 120.6687556  28.9341264  22.2856524 124.1858595  27.2886677
  21.9946390 125.0904226  27.1733343  22.9213509 124.2275122  28.0030746
  23.2112731 121.5635443  23.8788036  23.8076303 121.3391466  23.1644999
  23.2687703 120.8220189  24.4813484  27.8281042 118.0210657  19.5212971
  28.6144132 117.6030080  19.1703388  28.0919747 118.9256749  19.6894619
  33.2289470 117.9585890  20.4245949  33.9614642 117.3885107  20.6583779
  32.4728825 117.5707491  20.8652455  30.7514890 111.6707464  24.8840558
  30.4198215 112.5402875  24.6601773  30.1560503 111.3543748  25.5634588
  27.2446409 123.8720010  24.2836470  26.9447133 124.7745049  24.1752278
  26.8997469 123.6052194  25.1357623  30.6443553 116.3902550  21.9633908
  29.7360431 116.3217959  21.6692669  30.5931149 116.8674495  22.7915733
  24.7184419 117.8092196  29.9068805  23.9417753 118.3686116  29.8971670
  25.3574982 118.2948979  30.4283675  32.5105200 114.5918989  23.7411782
  31.8679580 114.8851522  23.0951576  32.0060128 114.4771909  24.5464978
  22.9730791 120.6177649  29.4686772  23.7145476 121.1562693  29.1921596
  22.2667777 121.2443938  29.6258324  28.4486131 122.7606790  28.0658933
  28.8569487 122.3189200  27.3213566  27.7263392 122.1859417  28.3193126
  24.8017201 117.6979397  25.4392490  25.6478396 118.1218810  25.5827139
  24.7415839 117.0413021  26.1331054  28.7714946 123.3207981  21.8211222
  28.1423808 123.4853695  21.1187290  28.3840608 123.7349590  22.5922186
  32.6504178 124.2562418  19.1755586  31.9655216 124.6361320  18.6252619
  32.7348027 124.8657745  19.9087534  27.9516646 115.3583765  27.0973664
  27.7077578 116.1125826  26.5607940  28.2276577 115.7369113  27.9320911
  29.9055109 121.9022377  25.7750930  30.1172004 122.5454137  25.0985311
  29.8584857 121.0684694  25.3072860  27.5081338 114.5140198  22.6787502
  26.6465817 114.8121452  22.9704239  27.5343773 114.7310597  21.7468534
  21.7092155 117.7717298  30.2702082  21.0790816 118.4533578  30.5037479
  21.6028243 117.6600379  29.3255220  31.0200937 124.7794333  23.9473287
  31.8418381 124.3774520  23.6655969  31.0163340 124.6762567  24.8989403
  24.7857541 124.3278376  26.1033997  24.8501973 124.7898783  26.9392169
  24.0768464 123.6975741  26.2316307  39.1106930 121.1233081  20.2958258
  38.3570639 120.5540479  20.1402263  39.2454471 121.0895746  21.2428893
  20.9872898 112.0738063  32.6327333  20.5939843 111.5204262  33.3074977
  21.8039038 112.3848642  33.0233851  23.9040859 113.4895943  30.2247590
  24.6450572 114.0903096  30.1452052  24.1358782 112.7473580  29.6665632
  19.0482197 118.6752310  28.5025819  18.9335712 117.7737567  28.8032918
  18.1926715 118.9216007  28.1510636  26.1274035 126.6170050  30.1013320
  25.6837889 125.8306429  29.7834224  26.7891248 126.8049201  29.4357211
  28.2255273 126.8972850  28.1294721  28.2073748 127.7181731  27.6374990
  29.1475193 126.7726925  28.3544862  24.6828327 124.4116980  28.9718230
  25.2156664 123.6505268  28.7417538  24.1542408 124.1190631  29.7142384
  27.8498022 109.5177045  24.5011871  27.5062291 110.4078687  24.4250982
  28.2176984 109.3278703  23.6381456  25.3995415 114.3535357  18.0669545
  24.5437012 113.9642208  17.8875183  25.8122367 114.4327318  17.2069330
  26.9294562 111.8881701  22.4661105  26.4259358 111.8511836  21.6528910
  27.2225169 112.7974443  22.5257761  23.1737448 111.9720430  21.4727286
  24.0390445 111.7763239  21.1133176  23.2414957 111.7430782  22.3996643
  31.0273885 121.7351993  21.6004088  30.3697560 122.4251254  21.6884216
  31.8314285 122.1248424  21.9438074  29.8379344 120.0896365  19.6508030
  30.3511226 120.7226357  20.1529739  30.4880568 119.4897561  19.2851390
  23.0822435 111.0763887  17.5718722  22.4286847 110.7612904  16.9475337
  23.0402909 110.4539628  18.2978545  26.3160175 117.5645821  21.8966370
  25.3982737 117.7860768  21.7388058  26.7320319 117.6392131  21.0378077
  29.5474060 115.9994353  19.0087840  28.8096817 115.4871739  19.3398082
  29.8000834 115.5594734  18.1971117  29.6485687 108.7770605  19.6029609
  29.9544564 107.9167968  19.3155524  30.3738292 109.3688225  19.4028603
  27.4573339 118.1543282  26.7011073  27.8122726 118.3814755  27.5605539
  28.1045470 118.4861659  26.0788328  33.1871076 121.2761718  17.4060402
  33.0488974 121.4663314  16.4781591  32.8307294 122.0381101  17.8628453
  21.3513202 115.2619813  23.4857414  21.9912581 115.1208572  22.7880377
  20.5190732 114.9754326  23.1096016  33.2140455 123.3438245  22.4171673
  33.6476962 123.2513534  23.2654727  33.9272036 123.3195745  21.7791689
  26.9468350 126.9440339  23.9504774  27.0005372 127.5131275  24.7182490
  26.0783132 127.1142224  23.5858811  19.8266744 116.6457895  25.4329225
  20.4989797 116.4375257  24.7841874  18.9996530 116.4479981  24.9934457
  34.0756005 123.3861946  24.9504559  34.2691895 124.2907756  25.1963834
  33.9756623 122.9269365  25.7843144  25.7292316 113.2719836  27.4494886
  25.0820231 113.9709786  27.3559362  26.4993331 113.7055980  27.8171134
  29.1371114 123.5368688  30.5245439  28.9856620 123.3079240  29.6075523
  29.1275793 124.4939290  30.5376784  25.9056450 121.1100601  25.5091706
  26.8348510 121.2611761  25.3360673  25.4847480 121.1984622  24.6540352
  20.2294241 119.9200498  26.1931662  20.0914039 119.1880737  26.7943201
  21.1399164 119.8309398  25.9115850  22.8576541 119.6320457  25.6815342
  23.5676160 118.9913650  25.6401960  22.8145850 119.8833352  26.6041523
  30.8463320 126.5687811  28.6021921  30.7875866 125.8847031  27.9352504
  31.2482839 127.3106801  28.1502547  21.5705475 116.6185675  27.5010981
  21.0342832 116.1676414  28.1532578  20.9822184 116.7531584  26.7581446
  30.8480727 124.5327395  26.8335901  29.9607506 124.1953317  26.9562300
  31.4179278 123.8010426  27.0704666  27.4768311 114.2395247  19.9534171
  27.9737010 113.4865209  19.6335241  26.7055292 114.2759563  19.3877380
  35.3298068 119.9435612  21.5952463  35.3187944 120.8260328  21.2246396
  34.4615447 119.5907163  21.4007000  26.8380564 129.0915681  25.9555303
  27.5508537 129.7263146  25.8831204  26.3470593 129.1879547  25.1395305
  24.0603279 116.3812630  19.6805856  23.6901067 115.8283670  20.3686761
  24.5562372 115.7770763  19.1280856  31.9470643 118.8384253  18.0622629
  32.4131095 119.6712245  17.9882931  32.3978143 118.3729235  18.7667887
  29.9187305 111.2064840  22.1013530  29.0050385 111.4369067  22.2695737
  30.3480407 111.2903284  22.9527562  29.6893764 119.3954732  24.6013424
  29.0365214 119.6430639  23.9465877  30.0674144 118.5818870  24.2675901
  25.7381337 120.1374543  31.0879461  25.0621974 120.0368672  31.7581836
  26.5608971 119.9813757  31.5515458  19.4568613 113.7916620  25.9258962
  19.5209939 114.6531451  25.5136359  19.3935733 113.1790622  25.1931320
  18.9320886 115.8639753  29.5731996  19.5592924 115.4816830  30.1869520
  18.0748804 115.6453955  29.9387688  29.3314994 126.2702728  31.1785731
  29.8754898 126.8832686  30.6840686  28.7501839 126.8282306  31.6952744
  29.6807415 127.1932466  23.9380309  28.7337751 127.0737817  23.8658636
  30.0290189 126.3054964  24.0206571  22.0406989 113.0826605  27.7618551
  22.5641391 113.3288902  28.5244860  21.8219322 113.9146640  27.3421688
  30.2887971 127.8113741  21.2249534  31.2134518 127.6056602  21.0873985
  30.1203274 127.5630142  22.1338876  23.2459534 114.0240300  25.4468222
  22.9056354 113.2248113  25.8488902  22.5398540 114.3242011  24.8745055
  23.8976006 111.1089613  23.8995545  24.7202075 110.6350091  23.7774435
  24.1414069 111.8880096  24.3994231  23.2810967 114.7911281  21.7568413
  23.2672536 113.8952375  21.4200711  23.9983395 114.7981945  22.3906699
  25.1337098 115.2248621  23.8021540  24.8754876 116.1465692  23.8005871
  24.6022138 114.8279056  24.4922004  25.5539054 111.3580572  20.1622703
  25.5760750 111.4219905  19.2074682  25.9707113 110.5185081  20.3563209
  35.9322678 121.0935832  18.2001925  36.3753824 120.3443157  17.8021049
  35.0549188 121.0845968  17.8175657  24.6269931 129.0099952  27.3385731
  24.9357058 128.7649099  28.2108431  25.4245413 129.2146591  26.8504602
  22.1688943 115.1857659  31.2345916  22.2177098 116.0619782  30.8523685
  22.7111457 114.6435052  30.6617559  32.6543788 125.7298782  30.5147053
  31.8639332 125.7122921  29.9751552  32.4177143 126.2687076  31.2696089
  32.7741663 122.5791249  27.8279781  32.8239668 122.4141256  28.7695304
  32.6655587 121.7118508  27.4377662  30.0645426 118.5622177  29.1439088
  30.9655289 118.4228641  28.8523086  30.1393400 118.7276631  30.0837265
  24.3988231 115.9389031  27.9892274  23.5291541 116.2322597  27.7174863
  24.6347712 116.5229476  28.7099538  34.2759860 124.9988190  28.0721803
  33.9844669 125.3618171  28.9085264  33.6631992 124.2855198  27.8935135
  35.4755543 122.5641070  20.5924373  36.3102434 123.0030874  20.7561933
  35.6114671 122.0879723  19.7732619  32.5247049 120.1220805  26.5401861
  33.0001170 120.3148451  25.7320712  31.6012614 120.1779990  26.2945244
  27.1027265 112.1568648  25.5057695  27.6209209 112.8929675  25.1804183
  26.7482398 112.4632642  26.3404454  27.3539859 108.5768931  21.0258591
  27.6341613 107.9092120  21.6519018  28.1390466 108.7698026  20.5133255
  31.2248718 116.9986565  24.7730166  32.1766140 117.0984662  24.7942390
  31.0552168 116.2064833  25.2828251  29.2463097 114.0842148  24.9589567
  28.6513029 114.3647161  24.2636056  28.9612794 114.5736049  25.7306308
  33.7036795 120.2192684  23.8872466  33.6713115 119.2808685  24.0732150
  34.3137419 120.2976721  23.1538291  33.8531284 117.0103728  23.9330749
  33.3370332 116.2262184  23.7460678  34.7371232 116.6822444  24.0977269
  31.5142011 110.7544743  19.8926562  31.3166832 110.4459832  20.7769894
  32.1241716 111.4806382  20.0224492  39.5213345 121.2808691  23.0278503
  40.2516734 121.0193979  23.5886206  38.9120291 120.5437413  23.0680571
  37.6028642 119.4216554  23.6252954  36.8761806 119.2872519  23.0169446
  37.1875929 119.7293382  24.4309672  25.4258819 123.1406484  31.3900327
  26.3461828 123.3185083  31.5840374  25.3908402 122.1962529  31.2380026
  25.3425109 111.5575603  16.0198797  24.5325837 111.2122688  16.3954043
  26.0309526 111.2483147  16.6086408  27.2715657 110.6353650  17.6423093
  27.8246696 111.0549104  18.3013116  27.5085744 109.7089398  17.6846049
  23.2948757 116.6240724  33.4225857  23.1945484 117.5735081  33.3537948
  23.0770299 116.2958963  32.5501927  30.6494464 112.7454175  17.1501757
  30.0693134 113.4038979  16.7679810  30.3830397 111.9231520  16.7389175
  29.0998031 112.1459233  19.3523078  29.5997809 112.2575768  18.5437397
  29.7433639 111.8420286  19.9923886  23.1580027 120.0537863  32.2390919
  22.6747108 120.8538223  32.4454808  23.2440966 120.0645808  31.2858363
  19.6752746 122.5143514  26.8430150  20.4945635 123.0087592  26.8664987
  19.9489554 121.5975482  26.8147718  29.4319342 114.9054266  16.2058106
  28.5445198 115.1903916  15.9878300  29.8473332 114.7448029  15.3585383
  32.7833879 114.9300787  19.9212445  33.5594269 115.4197239  20.1937062
  32.0582013 115.3558841  20.3784314  35.2206437 115.6428406  20.9786386
  35.8150928 115.4024142  20.2679694  35.2933021 114.9235537  21.6059922
  33.2165172 116.2098534  17.2458515  32.9602106 115.8095169  18.0766723
  32.5918040 116.9242328  17.1208655  37.5277510 118.9494607  19.7529807
  36.9677068 119.0187796  20.5261369  36.9221013 118.7735592  19.0329303
  14.9287661 116.8481647  27.5422347  15.5746524 116.3380601  28.0309572
  14.7204812 117.5850329  28.1165773  27.4541053 123.9162495  33.0414488
  28.3232212 124.0903147  32.6801123  26.9747804 124.7356912  32.9190217
  27.2643390 107.7064469  17.5492180  26.4975786 107.1522955  17.6948863
  27.6754095 107.7786337  18.4106332  19.2685152 113.9949264  31.6397361
  20.1316613 113.6386069  31.8500686  18.6950562 113.6563159  32.3272766
  39.1133528 135.6251121  22.4459762  39.7511938 135.5057868  21.7423103
  38.9954371 136.5731965  22.5047715  35.9223235 135.5778549  22.3821287
  35.5841746 135.4619614  21.4941822  36.7913003 135.1769714  22.3622293
  36.4043018 136.7313401  28.3407493  36.3931658 136.3366199  27.4687996
  36.5663657 135.9979473  28.9341264  34.0506486 136.8927361  23.8788036
  34.6470058 136.6683383  23.1644999  34.1081457 136.1512106  24.4813484
  38.6674797 133.3502575  19.5212971  39.4537886 132.9321998  19.1703388
  38.9313501 134.2548667  19.6894619  44.0683224 133.2877808  20.4245949
  44.8008396 132.7177025  20.6583779  43.3122580 132.8999408  20.8652455
  41.5908644 126.9999382  24.8840558  41.2591969 127.8694793  24.6601773
  40.9954258 126.6835666  25.5634588  41.4837308 131.7194468  21.9633908
  40.5754185 131.6509877  21.6692669  41.4324904 132.1966413  22.7915733
  35.5578174 133.1384114  29.9068805  34.7811508 133.6978034  29.8971670
  36.1968737 133.6240897  30.4283675  43.3498954 129.9210907  23.7411782
  42.7073334 130.2143440  23.0951576  42.8453883 129.8063827  24.5464978
  33.8124546 135.9469567  29.4686772  34.5539230 136.4854611  29.1921596
  33.1061531 136.5735856  29.6258324  39.2879885 138.0898708  28.0658933
  39.6963241 137.6481118  27.3213566  38.5657147 137.5151335  28.3193126
  35.6410956 133.0271314  25.4392490  36.4872151 133.4510728  25.5827139
  35.5809593 132.3704939  26.1331054  39.6108700 138.6499898  21.8211222
  38.9817563 138.8145612  21.1187290  39.2234362 139.0641508  22.5922186
  43.4897932 139.5854336  19.1755586  42.8048970 139.9653237  18.6252619
  43.5741781 140.1949663  19.9087534  38.7910401 130.6875683  27.0973664
  38.5471333 131.4417743  26.5607940  39.0670331 131.0661030  27.9320911
  40.7448864 137.2314295  25.7750930  40.9565759 137.8746055  25.0985311
  40.6978612 136.3976612  25.3072860  38.3475093 129.8432116  22.6787502
  37.4859572 130.1413369  22.9704239  38.3737527 130.0602515  21.7468534
  32.5485910 133.1009215  30.2702082  31.9184570 133.7825496  30.5037479
  32.4421997 132.9892297  29.3255220  41.8594692 140.1086251  23.9473287
  42.6812135 139.7066438  23.6655969  41.8557094 140.0054485  24.8989403
  49.9500685 136.4524999  20.2958258  49.1964393 135.8832397  20.1402263
  50.0848226 136.4187663  21.2428893  31.8266652 127.4029981  32.6327333
  31.4333598 126.8496180  33.3074977  32.6432793 127.7140560  33.0233851
  34.7434613 128.8187860  30.2247590  35.4844327 129.4195013  30.1452052
  34.9752536 128.0765498  29.6665632  29.8875951 134.0044227  28.5025819
  29.7729466 133.1029485  28.8032918  29.0320469 134.2507924  28.1510636
  38.6891776 124.8468963  24.5011871  38.3456046 125.7370605  24.4250982
  39.0570739 124.6570621  23.6381456  36.2389170 129.6827275  18.0669545
  35.3830766 129.2934125  17.8875183  36.6516122 129.7619236  17.2069330
  37.7688317 127.2173618  22.4661105  37.2653112 127.1803753  21.6528910
  38.0618923 128.1266361  22.5257761  34.0131202 127.3012348  21.4727286
  34.8784199 127.1055157  21.1133176  34.0808711 127.0722700  22.3996643
  41.8667640 137.0643910  21.6004088  41.2091314 137.7543172  21.6884216
  42.6708039 137.4540342  21.9438074  40.6773099 135.4188283  19.6508030
  41.1904981 136.0518275  20.1529739  41.3274323 134.8189478  19.2851390
  33.9216189 126.4055805  17.5718722  33.2680602 126.0904822  16.9475337
  33.8796663 125.7831545  18.2978545  37.1553930 132.8937738  21.8966370
  36.2376491 133.1152685  21.7388058  37.5714073 132.9684049  21.0378077
  40.3867815 131.3286270  19.0087840  39.6490571 130.8163657  19.3398082
  40.6394588 130.8886652  18.1971117  40.4879442 124.1062522  19.6029609
  40.7938319 123.2459886  19.3155524  41.2132047 124.6980143  19.4028603
  38.2967093 133.4835200  26.7011073  38.6516481 133.7106673  27.5605539
  38.9439224 133.8153576  26.0788328  44.0264830 136.6053636  17.4060402
  43.8882729 136.7955232  16.4781591  43.6701049 137.3673018  17.8628453
  32.1906956 130.5911731  23.4857414  32.8306336 130.4500490  22.7880377
  31.3584487 130.3046244  23.1096016  44.0534210 138.6730163  22.4171673
  44.4870716 138.5805452  23.2654727  44.7665790 138.6487663  21.7791689
  30.6660498 131.9749813  25.4329225  31.3383551 131.7667175  24.7841874
  29.8390285 131.7771899  24.9934457  44.9149759 138.7153863  24.9504559
  45.1085649 139.6199674  25.1963834  44.8150377 138.2561282  25.7843144
  36.5686070 128.6011754  27.4494886  35.9213985 129.3001703  27.3559362
  37.3387085 129.0347898  27.8171134  39.9764868 138.8660606  30.5245439
  39.8250374 138.6371158  29.6075523  39.9669547 139.8231207  30.5376784
  36.7450204 136.4392519  25.5091706  37.6742264 136.5903678  25.3360673
  36.3241234 136.5276539  24.6540352  31.0687995 135.2492416  26.1931662
  30.9307793 134.5172655  26.7943201  31.9792919 135.1601316  25.9115850
  33.6970296 134.9612375  25.6815342  34.4069915 134.3205567  25.6401960
  33.6539604 135.2125270  26.6041523  32.4099230 131.9477593  27.5010981
  31.8736587 131.4968331  28.1532578  31.8215938 132.0823502  26.7581446
  41.6874482 139.8619312  26.8335901  40.8001261 139.5245234  26.9562300
  42.2573033 139.1302344  27.0704666  38.3162065 129.5687164  19.9534171
  38.8130765 128.8157127  19.6335241  37.5449047 129.6051481  19.3877380
  46.1691822 135.2727530  21.5952463  46.1581699 136.1552245  21.2246396
  45.3009202 134.9199081  21.4007000  34.8997034 131.7104547  19.6805856
  34.5294821 131.1575588  20.3686761  35.3956126 131.1062681  19.1280856
  42.7864397 134.1676171  18.0622629  43.2524849 135.0004162  17.9882931
  43.2371898 133.7021152  18.7667887  40.7581060 126.5356758  22.1013530
  39.8444140 126.7660985  22.2695737  41.1874161 126.6195202  22.9527562
  40.5287518 134.7246650  24.6013424  39.8758969 134.9722557  23.9465877
  40.9067898 133.9110788  24.2675901  36.5775091 135.4666461  31.0879461
  35.9015728 135.3660590  31.7581836  37.4002725 135.3105675  31.5515458
  30.2962367 129.1208538  25.9258962  30.3603694 129.9823369  25.5136359
  30.2329488 128.5082540  25.1931320  29.7714640 131.1931671  29.5731996
  30.3986679 130.8108748  30.1869520  28.9142559 130.9745873  29.9387688
  32.8800743 128.4118523  27.7618551  33.4035145 128.6580819  28.5244860
  32.6613077 129.2438558  27.3421688  34.0853288 129.3532218  25.4468222
  33.7450109 128.5540031  25.8488902  33.3792295 129.6533929  24.8745055
  34.7369760 126.4381530  23.8995545  35.5595829 125.9642008  23.7774435
  34.9807824 127.2172014  24.3994231  34.1204722 130.1203199  21.7568413
  34.1066291 129.2244292  21.4200711  34.8377150 130.1273863  22.3906699
  35.9730852 130.5540539  23.8021540  35.7148630 131.4757610  23.8005871
  35.4415893 130.1570974  24.4922004  36.3932808 126.6872490  20.1622703
  36.4154505 126.7511823  19.2074682  36.8100867 125.8476998  20.3563209
  46.7716432 136.4227749  18.2001925  47.2147578 135.6735074  17.8021049
  45.8942943 136.4137886  17.8175657  33.0082697 130.5149577  31.2345916
  33.0570853 131.3911699  30.8523685  33.5505211 129.9726970  30.6617559
  43.4937543 141.0590700  30.5147053  42.7033087 141.0414839  29.9751552
  43.2570898 141.5978993  31.2696089  43.6135418 137.9083166  27.8279781
  43.6633423 137.7433174  28.7695304  43.5049341 137.0410425  27.4377662
  40.9039180 133.8914094  29.1439088  41.8049043 133.7520559  28.8523086
  40.9787155 134.0568549  30.0837265  35.2381986 131.2680949  27.9892274
  34.3685295 131.5614515  27.7174863  35.4741466 131.8521394  28.7099538
  45.1153615 140.3280108  28.0721803  44.8238423 140.6910088  28.9085264
  44.5025746 139.6147116  27.8935135  46.3149297 137.8932987  20.5924373
  47.1496189 138.3322792  20.7561933  46.4508426 137.4171641  19.7732619
  43.3640803 135.4512722  26.5401861  43.8394925 135.6440369  25.7320712
  42.4406368 135.5071908  26.2945244  37.9421020 127.4860566  25.5057695
  38.4602963 128.2221593  25.1804183  37.5876152 127.7924559  26.3404454
  38.1933614 123.9060848  21.0258591  38.4735367 123.2384037  21.6519018
  38.9784221 124.0989944  20.5133255  42.0642472 132.3278482  24.7730166
  43.0159895 132.4276580  24.7942390  41.8945922 131.5356751  25.2828251
  40.0856852 129.4134066  24.9589567  39.4906784 129.6939078  24.2636056
  39.8006548 129.9027967  25.7306308  44.5430550 135.5484602  23.8872466
  44.5106870 134.6100603  24.0732150  45.1531173 135.6268639  23.1538291
  44.6925038 132.3395646  23.9330749  44.1764087 131.5554102  23.7460678
  45.5764987 132.0114362  24.0977269  42.3535765 126.0836661  19.8926562
  42.1560586 125.7751749  20.7769894  42.9635471 126.8098300  20.0224492
  50.3607100 136.6100609  23.0278503  51.0910488 136.3485897  23.5886206
  49.7514045 135.8729331  23.0680571  48.4422397 134.7508472  23.6252954
  47.7155560 134.6164436  23.0169446  48.0269684 135.0585300  24.4309672
  36.2652573 138.4698401  31.3900327  37.1855583 138.6477000  31.5840374
  36.2302156 137.5254447  31.2380026  36.1818864 126.8867521  16.0198797
  35.3719592 126.5414606  16.3954043  36.8703281 126.5775065  16.6086408
  38.1109412 125.9645568  17.6423093  38.6640450 126.3841021  18.3013116
  38.3479498 125.0381316  17.6846049  34.1342511 131.9532642  33.4225857
  34.0339238 132.9026999  33.3537948  33.9164053 131.6250881  32.5501927
  41.4888219 128.0746093  17.1501757  40.9086888 128.7330897  16.7679810
  41.2224152 127.2523438  16.7389175  39.9391785 127.4751151  19.3523078
  40.4391564 127.5867685  18.5437397  40.5827393 127.1712204  19.9923886
  33.9973781 135.3829780  32.2390919  33.5140863 136.1830141  32.4454808
  34.0834720 135.3937725  31.2858363  40.2713097 130.2346184  16.2058106
  39.3838952 130.5195834  15.9878300  40.6867086 130.0739947  15.3585383
  43.6227633 130.2592705  19.9212445  44.3988023 130.7489157  20.1937062
  42.8975767 130.6850759  20.3784314  46.0600192 130.9720324  20.9786386
  46.6544683 130.7316060  20.2679694  46.1326775 130.2527454  21.6059922
  44.0558927 131.5390451  17.2458515  43.7995861 131.1387087  18.0766723
  43.4311795 132.2534245  17.1208655  48.3671264 134.2786525  19.7529807
  47.8070822 134.3479714  20.5261369  47.7614768 134.1027509  19.0329303
  25.7681415 132.1773565  27.5422347  26.4140279 131.6672519  28.0309572
  25.5598566 132.9142247  28.1165773  38.1037145 123.0356386  17.5492180
  37.3369541 122.4814873  17.6948863  38.5147850 123.1078255  18.4106332
  30.1078906 129.3241182  31.6397361  30.9710368 128.9677987  31.8500686
  29.5344317 128.9855077  32.3272766  52.4302399 142.3291300  24.8840558
  52.0985724 143.1986711  24.6601773  51.8348012 142.0127584  25.5634588
  49.5285531 140.1760881  24.5011871  49.1849800 141.0662523  24.4250982
  49.8964493 139.9862538  23.6381456  48.6082071 142.5465536  22.4661105
  48.1046867 142.5095671  21.6528910  48.9012678 143.4558279  22.5257761
  44.7609944 141.7347723  17.5718722  44.1074356 141.4196740  16.9475337
  44.7190418 141.1123463  18.2978545  51.3273196 139.4354440  19.6029609
  51.6332073 138.5751803  19.3155524  52.0525801 140.0272060  19.4028603
  51.5974814 141.8648675  22.1013530  50.6837894 142.0952902  22.2695737
  52.0267916 141.9487119  22.9527562  45.5763515 141.7673448  23.8995545
  46.3989584 141.2933926  23.7774435  45.8201578 142.5463932  24.3994231
  47.2326563 142.0164407  20.1622703  47.2548259 142.0803740  19.2074682
  47.6494622 141.1768916  20.3563209  48.7814774 142.8152484  25.5057695
  49.2996718 143.5513510  25.1804183  48.4269907 143.1216477  26.3404454
  49.0327368 139.2352766  21.0258591  49.3129122 138.5675955  21.6519018
  49.8177975 139.4281862  20.5133255  53.1929520 141.4128579  19.8926562
  52.9954341 141.1043667  20.7769894  53.8029225 142.1390218  20.0224492
  47.0212618 142.2159439  16.0198797  46.2113346 141.8706524  16.3954043
  47.7097035 141.9066983  16.6086408  48.9503166 141.2937486  17.6423093
  49.5034205 141.7132939  18.3013116  49.1873253 140.3673234  17.6846049
  52.3281973 143.4038011  17.1501757  51.7480642 144.0622815  16.7679810
  52.0617906 142.5815355  16.7389175  50.7785540 142.8043069  19.3523078
  51.2785318 142.9159603  18.5437397  51.4221148 142.5004121  19.9923886
  56.8993946 146.3012241  20.9786386  57.4938437 146.0607977  20.2679694
  56.9720530 145.5819372  21.6059922  48.9430899 138.3648304  17.5492180
  48.1763295 137.8106791  17.6948863  49.3541604 138.4370173  18.4106332
   4.4486527  72.9648337  16.8258627   4.0050381  72.1784716  16.5079531
   5.1103740  73.1527488  16.1602517   6.5467765  73.2451137  14.8540028
   6.5286240  74.0660018  14.3620297   7.4687685  73.1205213  15.0790169
   3.0040819  70.7595267  15.6963536   3.5369156  69.9983555  15.4662844
   2.4754900  70.4668919  16.4387691   7.4583606  69.8846976  17.2490746
   7.3069112  69.6557527  16.3320830   7.4488285  70.8417577  17.2622091
   9.1675812  72.9166098  15.3267228   9.1088359  72.2325318  14.6597811
   9.5695331  73.6585088  14.8747854   9.1693220  70.8805682  13.5581207
   8.2819998  70.5431604  13.6807606   9.7391771  70.1488713  13.7949973
   5.1593057  75.4393968  12.6800609   5.8721029  76.0741433  12.6076511
   4.6683085  75.5357834  11.8640611   4.0593829  66.4852830  17.8124768
   3.3834466  66.3846960  18.4827143   4.8821463  66.3292044  18.2760765
   7.6527486  72.6181015  17.9031038   8.1967390  73.2310974  17.4085993
   7.0714331  73.1760594  18.4198051   2.9482423  75.3578239  14.0631038
   3.2569550  75.1127386  14.9353738   3.7457905  75.5624878  13.5749908
  10.9756281  72.0777069  17.2392359  10.1851824  72.0601208  16.6996859
  10.7389635  72.6165363  17.9941396  11.0954156  68.9269536  14.5525088
  11.1452161  68.7619543  15.4940611  10.9868079  68.0596795  14.1622969
  12.5972353  71.3466477  14.7967109  12.3057161  71.7096458  15.6330570
  11.9844484  70.6333486  14.6180441   3.7471311  69.4884771  18.1145634
   4.6674320  69.6663370  18.3085680   3.7120894  68.5440816  17.9625333
   5.7753545  70.2640782  19.7659794   6.6444705  70.4381434  19.4046429
   5.2960296  71.0835199  19.6435524  17.4346021  81.9729408   9.1705069
  18.0724431  81.8536155   8.4668409  17.3166864  82.9210252   9.2293021
  14.2435727  81.9256836   9.1066594  13.9054239  81.8097901   8.2187129
  15.1125495  81.5248001   9.0867600  14.7255510  83.0791688  15.0652799
  14.7144151  82.6844486  14.1933303  14.8876149  82.3457761  15.6586571
  11.4462771  85.8628800  14.0131983  11.1552637  86.7674431  13.8978650
  12.0819755  85.9045327  14.7276053  12.3718978  83.2405648  10.6033343
  12.9682550  83.0161671   9.8890306  12.4293950  82.4990394  11.2058791
  16.9887289  79.6980862   6.2458277  17.7750378  79.2800285   5.8948694
  17.2525994  80.6026954   6.4139926  22.3895716  79.6356095   7.1491256
  23.1220888  79.0655312   7.3829085  21.6335072  79.2477696   7.5897761
  19.9121137  73.3477669  11.6085864  19.5804461  74.2173080  11.3847079
  19.3166750  73.0313953  12.2879895  16.4052656  85.5490215  11.0081777
  16.1053379  86.4515254  10.8997584  16.0603716  85.2822398  11.8602930
  19.8049800  78.0672755   8.6879214  18.8966677  77.9988164   8.3937975
  19.7537396  78.5444700   9.5161040  13.8790666  79.4862401  16.6314112
  13.1024000  80.0456321  16.6216976  14.5181229  79.9719184  17.1528982
  21.6711446  76.2689194  10.4657088  21.0285827  76.5621727   9.8196883
  21.1666375  76.1542114  11.2710285  12.1337038  82.2947854  16.1932079
  12.8751722  82.8332898  15.9166902  11.4274024  82.9214143  16.3503630
  17.6092378  84.4376995  14.7904240  18.0175734  83.9959405  14.0458872
  16.8869639  83.8629622  15.0438433  13.9623448  79.3749602  12.1637797
  14.8084643  79.7989015  12.3072446  13.9022085  78.7183226  12.8576360
  17.9321192  84.9978185   8.5456529  17.3030055  85.1623900   7.8432597
  17.5446854  85.4119795   9.3167493  21.8110424  85.9332623   5.9000893
  21.1261462  86.3131525   5.3497926  21.8954274  86.5427950   6.6332841
  17.1122893  77.0353970  13.8218971  16.8683825  77.7896030  13.2853246
  17.3882824  77.4139318  14.6566218  19.0661356  83.5792582  12.4996236
  19.2778251  84.2224342  11.8230617  19.0191104  82.7454899  12.0318166
  16.6687585  76.1910403   9.4032808  15.8072064  76.4891657   9.6949546
  16.6950019  76.4080802   8.4713841  10.8698402  79.4487503  16.9947389
  10.2397062  80.1303783  17.2282785  10.7634490  79.3370584  16.0500527
  20.1807184  86.4564538  10.6718594  21.0024628  86.0544725  10.3901275
  20.1769587  86.3532772  11.6234709  13.9463787  86.0048581  12.8279304
  14.0108220  86.4668988  13.6637476  13.2374711  85.3745946  12.9561614
  28.2713177  82.8003286   7.0203565  27.5176885  82.2310684   6.8647570
  28.4060718  82.7665951   7.9674200  10.1479145  73.7508268  19.3572640
   9.7546090  73.1974467  20.0320284  10.9645285  74.0618847  19.7479157
  13.0647106  75.1666147  16.9492896  13.8056819  75.7673301  16.8697359
  13.2965028  74.4243785  16.3910939   8.2088444  80.3522515  15.2271126
   8.0941959  79.4507772  15.5278225   7.3532961  80.5986211  14.8755942
  15.2880281  88.2940255  16.8258627  14.8444136  87.5076634  16.5079531
  15.9497495  88.4819406  16.1602517  17.3861519  88.5743055  14.8540028
  17.3679995  89.3951936  14.3620297  18.3081439  88.4497130  15.0790169
  13.8434574  86.0887184  15.6963536  14.3762910  85.3275473  15.4662844
  13.3148655  85.7960836  16.4387691  17.0104269  71.1947250  11.2257178
  16.6668538  72.0848892  11.1496288  17.3783231  71.0048908  10.3626763
  16.0900809  73.5651906   9.1906411  15.5865604  73.5282041   8.3774216
  16.3831416  74.4744648   9.2503068  20.1880132  83.4122197   8.3249394
  19.5303807  84.1021459   8.4129523  20.9920531  83.8018629   8.6683381
  18.9985591  81.7666570   6.3753336  19.5117473  82.3996562   6.8775046
  19.6486815  81.1667766   6.0096696  15.4766422  79.2416026   8.6211677
  14.5588983  79.4630973   8.4633365  15.8926566  79.3162336   7.7623384
  18.7080307  77.6764558   5.7333146  17.9703064  77.1641944   6.0643389
  18.9607080  77.2364939   4.9216423  16.6179586  79.8313487  13.4256379
  16.9728973  80.0584960  14.2850845  17.2651717  80.1631864  12.8033635
  22.3477322  82.9531923   4.1305708  22.2095221  83.1433519   3.2026898
  21.9913541  83.7151306   4.5873760  10.5119449  76.9390018  10.2102720
  11.1518828  76.7978777   9.5125684   9.6796979  76.6524531   9.8341322
  22.3746702  85.0208450   9.1416980  22.8083209  84.9283739   9.9900034
  23.0878283  84.9965950   8.5036996  16.1074597  88.6210544  10.6750081
  16.1611619  89.1901480  11.4427796  15.2389378  88.7912429  10.3104118
   8.9872990  78.3228100  12.1574532   9.6596044  78.1145462  11.5087181
   8.1602777  78.1250186  11.7179764  23.2362252  85.0632150  11.6749865
  23.4298142  85.9677961  11.9209140  23.1362870  84.6039570  12.5088450
  14.8898562  74.9490041  14.1740193  14.2426477  75.6479991  14.0804669
  15.6599578  75.3826185  14.5416441  18.2977360  85.2138893  17.2490746
  18.1462867  84.9849445  16.3320830  18.2882040  86.1709495  17.2622091
  15.0662697  82.7870806  12.2337012  15.9954757  82.9381966  12.0605980
  14.6453727  82.8754827  11.3785659   9.3900488  81.5970703  12.9176969
   9.2520286  80.8650942  13.5188508  10.3005411  81.5079603  12.6361157
  12.0182788  81.3090662  12.4060649  12.7282407  80.6683855  12.3647267
  11.9752096  81.5603557  13.3286829  20.0069567  88.2458016  15.3267228
  19.9482113  87.5617236  14.6597811  20.4089085  88.9877006  14.8747854
  10.7311722  78.2955880  14.2256288  10.1949079  77.8446619  14.8777884
  10.1428431  78.4301789  13.4826752  20.0086974  86.2097600  13.5581207
  19.1213753  85.8723521  13.6807606  20.5785525  85.4780631  13.7949973
  24.4904315  81.6205817   8.3197769  24.4794191  82.5030532   7.9491702
  23.6221694  81.2677368   8.1252306  15.9986811  90.7685886  12.6800609
  16.7114783  91.4033351  12.6076511  15.5076840  90.8649752  11.8640611
  21.1076889  80.5154458   4.7867935  21.5737342  81.3482450   4.7128238
  21.5584390  80.0499440   5.4913194  19.0793552  72.8835045   8.8258837
  18.1656632  73.1139272   8.9941043  19.5086654  72.9673489   9.6772869
  18.8500011  81.0724937  11.3258731  18.1971461  81.3200844  10.6711183
  19.2280391  80.2589075  10.9921208  14.8987584  81.8144748  17.8124768
  14.2228221  81.7138877  18.4827143  15.7215218  81.6583962  18.2760765
   8.6174860  75.4686825  12.6504268   8.6816186  76.3301656  12.2381666
   8.5541980  74.8560827  11.9176627   8.0927132  77.5409958  16.2977303
   8.7199171  77.1587035  16.9114827   7.2355051  77.3224160  16.6632995
  18.4921241  87.9472933  17.9031038  19.0361145  88.5602891  17.4085993
  17.9108086  88.5052511  18.4198051  18.8413662  88.8702671  10.6625616
  17.8943998  88.7508022  10.5903943  19.1896435  87.9825169  10.7451877
  11.2013236  74.7596810  14.4863858  11.7247637  75.0059107  15.2490167
  10.9825569  75.5916845  14.0666995  19.4494217  89.4883946   7.9494841
  20.3740765  89.2826807   7.8119292  19.2809521  89.2400347   8.8584182
  12.4065781  75.7010505  12.1713528  12.0662601  74.9018318  12.5734208
  11.7004787  76.0012216  11.5990361  13.0582252  72.7859818  10.6240851
  13.8808322  72.3120296  10.5019742  13.3020316  73.5650301  11.1239538
  14.2943345  76.9018826  10.5266847  14.0361123  77.8235897  10.5251177
  13.7628385  76.5049261  11.2167311  25.0928925  82.7706036   4.9247232
  25.5360071  82.0213362   4.5266355  24.2155435  82.7616173   4.5420964
  13.7876178  90.6870157  14.0631038  14.0963304  90.4419304  14.9353738
  14.5851660  90.8916796  13.5749908  11.3295190  76.8627864  17.9591222
  11.3783345  77.7389987  17.5768992  11.8717704  76.3205257  17.3862865
  21.8150035  87.4068987  17.2392359  21.0245579  87.3893126  16.6996859
  21.5783390  87.9457281  17.9941396  21.9347910  84.2561453  14.5525088
  21.9845915  84.0911461  15.4940611  21.8261834  83.3888712  14.1622969
  19.2251673  80.2392381  15.8684395  20.1261535  80.0998846  15.5768392
  19.2999647  80.4046836  16.8082572  13.5594478  77.6159236  14.7137581
  12.6897787  77.9092802  14.4420169  13.7953958  78.1999681  15.4344844
  23.4366107  86.6758395  14.7967109  23.1450915  87.0388375  15.6330570
  22.8238238  85.9625403  14.6180441  24.6361789  84.2411275   7.3169680
  25.4708681  84.6801079   7.4807240  24.7720918  83.7649928   6.4977925
  21.6853295  81.7991010  13.2647167  22.1607417  81.9918656  12.4566019
  20.7618861  81.8550195  13.0190551  16.2633512  73.8338853  12.2303001
  16.7815456  74.5699880  11.9049490  15.9088645  74.1402846  13.0649760
  20.3854964  78.6756770  11.4975473  21.3372387  78.7754867  11.5187697
  20.2158415  77.8835038  12.0073557  18.4069344  75.7612353  11.6834874
  17.8119276  76.0417366  10.9881363  18.1219040  76.2506254  12.4551615
  22.8643042  81.8962889  10.6117773  22.8319362  80.9578890  10.7977456
  23.4743666  81.9746926   9.8783597  23.0137531  78.6873933  10.6576056
  22.4976579  77.9032389  10.4705985  23.8977479  78.3592649  10.8222575
  28.6819592  82.9578896   9.7523809  29.4122980  82.6964184  10.3131513
  28.0726537  82.2207618   9.7925877  26.7634889  81.0986759  10.3498261
  26.0368053  80.9642724   9.7414752  26.3482176  81.4063587  11.1554979
  14.5865066  84.8176688  18.1145634  15.5068075  84.9955287  18.3085680
  14.5514649  83.8732734  17.9625333  12.4555003  78.3010929  20.1471164
  12.3551730  79.2505286  20.0783255  12.2376545  77.9729168  19.2747234
  12.3186273  81.7308068  18.9636225  11.8353355  82.5308428  19.1700114
  12.4047212  81.7416013  18.0103669   8.8358993  84.1913718  13.5675457
   9.6551882  84.6857797  13.5910294   9.1095801  83.2745687  13.5393024
  21.9440125  76.6070992   6.6457752  22.7200515  77.0967444   6.9182368
  21.2188260  77.0329046   7.1029621  24.3812684  77.3198611   7.7031692
  24.9757175  77.0794347   6.9925000  24.4539268  76.6005742   8.3305228
  22.3771419  77.8868739   3.9703822  22.1208353  77.4865374   4.8012030
  21.7524287  78.6012533   3.8453961  26.6883757  80.6264812   6.4775113
  26.1283315  80.6958001   7.2506675  26.0827260  80.4505796   5.7574610
   4.0893907  78.5251852  14.2667654   4.7352771  78.0150806  14.7554879
   3.8811058  79.2620534  14.8411079  16.6147299  85.5932700  19.7659794
  17.4838459  85.7673352  19.4046429  16.1354051  86.4127117  19.6435524
   8.4291398  75.6719469  18.3642668   9.2922860  75.3156274  18.5745993
   7.8556809  75.3333364  19.0518072  28.2739775  97.3021326   9.1705069
  28.9118185  97.1828073   8.4668409  28.1560618  98.2502170   9.2293021
  25.0829481  97.2548754   9.1066594  24.7447993  97.1389819   8.2187129
  25.9519250  96.8539919   9.0867600  25.5649264  98.4083606  15.0652799
  25.5537905  98.0136404  14.1933303  25.7269904  97.6749678  15.6586571
  22.2856526 101.1920717  14.0131983  21.9946392 102.0966348  13.8978650
  22.9213510 101.2337245  14.7276053  23.2112732  98.5697566  10.6033343
  23.8076305  98.3453588   9.8890306  23.2687704  97.8282311  11.2058791
  27.8281044  95.0272780   6.2458277  28.6144133  94.6092203   5.8948694
  28.0919748  95.9318872   6.4139926  33.2289471  94.9648013   7.1491256
  33.9614643  94.3947230   7.3829085  32.4728827  94.5769613   7.5897761
  30.7514891  88.6769587  11.6085864  30.4198216  89.5464998  11.3847079
  30.1560505  88.3605871  12.2879895  27.2446411 100.8782133  11.0081777
  26.9447134 101.7807172  10.8997584  26.8997470 100.6114316  11.8602930
  30.6443555  93.3964673   8.6879214  29.7360432  93.3280082   8.3937975
  30.5931150  93.8736618   9.5161040  24.7184420  94.8154319  16.6314112
  23.9417754  95.3748239  16.6216976  25.3574983  95.3011102  17.1528982
  32.5105201  91.5981111  10.4657088  31.8679581  91.8913645   9.8196883
  32.0060129  91.4834032  11.2710285  22.9730793  97.6239772  16.1932079
  23.7145477  98.1624816  15.9166902  22.2667778  98.2506061  16.3503630
  28.4486132  99.7668913  14.7904240  28.8569488  99.3251323  14.0458872
  27.7263394  99.1921540  15.0438433  24.8017202  94.7041519  12.1637797
  25.6478397  95.1280933  12.3072446  24.7415840  94.0475144  12.8576360
  28.7714947 100.3270103   8.5456529  28.1423809 100.4915817   7.8432597
  28.3840609 100.7411713   9.3167493  32.6504179 101.2624541   5.9000893
  31.9655217 101.6423442   5.3497926  32.7348028 101.8719868   6.6332841
  27.9516648  92.3645888  13.8218971  27.7077579  93.1187948  13.2853246
  28.2276578  92.7431235  14.6566218  29.9055110  98.9084500  12.4996236
  30.1172006  99.5516260  11.8230617  29.8584859  98.0746817  12.0318166
  27.5081339  91.5202321   9.4032808  26.6465818  91.8183574   9.6949546
  27.5343774  91.7372720   8.4713841  21.7092156  94.7779420  16.9947389
  21.0790817  95.4595701  17.2282785  21.6028244  94.6662502  16.0500527
  31.0200938 101.7856455  10.6718594  31.8418382 101.3836643  10.3901275
  31.0163341 101.6824690  11.6234709  24.7857542 101.3340499  12.8279304
  24.8501974 101.7960906  13.6637476  24.0768466 100.7037864  12.9561614
  39.1106931  98.1295204   7.0203565  38.3570640  97.5602602   6.8647570
  39.2454473  98.0957868   7.9674200  20.9872899  89.0800186  19.3572640
  20.5939845  88.5266385  20.0320284  21.8039039  89.3910765  19.7479157
  23.9040860  90.4958065  16.9492896  24.6450573  91.0965218  16.8697359
  24.1358783  89.7535703  16.3910939  19.0482198  95.6814432  15.2271126
  18.9335713  94.7799690  15.5278225  18.1926716  95.9278129  14.8755942
  26.1274036 103.6232173  16.8258627  25.6837890 102.8368551  16.5079531
  26.7891249 103.8111323  16.1602517  28.2255274 103.9034973  14.8540028
  28.2073749 104.7243854  14.3620297  29.1475194 103.7789048  15.0790169
  24.6828328 101.4179102  15.6963536  25.2156665 100.6567390  15.4662844
  24.1542409 101.1252754  16.4387691  27.8498023  86.5239168  11.2257178
  27.5062292  87.4140810  11.1496288  28.2176986  86.3340826  10.3626763
  25.3995417  91.3597480   4.7914851  24.5437013  90.9704330   4.6120490
  25.8122369  91.4389441   3.9314637  26.9294563  88.8943823   9.1906411
  26.4259359  88.8573958   8.3774216  27.2225170  89.8036566   9.2503068
  23.1737449  88.9782553   8.1972593  24.0390446  88.7825362   7.8378482
  23.2414958  88.7492905   9.1241950  31.0273887  98.7414115   8.3249394
  30.3697561  99.4313376   8.4129523  31.8314286  99.1310547   8.6683381
  29.8379346  97.0958488   6.3753336  30.3511227  97.7288480   6.8775046
  30.4880569  96.4959683   6.0096696  23.0822436  88.0826010   4.2964029
  22.4286848  87.7675027   3.6720644  23.0402910  87.4601750   5.0223852
  26.3160176  94.5707943   8.6211677  25.3982738  94.7922890   8.4633365
  26.7320320  94.6454254   7.7623384  29.5474061  93.0056475   5.7333146
  28.8096818  92.4933861   6.0643389  29.8000835  92.5656857   4.9216423
  29.6485689  85.7832727   6.3274916  29.9544565  84.9230091   6.0400831
  30.3738293  86.3750347   6.1273909  27.4573340  95.1605405  13.4256379
  27.8122728  95.3876878  14.2850845  28.1045471  95.4923781  12.8033635
  33.1871077  98.2823840   4.1305708  33.0488976  98.4725436   3.2026898
  32.8307296  99.0443223   4.5873760  21.3513203  92.2681936  10.2102720
  21.9912582  92.1270695   9.5125684  20.5190734  91.9816449   9.8341322
  33.2140457 100.3500367   9.1416980  33.6476963 100.2575657   9.9900034
  33.9272037 100.3257868   8.5036996  26.9468351 103.9502462  10.6750081
  27.0005374 104.5193398  11.4427796  26.0783133 104.1204347  10.3104118
  19.8266745  93.6520018  12.1574532  20.4989798  93.4437380  11.5087181
  18.9996531  93.4542104  11.7179764  34.0756006 100.3924068  11.6749865
  34.2691896 101.2969879  11.9209140  33.9756624  99.9331487  12.5088450
  25.7292317  90.2781959  14.1740193  25.0820232  90.9771908  14.0804669
  26.4993332  90.7118103  14.5416441  29.1371115 100.5430811  17.2490746
  28.9856621 100.3141363  16.3320830  29.1275794 101.5001412  17.2622091
  25.9056451  98.1162724  12.2337012  26.8348511  98.2673883  12.0605980
  25.4847481  98.2046744  11.3785659  20.2294242  96.9262621  12.9176969
  20.0914040  96.1942860  13.5188508  21.1399166  96.8371521  12.6361157
  22.8576543  96.6382580  12.4060649  23.5676161  95.9975772  12.3647267
  22.8145851  96.8895475  13.3286829  30.8463321 103.5749933  15.3267228
  30.7875868 102.8909154  14.6597811  31.2482840 104.3168923  14.8747854
  21.5705477  93.6247798  14.2256288  21.0342834  93.1738536  14.8777884
  20.9822185  93.7593707  13.4826752  30.8480729 101.5389517  13.5581207
  29.9607507 101.2015439  13.6807606  31.4179280 100.8072549  13.7949973
  27.4768312  91.2457369   6.6779478  27.9737011  90.4927332   6.3580548
  26.7055293  91.2821686   6.1122687  35.3298069  96.9497735   8.3197769
  35.3187945  97.8322450   7.9491702  34.4615449  96.5969286   8.1252306
  26.8380566 106.0977804  12.6800609  27.5508538 106.7325269  12.6076511
  26.3470594 106.1941670  11.8640611  24.0603281  93.3874752   6.4051162
  23.6901068  92.8345793   7.0932068  24.5562373  92.7832886   5.8526162
  31.9470644  95.8446376   4.7867935  32.4131096  96.6774367   4.7128238
  32.3978144  95.3791357   5.4913194  29.9187307  88.2126963   8.8258837
  29.0050386  88.4431190   8.9941043  30.3480408  88.2965407   9.6772869
  29.6893765  96.4016855  11.3258731  29.0365215  96.6492762  10.6711183
  30.0674145  95.5880993  10.9921208  25.7381338  97.1436666  17.8124768
  25.0621975  97.0430795  18.4827143  26.5608972  96.9875879  18.2760765
  19.4568614  90.7978743  12.6504268  19.5209941  91.6593574  12.2381666
  19.3935734  90.1852745  11.9176627  18.9320887  92.8701875  16.2977303
  19.5592926  92.4878953  16.9114827  18.0748806  92.6516077  16.6632995
  29.3314995 103.2764851  17.9031038  29.8754899 103.8894809  17.4085993
  28.7501840 103.8344429  18.4198051  29.6807417 104.1994589  10.6625616
  28.7337752 104.0799940  10.5903943  30.0290190 103.3117087  10.7451877
  22.0406990  90.0888728  14.4863858  22.5641392  90.3351024  15.2490167
  21.8219323  90.9208762  14.0666995  30.2887972 104.8175864   7.9494841
  31.2134519 104.6118725   7.8119292  30.1203275 104.5692265   8.8584182
  23.2459535  91.0302423  12.1713528  22.9056355  90.2310236  12.5734208
  22.5398541  91.3304134  11.5990361  23.8976007  88.1151735  10.6240851
  24.7202076  87.6412213  10.5019742  24.1414070  88.8942219  11.1239538
  23.2810969  91.7973404   8.4813719  23.2672537  90.9014497   8.1446017
  23.9983397  91.8044068   9.1152006  25.1337099  92.2310744  10.5266847
  24.8754877  93.1527815  10.5251177  24.6022140  91.8341179  11.2167311
  25.5539055  88.3642695   6.8868009  25.5760752  88.4282028   5.9319989
  25.9707114  87.5247203   7.0808516  35.9322679  98.0997954   4.9247232
  36.3753825  97.3505279   4.5266355  35.0549189  98.0908090   4.5420964
  24.6269932 106.0162075  14.0631038  24.9357059 105.7711222  14.9353738
  25.4245414 106.2208713  13.5749908  22.1688944  92.1919781  17.9591222
  22.2177099  93.0681904  17.5768992  22.7111458  91.6497175  17.3862865
  32.6543790 102.7360905  17.2392359  31.8639333 102.7185044  16.6996859
  32.4177144 103.2749198  17.9941396  32.7741665  99.5853371  14.5525088
  32.8239670  99.4203379  15.4940611  32.6655588  98.7180630  14.1622969
  30.0645427  95.5684299  15.8684395  30.9655290  95.4290764  15.5768392
  30.1393402  95.7338754  16.8082572  24.3988232  92.9451154  14.7137581
  23.5291542  93.2384720  14.4420169  24.6347713  93.5291599  15.4344844
  34.2759862 102.0050313  14.7967109  33.9844670 102.3680293  15.6330570
  33.6631993 101.2917321  14.6180441  35.4755544  99.5703192   7.3169680
  36.3102435 100.0092996   7.4807240  35.6114673  99.0941846   6.4977925
  32.5247050  97.1282927  13.2647167  33.0001171  97.3210574  12.4566019
  31.6012615  97.1842113  13.0190551  27.1027266  89.1630771  12.2303001
  27.6209210  89.8991798  11.9049490  26.7482399  89.4694764  13.0649760
  27.3539860  85.5831053   7.7503898  27.6341614  84.9154242   8.3764324
  28.1390467  85.7760149   7.2378562  31.2248719  94.0048687  11.4975473
  32.1766142  94.1046785  11.5187697  31.0552169  93.2126956  12.0073557
  29.2463098  91.0904271  11.6834874  28.6513030  91.3709283  10.9881363
  28.9612795  91.5798171  12.4551615  33.7036797  97.2254807  10.6117773
  33.6713117  96.2870808  10.7977456  34.3137420  97.3038844   9.8783597
  33.8531285  94.0165850  10.6576056  33.3370334  93.2324307  10.4705985
  34.7371234  93.6884567  10.8222575  31.5142012  87.7606866   6.6171868
  31.3166833  87.4521954   7.5015200  32.1241718  88.4868505   6.7469798
  39.5213346  98.2870814   9.7523809  40.2516735  98.0256102  10.3131513
  38.9120292  97.5499536   9.7925877  37.6028644  96.4278676  10.3498261
  36.8761807  96.2934641   9.7414752  37.1875930  96.7355505  11.1554979
  25.4258820 100.1468606  18.1145634  26.3461829 100.3247205  18.3085680
  25.3908403  99.2024651  17.9625333  25.3425110  88.5637726   2.7444103
  24.5325839  88.2184811   3.1199349  26.0309527  88.2545270   3.3331715
  27.2715659  87.6415773   4.3668400  27.8246697  88.0611226   5.0258423
  27.5085745  86.7151521   4.4091356  23.2948758  93.6302847  20.1471164
  23.1945485  94.5797204  20.0783255  23.0770300  93.3021085  19.2747234
  30.6494466  89.7516298   3.8747064  30.0693135  90.4101102   3.4925116
  30.3830398  88.9293643   3.4634482  29.0998032  89.1521356   6.0768384
  29.5997810  89.2637890   5.2682703  29.7433640  88.8482409   6.7169193
  23.1580028  97.0599985  18.9636225  22.6747110  97.8600346  19.1700114
  23.2440967  97.0707930  18.0103669  19.6752748  99.5205636  13.5675457
  20.4945637 100.0149715  13.5910294  19.9489555  98.6037604  13.5393024
  29.4319344  91.9116388   2.9303412  28.5445199  92.1966039   2.7123607
  29.8473333  91.7510152   2.0830689  32.7833880  91.9362909   6.6457752
  33.5594270  92.4259362   6.9182368  32.0582014  92.3620964   7.1029621
  35.2206438  92.6490529   7.7031692  35.8150929  92.4086265   6.9925000
  35.2933022  91.9297659   8.3305228  33.2165173  93.2160656   3.9703822
  32.9602108  92.8157292   4.8012030  32.5918041  93.9304450   3.8453961
  37.5277511  95.9556729   6.4775113  36.9677069  96.0249919   7.2506675
  36.9221015  95.7797714   5.7574610  14.9287662  93.8543770  14.2667654
  15.5746525  93.3442724  14.7554879  14.7204813  94.5912452  14.8411079
  27.4541054 100.9224617  19.7659794  28.3232214 101.0965270  19.4046429
  26.9747805 101.7419034  19.6435524  27.2643392  84.7126591   4.2737487
  26.4975788  84.1585078   4.4194169  27.6754097  84.7848460   5.1351638
  19.2685153  91.0011387  18.3642668  20.1316614  90.6448192  18.5745993
  18.6950563  90.6625282  19.0518072  39.1133530 112.6313243   9.1705069
  39.7511940 112.5119991   8.4668409  38.9954373 113.5794087   9.2293021
  35.9223236 112.5840672   9.1066594  35.5841748 112.4681736   8.2187129
  36.7913004 112.1831837   9.0867600  36.4043019 113.7375523  15.0652799
  36.3931660 113.3428322  14.1933303  36.5663658 113.0041596  15.6586571
  33.1250280 116.5212635  14.0131983  32.8340146 117.4258266  13.8978650
  33.7607264 116.5629163  14.7276053  34.0506487 113.8989484  10.6033343
  34.6470059 113.6745506   9.8890306  34.1081459 113.1574229  11.2058791
  38.6674798 110.3564697   6.2458277  39.4537887 109.9384120   5.8948694
  38.9313503 111.2610789   6.4139926  44.0683225 110.2939930   7.1491256
  44.8008397 109.7239147   7.3829085  43.3122581 109.9061531   7.5897761
  41.5908646 104.0061505  11.6085864  41.2591970 104.8756916  11.3847079
  40.9954259 103.6897789  12.2879895  38.0840165 116.2074051  11.0081777
  37.7840888 117.1099089  10.8997584  37.7391225 115.9406234  11.8602930
  41.4837309 108.7256591   8.6879214  40.5754186 108.6571999   8.3937975
  41.4324905 109.2028536   9.5161040  35.5578175 110.1446236  16.6314112
  34.7811509 110.7040156  16.6216976  36.1968738 110.6303019  17.1528982
  43.3498955 106.9273029  10.4657088  42.7073336 107.2205562   9.8196883
  42.8453884 106.8125949  11.2710285  33.8124547 112.9531690  16.1932079
  34.5539231 113.4916734  15.9166902  33.1061533 113.5797978  16.3503630
  39.2879887 115.0960830  14.7904240  39.6963243 114.6543241  14.0458872
  38.5657148 114.5213458  15.0438433  35.6410957 110.0333437  12.1637797
  36.4872152 110.4572851  12.3072446  35.5809594 109.3767061  12.8576360
  39.6108701 115.6562021   8.5456529  38.9817564 115.8207735   7.8432597
  39.2234363 116.0703630   9.3167493  43.4897933 116.5916459   5.9000893
  42.8048971 116.9715360   5.3497926  43.5741783 117.2011785   6.6332841
  38.7910402 107.6937805  13.8218971  38.5471334 108.4479866  13.2853246
  39.0670333 108.0723153  14.6566218  40.7448865 114.2376418  12.4996236
  40.9565760 114.8808178  11.8230617  40.6978613 113.4038734  12.0318166
  38.3475094 106.8494238   9.4032808  37.4859573 107.1475492   9.6949546
  38.3737528 107.0664637   8.4713841  32.5485911 110.1071338  16.9947389
  31.9184571 110.7887619  17.2282785  32.4421999 109.9954419  16.0500527
  41.8594693 117.1148373  10.6718594  42.6812137 116.7128560  10.3901275
  41.8557096 117.0116607  11.6234709  35.6251296 116.6632416  12.8279304
  35.6895729 117.1252824  13.6637476  34.9162220 116.0329781  12.9561614
  49.9500686 113.4587122   7.0203565  49.1964394 112.8894520   6.8647570
  50.0848227 113.4249786   7.9674200  31.8266654 104.4092104  19.3572640
  31.4333599 103.8558302  20.0320284  32.6432794 104.7202682  19.7479157
  34.7434615 105.8249983  16.9492896  35.4844328 106.4257136  16.8697359
  34.9752537 105.0827621  16.3910939  29.8875953 111.0106350  15.2271126
  29.7729468 110.1091607  15.5278225  29.0320470 111.2570047  14.8755942
  36.9667790 118.9524090  16.8258627  36.5231644 118.1660469  16.5079531
  37.6285004 119.1403241  16.1602517  39.0649028 119.2326890  14.8540028
  39.0467504 120.0535771  14.3620297  39.9868948 119.1080966  15.0790169
  35.5222083 116.7471020  15.6963536  36.0550419 115.9859308  15.4662844
  34.9936164 116.4544672  16.4387691  38.6891777 101.8531086  11.2257178
  38.3456047 102.7432727  11.1496288  39.0570740 101.6632743  10.3626763
  36.2389171 106.6889398   4.7914851  35.3830768 106.2996248   4.6120490
  36.6516123 106.7681358   3.9314637  37.7688318 104.2235741   9.1906411
  37.2653113 104.1865876   8.3774216  38.0618925 105.1328484   9.2503068
  34.0131204 104.3074471   8.1972593  34.8784201 104.1117279   7.8378482
  34.0808713 104.0784822   9.1241950  41.8667641 114.0706033   8.3249394
  41.2091316 114.7605294   8.4129523  42.6708040 114.4602465   8.6683381
  40.6773100 112.4250405   6.3753336  41.1904982 113.0580397   6.8775046
  41.3274324 111.8251601   6.0096696  33.9216191 103.4117927   4.2964029
  33.2680603 103.0966945   3.6720644  33.8796665 102.7893668   5.0223852
  37.1553931 109.8999861   8.6211677  36.2376492 110.1214808   8.4633365
  37.5714075 109.9746171   7.7623384  40.3867816 108.3348393   5.7333146
  39.6490573 107.8225779   6.0643389  40.6394589 107.8948775   4.9216423
  40.4879443 101.1124645   6.3274916  40.7938320 100.2522008   6.0400831
  41.2132048 101.7042265   6.1273909  38.2967094 110.4897322  13.4256379
  38.6516482 110.7168795  14.2850845  38.9439226 110.8215699  12.8033635
  44.0264831 113.6115758   4.1305708  43.8882730 113.8017354   3.2026898
  43.6701050 114.3735141   4.5873760  32.1906958 107.5973853  10.2102720
  32.8306337 107.4562612   9.5125684  31.3584488 107.3108367   9.8341322
  44.0534211 115.6792285   9.1416980  44.4870718 115.5867574   9.9900034
  44.7665792 115.6549786   8.5036996  37.7862106 119.2794379  10.6750081
  37.8399128 119.8485316  11.4427796  36.9176887 119.4496264  10.3104118
  30.6660499 108.9811935  12.1574532  31.3383553 108.7729298  11.5087181
  29.8390286 108.7834021  11.7179764  44.9149761 115.7215986  11.6749865
  45.1085651 116.6261796  11.9209140  44.8150379 115.2623405  12.5088450
  36.5686071 105.6073876  14.1740193  35.9213986 106.3063826  14.0804669
  37.3387087 106.0410020  14.5416441  39.9764869 115.8722729  17.2490746
  39.8250376 115.6433280  16.3320830  39.9669549 116.8293330  17.2622091
  36.7450206 113.4454641  12.2337012  37.6742266 113.5965801  12.0605980
  36.3241236 113.5338662  11.3785659  31.0687997 112.2554538  12.9176969
  30.9307795 111.5234777  13.5188508  31.9792920 112.1663439  12.6361157
  33.6970297 111.9674498  12.4060649  34.4069916 111.3267690  12.3647267
  33.6539605 112.2187393  13.3286829  41.6857076 118.9041851  15.3267228
  41.6269622 118.2201071  14.6597811  42.0876594 119.6460841  14.8747854
  32.4099231 108.9539716  14.2256288  31.8736588 108.5030454  14.8777884
  31.8215940 109.0885624  13.4826752  41.6874483 116.8681435  13.5581207
  40.8001262 116.5307357  13.6807606  42.2573034 116.1364466  13.7949973
  38.3162066 106.5749287   6.6779478  38.8130766 105.8219249   6.3580548
  37.5449048 106.6113604   6.1122687  46.1691824 112.2789652   8.3197769
  46.1581700 113.1614368   7.9491702  45.3009203 111.9261203   8.1252306
  37.6774320 121.4269721  12.6800609  38.3902292 122.0617186  12.6076511
  37.1864349 121.5233587  11.8640611  34.8997035 108.7166670   6.4051162
  34.5294823 108.1637710   7.0932068  35.3956128 108.1124803   5.8526162
  42.7864398 111.1738293   4.7867935  43.2524851 112.0066285   4.7128238
  43.2371899 110.7083275   5.4913194  40.7581061 103.5418880   8.8258837
  39.8444141 103.7723107   8.9941043  41.1874163 103.6257324   9.6772869
  40.5287520 111.7308772  11.3258731  39.8758970 111.9784680  10.6711183
  40.9067899 110.9172911  10.9921208  36.5775093 112.4728583  17.8124768
  35.9015730 112.3722713  18.4827143  37.4002727 112.3167797  18.2760765
  30.2962369 106.1270661  12.6504268  30.3603695 106.9885492  12.2381666
  30.2329489 105.5144662  11.9176627  29.7714641 108.1993793  16.2977303
  30.3986680 107.8170870  16.9114827  28.9142560 107.9807995  16.6632995
  40.1708750 118.6056768  17.9031038  40.7148654 119.2186727  17.4085993
  39.5895595 119.1636347  18.4198051  40.5201171 119.5286506  10.6625616
  39.5731507 119.4091858  10.5903943  40.8683944 118.6409004  10.7451877
  32.8800745 105.4180645  14.4863858  33.4035146 105.6642942  15.2490167
  32.6613078 106.2500680  14.0666995  41.1281726 120.1467781   7.9494841
  42.0528274 119.9410643   7.8119292  40.9597030 119.8984183   8.8584182
  34.0853290 106.3594340  12.1713528  33.7450110 105.5602154  12.5734208
  33.3792296 106.6596051  11.5990361  34.7369761 103.4443653  10.6240851
  35.5595831 102.9704131  10.5019742  34.9807825 104.2234137  11.1239538
  34.1204723 107.1265322   8.4813719  34.1066292 106.2306415   8.1446017
  34.8377151 107.1335985   9.1152006  35.9730854 107.5602662  10.5266847
  35.7148632 108.4819732  10.5251177  35.4415894 107.1633096  11.2167311
  36.3932809 103.6934612   6.8868009  36.4154506 103.7573945   5.9319989
  36.8100868 102.8539121   7.0808516  46.7716434 113.4289872   4.9247232
  47.2147580 112.6797197   4.5266355  45.8942944 113.4200008   4.5420964
  35.4663687 121.3453992  14.0631038  35.7750813 121.1003139  14.9353738
  36.2639169 121.5500631  13.5749908  33.0082699 107.5211699  17.9591222
  33.0570854 108.3973822  17.5768992  33.5505213 106.9789092  17.3862865
  43.4937544 118.0652822  17.2392359  42.7033088 118.0476961  16.6996859
  43.2570899 118.6041116  17.9941396  43.6135419 114.9145289  14.5525088
  43.6633424 114.7495296  15.4940611  43.5049343 114.0472548  14.1622969
  40.9039182 110.8976217  15.8684395  41.8049044 110.7582682  15.5768392
  40.9787156 111.0630672  16.8082572  35.2381987 108.2743072  14.7137581
  34.3685296 108.5676638  14.4420169  35.4741467 108.8583517  15.4344844
  45.1153616 117.3342230  14.7967109  44.8238424 117.6972211  15.6330570
  44.5025747 116.6209239  14.6180441  46.3149298 114.8995110   7.3169680
  47.1496190 115.3384914   7.4807240  46.4508427 114.4233763   6.4977925
  43.3640804 112.4574845  13.2647167  43.8394926 112.6502491  12.4566019
  42.4406370 112.5134031  13.0190551  37.9421021 104.4922688  12.2303001
  38.4602965 105.2283715  11.9049490  37.5876154 104.7986682  13.0649760
  38.1933615 100.9122971   7.7503898  38.4735369 100.2446160   8.3764324
  38.9784222 101.1052067   7.2378562  42.0642473 109.3340605  11.4975473
  43.0159896 109.4338703  11.5187697  41.8945924 108.5418874  12.0073557
  40.0856853 106.4196188  11.6834874  39.4906785 106.7001201  10.9881363
  39.8006549 106.9090089  12.4551615  44.5430551 112.5546725  10.6117773
  44.5106871 111.6162725  10.7977456  45.1531175 112.6330761   9.8783597
  44.6925040 109.3457768  10.6576056  44.1764088 108.5616225  10.4705985
  45.5764988 109.0176485  10.8222575  42.3535766 103.0898784   6.6171868
  42.1560588 102.7813872   7.5015200  42.9635472 103.8160423   6.7469798
  50.3607101 113.6162732   9.7523809  51.0910489 113.3548020  10.3131513
  49.7514046 112.8791453   9.7925877  48.4422398 111.7570594  10.3498261
  47.7155562 111.6226559   9.7414752  48.0269685 112.0647423  11.1554979
  36.2652574 115.4760524  18.1145634  37.1855584 115.6539123  18.3085680
  36.2302158 114.5316569  17.9625333  36.1818865 103.8929644   2.7444103
  35.3719593 103.5476729   3.1199349  36.8703282 103.5837188   3.3331715
  38.1109413 102.9707691   4.3668400  38.6640452 103.3903144   5.0258423
  38.3479499 102.0443439   4.4091356  34.1342512 108.9594764  20.1471164
  34.0339239 109.9089121  20.0783255  33.9164054 108.6313003  19.2747234
  41.4888220 105.0808216   3.8747064  40.9086889 105.7393020   3.4925116
  41.2224153 104.2585560   3.4634482  39.9391787 104.4813273   6.0768384
  40.4391565 104.5929808   5.2682703  40.5827395 104.1774326   6.7169193
  33.9973782 112.3891903  18.9636225  33.5140864 113.1892263  19.1700114
  34.0834721 112.3999848  18.0103669  30.5146502 114.8497554  13.5675457
  31.3339391 115.3441632  13.5910294  30.7883310 113.9329522  13.5393024
  40.2713098 107.2408306   2.9303412  39.3838953 107.5257957   2.7123607
  40.6867087 107.0802069   2.0830689  43.6227634 107.2654827   6.6457752
  44.3988024 107.7551280   6.9182368  42.8975769 107.6912881   7.1029621
  46.0600193 107.9782446   7.7031692  46.6544684 107.7378182   6.9925000
  46.1326777 107.2589577   8.3305228  44.0558928 108.5452574   3.9703822
  43.7995862 108.1449210   4.8012030  43.4311796 109.2596368   3.8453961
  48.3671266 111.2848647   6.4775113  47.8070824 111.3541836   7.2506675
  47.7614769 111.1089632   5.7574610  25.7681416 109.1835688  14.2667654
  26.4140280 108.6734642  14.7554879  25.5598567 109.9204369  14.8411079
  38.2934808 116.2516535  19.7659794  39.1625968 116.4257187  19.4046429
  37.8141560 117.0710952  19.6435524  38.1037146 100.0418509   4.2737487
  37.3369542  99.4876996   4.4194169  38.5147851 100.1140378   5.1351638
  30.1078907 106.3303305  18.3642668  30.9710369 105.9740110  18.5745993
  29.5344318 105.9917200  19.0518072  49.9527284 127.9605161   9.1705069
  50.5905694 127.8411908   8.4668409  49.8348127 128.9086005   9.2293021
  46.7616990 127.9132589   9.1066594  46.4235502 127.7973654   8.2187129
  47.6306759 127.5123754   9.0867600  47.2436773 129.0667441  15.0652799
  47.2325414 128.6720239  14.1933303  47.4057413 128.3333514  15.6586571
  43.9644035 131.8504553  14.0131983  43.6733901 132.7550184  13.8978650
  44.6001019 131.8921080  14.7276053  44.8900241 129.2281401  10.6033343
  45.4863814 129.0037424   9.8890306  44.9475213 128.4866147  11.2058791
  49.5068553 125.6856615   6.2458277  50.2931642 125.2676038   5.8948694
  49.7707257 126.5902707   6.4139926  54.9076980 125.6231848   7.1491256
  55.6402152 125.0531065   7.3829085  54.1516336 125.2353449   7.5897761
  52.4302400 119.3353422  11.6085864  52.0985725 120.2048833  11.3847079
  51.8348014 119.0189706  12.2879895  48.9233920 131.5365968  11.0081777
  48.6234643 132.4391007  10.8997584  48.5784979 131.2698151  11.8602930
  52.3231063 124.0548508   8.6879214  51.4147941 123.9863917   8.3937975
  52.2718659 124.5320453   9.5161040  46.3971929 125.4738154  16.6314112
  45.6205263 126.0332074  16.6216976  47.0362492 125.9594937  17.1528982
  54.1892710 122.2564947  10.4657088  53.5467090 122.5497480   9.8196883
  53.6847638 122.1417867  11.2710285  44.6518302 128.2823607  16.1932079
  45.3932986 128.8208651  15.9166902  43.9455287 128.9089896  16.3503630
  50.1273641 130.4252748  14.7904240  50.5356997 129.9835158  14.0458872
  49.4050903 129.8505375  15.0438433  46.4804711 125.3625355  12.1637797
  47.3265906 125.7864768  12.3072446  46.4203349 124.7058979  12.8576360
  50.4502456 130.9853938   8.5456529  49.8211318 131.1499653   7.8432597
  50.0628118 131.3995548   9.3167493  49.6304157 123.0229723  13.8218971
  49.3865088 123.7771784  13.2853246  49.9064087 123.4015071  14.6566218
  51.5842619 129.5668335  12.4996236  51.7959515 130.2100095  11.8230617
  51.5372368 128.7330652  12.0318166  49.1868848 122.1786156   9.4032808
  48.3253327 122.4767410   9.6949546  49.2131283 122.3956555   8.4713841
  43.3879665 125.4363256  16.9947389  42.7578326 126.1179536  17.2282785
  43.2815753 125.3246337  16.0500527  52.6988447 132.4440291  10.6718594
  53.5205891 132.0420478  10.3901275  52.6950850 132.3408525  11.6234709
  46.4645051 131.9924334  12.8279304  46.5289483 132.4544741  13.6637476
  45.7555975 131.3621699  12.9561614  42.6660408 119.7384021  19.3572640
  42.2727354 119.1850220  20.0320284  43.4826548 120.0494600  19.7479157
  45.5828369 121.1541900  16.9492896  46.3238082 121.7549054  16.8697359
  45.8146292 120.4119538  16.3910939  40.7269707 126.3398268  15.2271126
  40.6123222 125.4383525  15.5278225  39.8714225 126.5861965  14.8755942
  47.8061545 134.2816008  16.8258627  47.3625399 133.4952387  16.5079531
  48.4678758 134.4695159  16.1602517  49.9042783 134.5618808  14.8540028
  49.8861258 135.3827689  14.3620297  50.8262703 134.4372883  15.0790169
  46.3615837 132.0762937  15.6963536  46.8944174 131.3151226  15.4662844
  45.8329918 131.7836589  16.4387691  49.5285532 117.1823003  11.2257178
  49.1849801 118.0724645  11.1496288  49.8964495 116.9924661  10.3626763
  47.0782926 122.0181315   4.7914851  46.2224522 121.6288166   4.6120490
  47.4909877 122.0973276   3.9314637  48.6082072 119.5527659   9.1906411
  48.1046868 119.5157794   8.3774216  48.9012679 120.4620401   9.2503068
  44.8524958 119.6366388   8.1972593  45.7177955 119.4409197   7.8378482
  44.9202467 119.4076740   9.1241950  52.7061396 129.3997950   8.3249394
  52.0485070 130.0897212   8.4129523  53.5101795 129.7894382   8.6683381
  51.5166855 127.7542323   6.3753336  52.0298736 128.3872315   6.8775046
  52.1668078 127.1543519   6.0096696  44.7609945 118.7409845   4.2964029
  44.1074357 118.4258862   3.6720644  44.7190419 118.1185586   5.0223852
  47.9947685 125.2291779   8.6211677  47.0770247 125.4506726   8.4633365
  48.4107829 125.3038089   7.7623384  51.2261570 123.6640311   5.7333146
  50.4884327 123.1517697   6.0643389  51.4788344 123.2240692   4.9216423
  51.3273198 116.4416563   6.3274916  51.6332074 115.5813926   6.0400831
  52.0525802 117.0334183   6.1273909  49.1360849 125.8189240  13.4256379
  49.4910237 126.0460713  14.2850845  49.7832980 126.1507617  12.8033635
  43.0300712 122.9265771  10.2102720  43.6700091 122.7854530   9.5125684
  42.1978243 122.6400284   9.8341322  48.6255860 134.6086297  10.6750081
  48.6792883 135.1777233  11.4427796  47.7570642 134.7788182  10.3104118
  41.5054254 124.3103853  12.1574532  42.1777307 124.1021215  11.5087181
  40.6784040 124.1125939  11.7179764  55.7543515 131.0507903  11.6749865
  55.9479405 131.9553714  11.9209140  55.6544133 130.5915323  12.5088450
  47.4079826 120.9365794  14.1740193  46.7607741 121.6355744  14.0804669
  48.1780841 121.3701938  14.5416441  50.8158624 131.2014646  17.2490746
  50.6644130 130.9725198  16.3320830  50.8063303 132.1585248  17.2622091
  47.5843960 128.7746559  12.2337012  48.5136020 128.9257719  12.0605980
  47.1634990 128.8630580  11.3785659  41.9081751 127.5846456  12.9176969
  41.7701549 126.8526695  13.5188508  42.8186675 127.4955356  12.6361157
  44.5364052 127.2966415  12.4060649  45.2463670 126.6559608  12.3647267
  44.4933360 127.5479310  13.3286829  52.5250830 134.2333769  15.3267228
  52.4663377 133.5492989  14.6597811  52.9270349 134.9752759  14.8747854
  43.2492986 124.2831633  14.2256288  42.7130343 123.8322372  14.8777884
  42.6609694 124.4177542  13.4826752  52.5268238 132.1973353  13.5581207
  51.6395016 131.8599274  13.6807606  53.0966789 131.4656384  13.7949973
  49.1555821 121.9041205   6.6779478  49.6524520 121.1511167   6.3580548
  48.3842802 121.9405521   6.1122687  48.5168075 136.7561639  12.6800609
  49.2296047 137.3909104  12.6076511  48.0258103 136.8525505  11.8640611
  45.7390790 124.0458588   6.4051162  45.3688577 123.4929628   7.0932068
  46.2349882 123.4416721   5.8526162  51.5974816 118.8710798   8.8258837
  50.6837895 119.1015025   8.9941043  52.0267917 118.9549242   9.6772869
  51.3681274 127.0600690  11.3258731  50.7152724 127.3076597  10.6711183
  51.7461654 126.2464828  10.9921208  47.4168847 127.8020501  17.8124768
  46.7409484 127.7014630  18.4827143  48.2396481 127.6459715  18.2760765
  41.1356123 121.4562578  12.6504268  41.1997450 122.3177409  12.2381666
  41.0723243 120.8436580  11.9176627  40.6108396 123.5285711  16.2977303
  41.2380435 123.1462788  16.9114827  39.7536315 123.3099913  16.6632995
  51.0102504 133.9348686  17.9031038  51.5542408 134.5478644  17.4085993
  50.4289349 134.4928264  18.4198051  51.3594926 134.8578424  10.6625616
  50.4125261 134.7383775  10.5903943  51.7077699 133.9700922  10.7451877
  43.7194499 120.7472563  14.4863858  44.2428901 120.9934860  15.2490167
  43.5006832 121.5792598  14.0666995  44.9247044 121.6886258  12.1713528
  44.5843864 120.8894071  12.5734208  44.2186050 121.9887969  11.5990361
  45.5763516 118.7735571  10.6240851  46.3989585 118.2996049  10.5019742
  45.8201579 119.5526054  11.1239538  44.9598478 122.4557239   8.4813719
  44.9460046 121.5598332   8.1446017  45.6770906 122.4627903   9.1152006
  46.8124608 122.8894579  10.5266847  46.5542386 123.8111650  10.5251177
  46.2809649 122.4925014  11.2167311  47.2326564 119.0226530   6.8868009
  47.2548261 119.0865863   5.9319989  47.6494623 118.1831039   7.0808516
  46.3057441 136.6745910  14.0631038  46.6144568 136.4295057  14.9353738
  47.1032923 136.8792549  13.5749908  43.8476453 122.8503617  17.9591222
  43.8964608 123.7265740  17.5768992  44.3898967 122.3081010  17.3862865
  54.3331299 133.3944740  17.2392359  53.5426842 133.3768879  16.6996859
  54.0964653 133.9333034  17.9941396  54.4529174 130.2437206  14.5525088
  54.5027179 130.0787214  15.4940611  54.3443097 129.3764465  14.1622969
  51.7432936 126.2268134  15.8684395  52.6442799 126.0874599  15.5768392
  51.8180911 126.3922589  16.8082572  46.0775741 123.6034989  14.7137581
  45.2079051 123.8968555  14.4420169  46.3135222 124.1875434  15.4344844
  55.9547371 132.6634148  14.7967109  55.6632179 133.0264129  15.6330570
  55.3419502 131.9501156  14.6180441  54.2034559 127.7866763  13.2647167
  54.6788680 127.9794409  12.4566019  53.2800124 127.8425948  13.0190551
  48.7814775 119.8214606  12.2303001  49.2996719 120.5575633  11.9049490
  48.4269908 120.1278599  13.0649760  49.0327369 116.2414889   7.7503898
  49.3129123 115.5738078   8.3764324  49.8177976 116.4343984   7.2378562
  52.9036228 124.6632523  11.4975473  53.8553651 124.7630620  11.5187697
  52.7339678 123.8710791  12.0073557  50.9250607 121.7488106  11.6834874
  50.3300539 122.0293119  10.9881363  50.6400304 122.2382007  12.4551615
  55.3824306 127.8838642  10.6117773  55.3500626 126.9454643  10.7977456
  55.9924929 127.9622679   9.8783597  55.5318794 124.6749686  10.6576056
  55.0157843 123.8908142  10.4705985  56.4158743 124.3468402  10.8222575
  53.1929521 118.4190701   6.6171868  52.9954342 118.1105790   7.5015200
  53.8029227 119.1452340   6.7469798  59.2816153 127.0862512  10.3498261
  58.5549316 126.9518477   9.7414752  58.8663439 127.3939340  11.1554979
  47.1046329 130.8052441  18.1145634  48.0249338 130.9831040  18.3085680
  47.0695912 129.8608487  17.9625333  47.0212619 119.2221561   2.7444103
  46.2113348 118.8768646   3.1199349  47.7097036 118.9129105   3.3331715
  48.9503168 118.2999608   4.3668400  49.5034206 118.7195062   5.0258423
  49.1873254 117.3735356   4.4091356  44.9736267 124.2886682  20.1471164
  44.8732994 125.2381039  20.0783255  44.7557809 123.9604921  19.2747234
  52.3281975 120.4100133   3.8747064  51.7480644 121.0684937   3.4925116
  52.0617907 119.5877478   3.4634482  50.7785541 119.8105191   6.0768384
  51.2785319 119.9221726   5.2682703  51.4221149 119.5066244   6.7169193
  44.8367537 127.7183821  18.9636225  44.3534619 128.5184181  19.1700114
  44.9228476 127.7291766  18.0103669  41.3540257 130.1789471  13.5675457
  42.1733146 130.6733550  13.5910294  41.6277064 129.2621440  13.5393024
  54.4621389 122.5946745   6.6457752  55.2381779 123.0843197   6.9182368
  53.7369523 123.0204799   7.1029621  56.8993947 123.3074364   7.7031692
  57.4938438 123.0670100   6.9925000  56.9720531 122.5881495   8.3305228
  36.6075171 124.5127605  14.2667654  37.2534034 124.0026559  14.7554879
  36.3992322 125.2496287  14.8411079  49.1328563 131.5808453  19.7659794
  50.0019723 131.7549105  19.4046429  48.6535314 132.4002870  19.6435524
  48.9430901 115.3710427   4.2737487  48.1763296 114.8168913   4.4194169
  49.3541606 115.4432295   5.1351638  40.9472662 121.6595222  18.3642668
  41.8104123 121.3032027  18.5745993  40.3738072 121.3209117  19.0518072
  57.2365684 140.8030072  16.6314112  56.4599018 141.3623992  16.6216976
  57.8756247 141.2886855  17.1528982  54.2273420 140.7655173  16.9947389
  53.5972080 141.4471454  17.2282785  54.1209508 140.6538255  16.0500527
  53.5054163 135.0675939  19.3572640  53.1121108 134.5142138  20.0320284
  54.3220303 135.3786518  19.7479157  56.4222124 136.4833818  16.9492896
  57.1631837 137.0840971  16.8697359  56.6540046 135.7411456  16.3910939
  51.5663462 141.6690185  15.2271126  51.4516977 140.7675443  15.5278225
  50.7107979 141.9153882  14.8755942  58.2473580 136.2657712  14.1740193
  57.6001495 136.9647661  14.0804669  59.0174596 136.6993856  14.5416441
  54.0886740 139.6123551  14.2256288  53.5524097 139.1614289  14.8777884
  53.5003449 139.7469460  13.4826752  58.2562602 143.1312419  17.8124768
  57.5803239 143.0306548  18.4827143  59.0790235 142.9751632  18.2760765
  51.9749878 136.7854496  12.6504268  52.0391204 137.6469327  12.2381666
  51.9116998 136.1728498  11.9176627  51.4502150 138.8577629  16.2977303
  52.0774189 138.4754706  16.9114827  50.5930069 138.6391830  16.6632995
  54.5588254 136.0764481  14.4863858  55.0822655 136.3226777  15.2490167
  54.3400587 136.9084516  14.0666995  54.6870207 138.1795535  17.9591222
  54.7358363 139.0557657  17.5768992  55.2292722 137.6372928  17.3862865
  56.9169496 138.9326907  14.7137581  56.0472805 139.2260473  14.4420169
  57.1528976 139.5167352  15.4344844  55.8130021 139.6178600  20.1471164
  55.7126748 140.5672957  20.0783255  55.5951563 139.2896838  19.2747234
  55.6761291 143.0475738  18.9636225  55.1928373 143.8476099  19.1700114
  55.7622230 143.0583683  18.0103669  47.4468925 139.8419523  14.2667654
  48.0927789 139.3318477  14.7554879  47.2386076 140.5788205  14.8411079
  51.7866416 136.9887140  18.3642668  52.6497878 136.6323945  18.5745993
  51.2131827 136.6501035  19.0518072  26.1274037  80.6294295   3.5503933
  25.6837891  79.8430674   3.2324838  26.7891251  80.8173446   2.8847824
  28.2255275  80.9097095   1.5785334  28.2073750  81.7305976   1.0865604
  29.1475195  80.7851170   1.8035476  24.6828329  78.4241225   2.4208843
  25.2156666  77.6629513   2.1908151  24.1542410  78.1314877   3.1632997
  29.1371116  77.5492933   3.9736053  28.9856622  77.3203485   3.0566136
  29.1275796  78.5063535   3.9867398  30.8463323  80.5812056   2.0512534
  30.7875869  79.8971276   1.3843117  31.2482841  81.3231046   1.5993160
  30.8480730  78.5451640   0.2826514  29.9607509  78.2077562   0.4052913
  31.4179281  77.8134671   0.5195280  26.8380567  83.1039926  -0.5954084
  27.5508539  83.7387391  -0.6678183  26.3470596  83.2003792  -1.4114082
  25.7381339  74.1498788   4.5370074  25.0621976  74.0492918   5.2072449
  26.5608973  73.9938002   5.0006071  29.3314997  80.2826973   4.6276345
  29.8754901  80.8956932   4.1331299  28.7501841  80.8406552   5.1443358
  24.6269934  83.0224197   0.7876345  24.9357060  82.7773344   1.6599044
  25.4245416  83.2270836   0.2995215  32.6543791  79.7423027   3.9637666
  31.8639335  79.7247166   3.4242165  32.4177146  80.2811321   4.7186703
  32.7741666  76.5915494   1.2770394  32.8239671  76.4265501   2.2185917
  32.6655589  75.7242753   0.8868275  34.2759863  79.0112435   1.5212416
  33.9844671  79.3742416   2.3575877  33.6631994  78.2979444   1.3425748
  25.4258821  77.1530729   4.8390940  26.3461831  77.3309328   5.0330987
  25.3908404  76.2086774   4.6870640  27.4541055  77.9286740   6.4905101
  28.3232215  78.1027392   6.1291736  26.9747807  78.7481157   6.3680830
  39.1133531  89.6375366  -4.1049624  39.7511941  89.5182113  -4.8086284
  38.9954374  90.5856210  -4.0461672  35.9223237  89.5902794  -4.1688100
  35.5841749  89.4743859  -5.0567565  36.7913005  89.1893959  -4.1887093
  36.4043020  90.7437646   1.7898106  36.3931661  90.3490444   0.9178610
  36.5663660  90.0103718   2.3831877  33.1250281  93.5274758   0.7377290
  32.8340147  94.4320389   0.6223956  33.7607266  93.5691285   1.4521360
  34.0506488  90.9051606  -2.6721350  34.6470060  90.6807629  -3.3864387
  34.1081460  90.1636352  -2.0695903  38.6674799  87.3626820  -7.0296416
  39.4537889  86.9446243  -7.3805999  38.9313504  88.2672912  -6.8614768
  44.0683227  87.3002053  -6.1263438  44.8008399  86.7301270  -5.8925608
  43.3122582  86.9123654  -5.6856932  41.5908647  81.0123627  -1.6668829
  41.2591972  81.8819038  -1.8907614  40.9954260  80.6959911  -0.9874799
  38.0840166  93.2136173  -2.2672916  37.7840890  94.1161212  -2.3757109
  37.7391226  92.9468356  -1.4151763  41.4837310  85.7318713  -4.5875479
  40.5754188  85.6634122  -4.8816718  41.4324906  86.2090658  -3.7593654
  35.5578176  87.1508359   3.3559418  34.7811510  87.7102279   3.3462283
  36.1968739  87.6365142   3.8774288  43.3498957  83.9335152  -2.8097605
  42.7073337  84.2267685  -3.4557811  42.8453885  83.8188072  -2.0044408
  33.8124548  89.9593812   2.9177385  34.5539233  90.4978856   2.6412209
  33.1061534  90.5860101   3.0748937  39.2879888  92.1022953   1.5149547
  39.6963244  91.6605363   0.7704179  38.5657149  91.5275580   1.7683740
  35.6410958  87.0395560  -1.1116896  36.4872153  87.4634973  -0.9682247
  35.5809596  86.3829184  -0.4178333  39.6108703  92.6624143  -4.7298164
  38.9817565  92.8269858  -5.4322097  39.2234365  93.0765753  -3.9587200
  43.4897935  93.5978581  -7.3753801  42.8048973  93.9777483  -7.9256767
  43.5741784  94.2073908  -6.6421853  38.7910403  84.6999928   0.5464277
  38.5471335  85.4541988   0.0098553  39.0670334  85.0785276   1.3811524
  40.7448866  91.2438540  -0.7758457  40.9565761  91.8870300  -1.4524076
  40.6978614  90.4100857  -1.2436527  38.3475095  83.8556361  -3.8721885
  37.4859574  84.1537614  -3.5805147  38.3737530  84.0726760  -4.8040852
  32.5485912  87.1133460   3.7192695  31.9184573  87.7949741   3.9528092
  32.4422000  87.0016542   2.7745834  41.8594694  94.1210496  -2.6036100
  42.6812138  93.7190683  -2.8853418  41.8557097  94.0178730  -1.6519984
  35.6251298  93.6694539  -0.4475389  35.6895730  94.1314946   0.3882783
  34.9162221  93.0391904  -0.3193079  49.9500687  90.4649244  -6.2551128
  49.1964396  89.8956642  -6.4107124  50.0848228  90.4311909  -5.3080494
  31.8266655  81.4154226   6.0817946  31.4333600  80.8620425   6.7565591
  32.6432795  81.7264805   6.4724464  34.7434616  82.8312105   3.6738203
  35.4844329  83.4319259   3.5942665  34.9752539  82.0889743   3.1156245
  29.8875954  88.0168473   1.9516433  29.7729469  87.1153730   2.2523531
  29.0320472  88.2632169   1.6001249  36.9667792  95.9586213   3.5503933
  36.5231646  95.1722592   3.2324838  37.6285005  96.1465363   2.8847824
  39.0649030  96.2389013   1.5785334  39.0467505  97.0597894   1.0865604
  39.9868950  96.1143088   1.8035476  35.5222084  93.7533142   2.4208843
  36.0550421  92.9921431   2.1908151  34.9936165  93.4606794   3.1632997
  38.6891779  78.8593208  -2.0497515  38.3456048  79.7494850  -2.1258405
  39.0570741  78.6694866  -2.9127930  37.7688319  81.2297864  -4.0848282
  37.2653115  81.1927999  -4.8980477  38.0618926  82.1390606  -4.0251626
  41.8667642  91.0768155  -4.9505299  41.2091317  91.7667417  -4.8625170
  42.6708042  91.4664587  -4.6071313  40.6773101  89.4312528  -6.9001357
  41.1904983  90.0642520  -6.3979647  41.3274325  88.8313724  -7.2657997
  37.1553932  86.9061984  -4.6543017  36.2376494  87.1276931  -4.8121329
  37.5714076  86.9808294  -5.5131309  40.3867817  85.3410516  -7.5421547
  39.6490574  84.8287902  -7.2111304  40.6394591  84.9010897  -8.3538270
  38.2967096  87.4959445   0.1501686  38.6516483  87.7230918   1.0096152
  38.9439227  87.8277822  -0.4721059  44.0264833  90.6177881  -9.1448985
  43.8882731  90.8079477 -10.0727796  43.6701051  91.3797264  -8.6880934
  32.1906959  84.6035976  -3.0651973  32.8306338  84.4624735  -3.7629010
  31.3584489  84.3170489  -3.4413371  44.0534212  92.6854408  -4.1337713
  44.4870719  92.5929697  -3.2854659  44.7665793  92.6611908  -4.7717697
  37.7862107  96.2856502  -2.6004613  37.8399129  96.8547438  -1.8326897
  36.9176889  96.4558387  -2.9650576  30.6660501  85.9874058  -1.1180162
  31.3383554  85.7791420  -1.7667513  29.8390287  85.7896144  -1.5574929
  44.9149762  92.7278108  -1.6004828  45.1085652  93.6323919  -1.3545553
  44.8150380  92.2685527  -0.7666243  36.5686073  82.6135999   0.8985499
  35.9213988  83.3125949   0.8049976  37.3387088  83.0472143   1.2661748
  39.9764871  92.8784851   3.9736053  39.8250377  92.6495403   3.0566136
  39.9669550  93.8355453   3.9867398  36.7450207  90.4516764  -1.0417681
  37.6742267  90.6027923  -1.2148714  36.3241237  90.5400785  -1.8969034
  31.0687998  89.2616661  -0.3577724  30.9307796  88.5296900   0.2433815
  31.9792921  89.1725561  -0.6393537  33.6970298  88.9736620  -0.8694045
  34.4069917  88.3329813  -0.9107426  33.6539607  89.2249515   0.0532136
  41.6857077  95.9103974   2.0512534  41.6269623  95.2263194   1.3843117
  42.0876596  96.6522964   1.5993160  32.4099232  85.9601838   0.9501595
  31.8736589  85.5092577   1.6023191  31.8215941  86.0947747   0.2072059
  41.6874484  93.8743558   0.2826514  40.8001263  93.5369479   0.4052913
  42.2573036  93.1426589   0.5195280  46.1691825  89.2851775  -4.9556924
  46.1581701  90.1676490  -5.3262991  45.3009204  88.9323326  -5.1502387
  37.6774321  98.4331844  -0.5954084  38.3902294  99.0679309  -0.6678183
  37.1864350  98.5295710  -1.4114082  42.7864400  88.1800416  -8.4886758
  43.2524852  89.0128408  -8.5626456  43.2371900  87.7145398  -7.7841500
  40.7581062  80.5481003  -4.4495857  39.8444142  80.7785230  -4.2813650
  41.1874164  80.6319447  -3.5981824  40.5287521  88.7370895  -1.9495963
  39.8758971  88.9846802  -2.6043510  40.9067901  87.9235033  -2.2833486
  36.5775094  89.4790706   4.5370074  35.9015731  89.3784835   5.2072449
  37.4002728  89.3229920   5.0006071  30.2962370  83.1332783  -0.6250425
  30.3603696  83.9947614  -1.0373027  30.2329490  82.5206785  -1.3578067
  29.7714643  85.2055916   3.0222609  30.3986681  84.8232993   3.6360134
  28.9142561  84.9870118   3.3878302  40.1708751  95.6118891   4.6276345
  40.7148655  96.2248849   4.1331299  39.5895596  96.1698469   5.1443358
  40.5201172  96.5348629  -2.6129078  39.5731508  96.4153980  -2.6850751
  40.8683946  95.6471127  -2.5302816  32.8800746  82.4242768   1.2109164
  33.4035148  82.6705064   1.9735474  32.6613079  83.2562803   0.7912302
  41.1281728  97.1529904  -5.3259853  42.0528275  96.9472765  -5.4635401
  40.9597031  96.9046305  -4.4170511  34.0853291  83.3656463  -1.1041165
  33.7450111  82.5664276  -0.7020485  33.3792297  83.6658174  -1.6764332
  34.7369763  80.4505775  -2.6513842  35.5595832  79.9766254  -2.7734952
  34.9807826  81.2296259  -2.1515156  35.9730855  84.5664784  -2.7487846
  35.7148633  85.4881855  -2.7503516  35.4415895  84.1695219  -2.0587382
  46.7716435  90.4351994  -8.3507461  47.2147581  89.6859320  -8.7488338
  45.8942945  90.4262131  -8.7333729  35.4663688  98.3516115   0.7876345
  35.7750815  98.1065262   1.6599044  36.2639170  98.5562753   0.2995215
  33.0082700  84.5273822   4.6836529  33.0570855  85.4035945   4.3014298
  33.5505214  83.9851215   4.1108172  43.4937545  95.0714945   3.9637666
  42.7033089  95.0539084   3.4242165  43.2570900  95.6103239   4.7186703
  43.6135420  91.9207411   1.2770394  43.6633425  91.7557419   2.2185917
  43.5049344  91.0534670   0.8868275  40.9039183  87.9038339   2.5929701
  41.8049046  87.7644804   2.3013699  40.9787157  88.0692794   3.5327879
  35.2381988  85.2805194   1.4382888  34.3685298  85.5738760   1.1665476
  35.4741469  85.8645639   2.1590151  45.1153617  94.3404353   1.5212416
  44.8238426  94.7034333   2.3575877  44.5025749  93.6271361   1.3425748
  46.3149300  91.9057233  -5.9585014  47.1496191  92.3447037  -5.7947453
  46.4508428  91.4295886  -6.7776768  43.3640806  89.4636968  -0.0107526
  43.8394927  89.6564614  -0.8188675  42.4406371  89.5196153  -0.2564142
  37.9421022  81.4984811  -1.0451692  38.4602966  82.2345838  -1.3705204
  37.5876155  81.8048804  -0.2104933  42.0642475  86.3402728  -1.7779220
  43.0159897  86.4400825  -1.7566996  41.8945925  85.5480996  -1.2681136
  40.0856854  83.4258311  -1.5919819  39.4906786  83.7063324  -2.2873331
  39.8006551  83.9152212  -0.8203078  44.5430552  89.5608847  -2.6636921
  44.5106872  88.6224848  -2.4777237  45.1531176  89.6392884  -3.3971096
  44.6925041  86.3519891  -2.6178638  44.1764089  85.5678347  -2.8048709
  45.5764989  86.0238607  -2.4532118  50.3607102  90.6224854  -3.5230884
  51.0910491  90.3610142  -2.9623181  49.7514048  89.8853576  -3.4828816
  48.4422399  88.7632717  -2.9256433  47.7155563  88.6288682  -3.5339941
  48.0269686  89.0709545  -2.1199715  36.2652576  92.4822646   4.8390940
  37.1855585  92.6601245   5.0330987  36.2302159  91.5378692   4.6870640
  34.1342514  85.9656887   6.8716470  34.0339241  86.9151244   6.8028561
  33.9164056  85.6375126   5.9992540  33.9973784  89.3954026   5.6881532
  33.5140865  90.1954386   5.8945421  34.0834723  89.4061971   4.7348976
  30.5146503  91.8559676   0.2920763  31.3339392  92.3503755   0.3155601
  30.7883311  90.9391645   0.2638331  43.6227636  84.2716950  -6.6296942
  44.3988026  84.7613402  -6.3572325  42.8975770  84.6975004  -6.1725072
  46.0600194  84.9844569  -5.5723001  46.6544685  84.7440305  -6.2829693
  46.1326778  84.2651699  -4.9449465  44.0558929  85.5514697  -9.3050871
  43.7995863  85.1511332  -8.4742664  43.4311797  86.2658490  -9.4300732
  48.3671267  88.2910770  -6.7979580  47.8070825  88.3603959  -6.0248018
  47.7614770  88.1151754  -7.5180084  25.7681418  86.1897810   0.9912961
  26.4140281  85.6796764   1.4800186  25.5598569  86.9266492   1.5656386
  38.2934810  93.2578658   6.4905101  39.1625969  93.4319310   6.1291736
  37.8141561  94.0773075   6.3680830  30.1078909  83.3365427   5.0887975
  30.9710370  82.9802232   5.2991299  29.5344319  82.9979322   5.7763379
  49.9527285 104.9667284  -4.1049624  50.5905695 104.8474031  -4.8086284
  49.8348128 105.9148128  -4.0461672  46.7616992 104.9194712  -4.1688100
  46.4235503 104.8035777  -5.0567565  47.6306760 104.5185877  -4.1887093
  47.2436775 106.0729564   1.7898106  47.2325415 105.6782362   0.9178610
  47.4057414 105.3395636   2.3831877  43.9644036 108.8566675   0.7377290
  43.6733902 109.7612306   0.6223956  44.6001020 108.8983203   1.4521360
  44.8900243 106.2343524  -2.6721350  45.4863815 106.0099546  -3.3864387
  44.9475214 105.4928269  -2.0695903  49.5068554 102.6918738  -7.0296416
  50.2931643 102.2738161  -7.3805999  49.7707258 103.5964830  -6.8614768
  54.9076981 102.6293971  -6.1263438  55.6402153 102.0593188  -5.8925608
  54.1516337 102.2415571  -5.6856932  52.4302401  96.3415545  -1.6668829
  52.0985726  97.2110956  -1.8907614  51.8348015  96.0251829  -0.9874799
  48.9233921 108.5428091  -2.2672916  48.6234644 109.4453130  -2.3757109
  48.5784980 108.2760274  -1.4151763  52.3231065 101.0610631  -4.5875479
  51.4147942 100.9926039  -4.8816718  52.2718661 101.5382576  -3.7593654
  46.3971931 102.4800277   3.3559418  45.6205265 103.0394197   3.3462283
  47.0362494 102.9657060   3.8774288  54.1892711  99.2627069  -2.8097605
  53.5467091  99.5559603  -3.4557811  53.6847640  99.1479990  -2.0044408
  44.6518303 105.2885730   2.9177385  45.3932987 105.8270774   2.6412209
  43.9455288 105.9152019   3.0748937  50.1273642 107.4314870   1.5149547
  50.5356998 106.9897281   0.7704179  49.4050904 106.8567498   1.7683740
  46.4804713 102.3687477  -1.1116896  47.3265908 102.7926891  -0.9682247
  46.4203350 101.7121102  -0.4178333  50.4502457 107.9916061  -4.7298164
  49.8211320 108.1561775  -5.4322097  50.0628119 108.4057671  -3.9587200
  49.6304158 100.0291846   0.5464277  49.3865090 100.7833906   0.0098553
  49.9064088 100.4077193   1.3811524  51.5842621 106.5730458  -0.7758457
  51.7959516 107.2162218  -1.4524076  51.5372369 105.7392775  -1.2436527
  49.1868850  99.1848279  -3.8721885  48.3253329  99.4829532  -3.5805147
  49.2131284  99.4018677  -4.8040852  43.3879667 102.4425378   3.7192695
  42.7578327 103.1241659   3.9528092  43.2815754 102.3308460   2.7745834
  52.6988449 109.4502413  -2.6036100  53.5205892 109.0482601  -2.8853418
  52.6950851 109.3470648  -1.6519984  46.4645052 108.9986457  -0.4475389
  46.5289485 109.4606864   0.3882783  45.7555976 108.3683822  -0.3193079
  42.6660409  96.7446144   6.0817946  42.2727355  96.1912343   6.7565591
  43.4826550  97.0556722   6.4724464  45.5828370  98.1604023   3.6738203
  46.3238084  98.7611176   3.5942665  45.8146293  97.4181661   3.1156245
  40.7269708 103.3460390   1.9516433  40.6123223 102.4445648   2.2523531
  39.8714226 103.5924087   1.6001249  47.8061546 111.2878131   3.5503933
  47.3625400 110.5014509   3.2324838  48.4678760 111.4757281   2.8847824
  49.9042784 111.5680931   1.5785334  49.8861259 112.3889812   1.0865604
  50.8262704 111.4435006   1.8035476  46.3615838 109.0825060   2.4208843
  46.8944175 108.3213348   2.1908151  45.8329919 108.7898712   3.1632997
  49.5285533  94.1885126  -2.0497515  49.1849803  95.0786768  -2.1258405
  49.8964496  93.9986784  -2.9127930  47.0782927  99.0243438  -8.4839842
  46.2224523  98.6350288  -8.6634203  47.4909879  99.1035399  -9.3440056
  48.6082074  96.5589781  -4.0848282  48.1046869  96.5219916  -4.8980477
  48.9012680  97.4682524  -4.0251626  44.8524959  96.6428511  -5.0782100
  45.7177956  96.4471320  -5.4376211  44.9202468  96.4138863  -4.1512744
  52.7061397 106.4060073  -4.9505299  52.0485071 107.0959334  -4.8625170
  53.5101796 106.7956505  -4.6071313  51.5166856 104.7604446  -6.9001357
  52.0298738 105.3934438  -6.3979647  52.1668080 104.1605641  -7.2657997
  44.7609946  95.7471968  -8.9790664  44.1074359  95.4320985  -9.6034049
  44.7190420  95.1247708  -8.2530841  47.9947687 102.2353901  -4.6543017
  47.0770248 102.4568848  -4.8121329  48.4107830 102.3100212  -5.5131309
  51.2261572 100.6702433  -7.5421547  50.4884328 100.1579819  -7.2111304
  51.4788345 100.2302815  -8.3538270  51.3273199  93.4478685  -6.9479778
  51.6332076  92.5876049  -7.2353863  52.0525804  94.0396305  -7.1480784
  49.1360850 102.8251363   0.1501686  49.4910238 103.0522836   1.0096152
  49.7832981 103.1569739  -0.4721059  43.0300713  99.9327894  -3.0651973
  43.6700093  99.7916653  -3.7629010  42.1978244  99.6462407  -3.4413371
  48.6255862 111.6148420  -2.6004613  48.6792884 112.1839356  -1.8326897
  47.7570643 111.7850305  -2.9650576  41.5054255 101.3165976  -1.1180162
  42.1777308 101.1083338  -1.7667513  40.6784042 101.1188062  -1.5574929
  55.7543516 108.0570026  -1.6004828  55.9479406 108.9615837  -1.3545553
  55.6544134 107.5977445  -0.7666243  47.4079827  97.9427917   0.8985499
  46.7607742  98.6417866   0.8049976  48.1780842  98.3764061   1.2661748
  50.8158625 108.2076769   3.9736053  50.6644131 107.9787320   3.0566136
  50.8063304 109.1647370   3.9867398  47.5843961 105.7808682  -1.0417681
  48.5136021 105.9319841  -1.2148714  47.1634991 105.8692702  -1.8969034
  41.9081752 104.5908579  -0.3577724  41.7701550 103.8588818   0.2433815
  42.8186676 104.5017479  -0.6393537  44.5364053 104.3028538  -0.8694045
  45.2463672 103.6621730  -0.9107426  44.4933361 104.5541433   0.0532136
  52.5250832 111.2395891   2.0512534  52.4663378 110.5555111   1.3843117
  52.9270350 111.9814881   1.5993160  43.2492987 101.2893756   0.9501595
  42.7130344 100.8384494   1.6023191  42.6609695 101.4239665   0.2072059
  52.5268239 109.2035475   0.2826514  51.6395018 108.8661397   0.4052913
  53.0966790 108.4718507   0.5195280  49.1555822  98.9103327  -6.5975216
  49.6524522  98.1573289  -6.9174145  48.3842804  98.9467644  -7.1632006
  48.5168076 113.7623762  -0.5954084  49.2296048 114.3971226  -0.6678183
  48.0258104 113.8587628  -1.4114082  45.7390791 101.0520710  -6.8703531
  45.3688578 100.4991750  -6.1822626  46.2349883 100.4478844  -7.4228531
  51.5974817  95.8772921  -4.4495857  50.6837897  96.1077147  -4.2813650
  52.0267918  95.9611365  -3.5981824  51.3681275 104.0662813  -1.9495963
  50.7152726 104.3138720  -2.6043510  51.7461655 103.2526951  -2.2833486
  47.4168848 104.8082624   4.5370074  46.7409485 104.7076753   5.2072449
  48.2396482 104.6521837   5.0006071  41.1356124  98.4624701  -0.6250425
  41.1997451  99.3239532  -1.0373027  41.0723245  97.8498703  -1.3578067
  40.6108397 100.5347833   3.0222609  41.2380436 100.1524911   3.6360134
  39.7536316 100.3162035   3.3878302  51.0102506 110.9410809   4.6276345
  51.5542410 111.5540767   4.1331299  50.4289350 111.4990387   5.1443358
  51.3594927 111.8640547  -2.6129078  50.4125262 111.7445898  -2.6850751
  51.7077700 110.9763045  -2.5302816  43.7194500  97.7534686   1.2109164
  44.2428902  97.9996982   1.9735474  43.5006834  98.5854720   0.7912302
  44.9247045  98.6948381  -1.1041165  44.5843866  97.8956194  -0.7020485
  44.2186052  98.9950092  -1.6764332  45.5763517  95.7797693  -2.6513842
  46.3989586  95.3058171  -2.7734952  45.8201581  96.5588177  -2.1515156
  44.9598479  99.4619362  -4.7940974  44.9460048  98.5660455  -5.1308676
  45.6770907  99.4690026  -4.1602688  46.8124610  99.8956702  -2.7487846
  46.5542387 100.8173773  -2.7503516  46.2809650  99.4987137  -2.0587382
  47.2326565  96.0288652  -6.3886684  47.2548262  96.0927986  -7.3434704
  47.6494624  95.1893161  -6.1946178  46.3057443 113.6808033   0.7876345
  46.6144569 113.4357179   1.6599044  47.1032925 113.8854671   0.2995215
  43.8476454  99.8565739   4.6836529  43.8964610 100.7327862   4.3014298
  44.3898968  99.3143132   4.1108172  54.3331300 110.4006863   3.9637666
  53.5426844 110.3831002   3.4242165  54.0964655 110.9395156   4.7186703
  54.4529175 107.2499329   1.2770394  54.5027180 107.0849336   2.2185917
  54.3443098 106.3826588   0.8868275  51.7432937 103.2330257   2.5929701
  52.6442800 103.0936722   2.3013699  51.8180912 103.3984712   3.5327879
  46.0775743 100.6097112   1.4382888  45.2079052 100.9030678   1.1665476
  46.3135223 101.1937557   2.1590151  55.9547372 109.6696271   1.5212416
  55.6632180 110.0326251   2.3575877  55.3419503 108.9563279   1.3425748
  54.2034560 104.7928885  -0.0107526  54.6788682 104.9856532  -0.8188675
  53.2800125 104.8488071  -0.2564142  48.7814777  96.8276729  -1.0451692
  49.2996720  97.5637756  -1.3705204  48.4269909  97.1340722  -0.2104933
  49.0327371  93.2477011  -5.5250796  49.3129124  92.5800200  -4.8990369
  49.8177978  93.4406107  -6.0376132  52.9036229 101.6694645  -1.7779220
  53.8553652 101.7692743  -1.7566996  52.7339679 100.8772914  -1.2681136
  50.9250609  98.7550228  -1.5919819  50.3300541  99.0355241  -2.2873331
  50.6400305  99.2444129  -0.8203078  55.3824307 104.8900765  -2.6636921
  55.3500627 103.9516766  -2.4777237  55.9924930 104.9684802  -3.3971096
  55.5318795 101.6811808  -2.6178638  55.0157844 100.8970265  -2.8048709
  56.4158744 101.3530525  -2.4532118  53.1929522  95.4252824  -6.6582825
  52.9954343  95.1167912  -5.7739493  53.8029228  96.1514463  -6.5284895
  59.2816154 104.0924634  -2.9256433  58.5549317 103.9580599  -3.5339941
  58.8663441 104.4001463  -2.1199715  47.1046330 107.8114564   4.8390940
  48.0249340 107.9893163   5.0330987  47.0695913 106.8670609   4.6870640
  47.0212621  96.2283684 -10.5310590  46.2113349  95.8830769 -10.1555344
  47.7097038  95.9191228  -9.9422979  48.9503169  95.3061731  -8.9086294
  49.5034207  95.7257184  -8.2496270  49.1873255  94.3797479  -8.8663338
  44.9736268 101.2948804   6.8716470  44.8732995 102.2443161   6.8028561
  44.7557810 100.9667043   5.9992540  52.3281976  97.4162256  -9.4007629
  51.7480645  98.0747060  -9.7829577  52.0617909  96.5939601  -9.8120212
  50.7785542  96.8167314  -7.1986309  51.2785321  96.9283848  -8.0071990
  51.4221150  96.5128367  -6.5585501  44.8367538 104.7245943   5.6881532
  44.3534620 105.5246303   5.8945421  44.9228477 104.7353888   4.7348976
  41.3540258 107.1851594   0.2920763  42.1733147 107.6795673   0.3155601
  41.6277065 106.2683562   0.2638331  54.4621390  99.6008867  -6.6296942
  55.2381780 100.0905320  -6.3572325  53.7369524 100.0266922  -6.1725072
  56.8993949 100.3136487  -5.5723001  57.4938440 100.0732223  -6.2829693
  56.9720532  99.5943617  -4.9449465  36.6075172 101.5189728   0.9912961
  37.2534036 101.0088682   1.4800186  36.3992323 102.2558410   1.5656386
  49.1328564 108.5870575   6.4905101  50.0019724 108.7611228   6.1291736
  48.6535316 109.4064992   6.3680830  48.9430902  92.3772549  -9.0017206
  48.1763298  91.8231036  -8.8560524  49.3541607  92.4494418  -8.1403055
  40.9472663  98.6657345   5.0887975  41.8104125  98.3094150   5.2991299
  40.3738074  98.3271240   5.7763379  57.2365685 117.8092194   3.3559418
  56.4599019 118.3686114   3.3462283  57.8756248 118.2948977   3.8774288
  54.2273421 117.7717296   3.7192695  53.5972082 118.4533577   3.9528092
  54.1209509 117.6600377   2.7745834  53.5054164 112.0738062   6.0817946
  53.1121109 111.5204260   6.7565591  54.3220304 112.3848640   6.4724464
  56.4222125 113.4895941   3.6738203  57.1631838 114.0903094   3.5942665
  56.6540048 112.7473579   3.1156245  51.5663463 118.6752308   1.9516433
  51.4516978 117.7737565   2.2523531  50.7107981 118.9216005   1.6001249
  58.2473582 113.2719834   0.8985499  57.6001497 113.9709784   0.8049976
  59.0174597 113.7055978   1.2661748  54.0886741 116.6185674   0.9501595
  53.5524098 116.1676412   1.6023191  53.5003450 116.7531582   0.2072059
  58.2562603 120.1374541   4.5370074  57.5803240 120.0368671   5.2072449
  59.0790237 119.9813755   5.0006071  51.9749879 113.7916619  -0.6250425
  52.0391205 114.6531449  -1.0373027  51.9116999 113.1790620  -1.3578067
  51.4502151 115.8639751   3.0222609  52.0774190 115.4816828   3.6360134
  50.5930070 115.6453953   3.3878302  54.5588255 113.0826603   1.2109164
  55.0822657 113.3288900   1.9735474  54.3400588 113.9146638   0.7912302
  54.6870209 115.1857657   4.6836529  54.7358364 116.0619780   4.3014298
  55.2292723 114.6435050   4.1108172  56.9169497 115.9389030   1.4382888
  56.0472807 116.2322596   1.1665476  57.1528978 116.5229475   2.1590151
  55.8130023 116.6240722   6.8716470  55.7126749 117.5735079   6.8028561
  55.5951565 116.2958961   5.9992540  55.6761293 120.0537861   5.6881532
  55.1928374 120.8538221   5.8945421  55.7622232 120.0645806   4.7348976
  47.4468927 116.8481646   0.9912961  48.0927790 116.3380600   1.4800186
  47.2386078 117.5850327   1.5656386  51.7866418 113.9949263   5.0887975
  52.6497879 113.6386068   5.2991299  51.2131828 113.6563158   5.7763379
  47.8061547  88.2940253  -9.7250760  47.3625401  87.5076632 -10.0429856
  48.4678761  88.4819404 -10.3906869  49.9042785  88.5743053 -11.6969359
  49.8861261  89.3951934 -12.1889090  50.8262705  88.4497128 -11.4719218
  46.3615840  86.0887183 -10.8545851  46.8944176  85.3275471 -11.0846543
  45.8329921  85.7960834 -10.1121696  50.8158626  85.2138891  -9.3018641
  50.6644133  84.9849443 -10.2188557  50.8063306  86.1709493  -9.2887296
  52.5250833  88.2458014 -11.2242159  52.4663379  87.5617234 -11.8911576
  52.9270351  88.9877004 -11.6761533  52.5268240  86.2097598 -12.9928179
  51.6395019  85.8723520 -12.8701780  53.0966791  85.4780629 -12.7559414
  48.5168077  90.7685884 -13.8708777  49.2296049  91.4033349 -13.9432876
  48.0258106  90.8649750 -14.6868776  47.4168850  81.8144746  -8.7384619
  46.7409487  81.7138876  -8.0682244  48.2396484  81.6583960  -8.2748622
  51.0102507  87.9472931  -8.6478349  51.5542411  88.5602889  -9.1423394
  50.4289352  88.5052510  -8.1311336  46.3057444  90.6870155 -12.4878349
  46.6144570  90.4419302 -11.6155649  47.1032926  90.8916794 -12.9759479
  54.3331301  87.4068985  -9.3117027  53.5426845  87.3893124  -9.8512528
  54.0964656  87.9457279  -8.5567991  54.4529176  84.2561452 -11.9984299
  54.5027181  84.0911459 -11.0568776  54.3443100  83.3888711 -12.3886418
  55.9547373  86.6758393 -11.7542277  55.6632181  87.0388374 -10.9178816
  55.3419504  85.9625401 -11.9328945  47.1046331  84.8176687  -8.4363753
  48.0249341  84.9955286  -8.2423707  47.0695915  83.8732732  -8.5884054
  49.1328565  85.5932698  -6.7849592  50.0019725  85.7673350  -7.1462957
  48.6535317  86.4127115  -6.9073863  57.2365686  94.8154317  -9.9195275
  56.4599020  95.3748237  -9.9292410  57.8756249  95.3011100  -9.3980405
  54.2273422  94.7779418  -9.5561998  53.5972083  95.4595699  -9.3226601
  54.1209510  94.6662500 -10.5008860  53.5054165  89.0800184  -7.1936747
  53.1121111  88.5266383  -6.5189103  54.3220305  89.3910763  -6.8030230
  56.4222126  90.4958063  -9.6016491  57.1631839  91.0965217  -9.6812028
  56.6540049  89.7535701 -10.1598448  51.5663464  95.6814431 -11.3238261
  51.4516979  94.7799688 -11.0231162  50.7107982  95.9278127 -11.6753444
  58.2473583  90.2781957 -12.3769194  57.6001498  90.9771907 -12.4704718
  59.0174598  90.7118101 -12.0092946  54.0886743  93.6247796 -12.3253099
  53.5524100  93.1738535 -11.6731502  53.5003451  93.7593705 -13.0682634
  58.2562604  97.1436664  -8.7384619  57.5803241  97.0430793  -8.0682244
  59.0790238  96.9875878  -8.2748622  51.9749880  90.7978741 -13.9005118
  52.0391207  91.6593572 -14.3127721  51.9117000  90.1852743 -14.6332760
  51.4502153  92.8701874 -10.2532084  52.0774192  92.4878951  -9.6394560
  50.5930072  92.6516076  -9.8876392  54.5588256  90.0888726 -12.0645529
  55.0822658  90.3351022 -11.3019220  54.3400589  90.9208761 -12.4842392
  54.6870210  92.1919780  -8.5918164  54.7358365  93.0681903  -8.9740395
  55.2292724  91.6497173  -9.1646521  56.9169498  92.9451152 -11.8371806
  56.0472808  93.2384718 -12.1089217  57.1528979  93.5291597 -11.1164542
  55.8130024  93.6302845  -6.4038223  55.7126751  94.5797202  -6.4726132
  55.5951566  93.3021084  -7.2762153  55.6761294  97.0599984  -7.5873161
  55.1928376  97.8600344  -7.3809272  55.7622233  97.0707928  -8.5405717
  47.4468928  93.8543768 -12.2841733  48.0927791  93.3442722 -11.7954508
  47.2386079  94.5912450 -11.7098308  51.7866419  91.0011385  -8.1866719
  52.6497880  90.6448190  -7.9763394  51.2131829  90.6625280  -7.4991314
 148.3884554 148.3884554 148.3884554 109.4712190 109.4712190 109.4712190
